Title
81333
    1CHL1    C3    1   3.936   5.858  10.286 -0.0380  0.6639 -0.1689
    1CHL1    H3    2   3.985   5.957  10.274 -0.7550  1.2514  1.6025
    1CHL1    O3    3   3.899   5.827  10.420  0.3403 -0.4752  0.1569
    1CHL1   H3'    4   3.812   5.790  10.412  0.5223 -0.7656 -0.5144
    1CHL1    C4    5   3.807   5.874  10.204  0.0307 -0.4392 -0.0465
    1CHL1   H4A    6   3.744   5.784  10.219  0.9375 -0.9018  1.0736
    1CHL1   H4B    7   3.757   5.967  10.238  0.5232  0.4051 -1.5937
    1CHL1    C5    8   3.842   5.872  10.056 -0.1908  0.1738  0.5414
    1CHL1    C6    9   3.788   5.966   9.983 -0.5184 -0.7514  0.5293
    1CHL1    H6   10   3.714   6.038  10.021 -0.8449  0.1338 -1.6877
    1CHL1    C7   11   3.812   5.981   9.832 -1.1679  0.0126  0.8750
    1CHL1   H7A   12   3.730   6.000   9.760 -0.2792  0.2174 -0.0947
    1CHL1   H7B   13   3.876   6.072   9.830 -0.7929 -0.1610  2.9977
    1CHL1    C8   14   3.884   5.860   9.775 -0.5442  0.4672  0.3138
    1CHL1    H8   15   3.812   5.778   9.755 -0.0673 -0.5019  2.4575
    1CHL1   C14   16   3.947   5.889   9.630  0.0100  0.7452 -0.1405
    1CHL1   H14   17   4.017   5.971   9.656  0.2867  0.5236 -0.2003
    1CHL1   C15   18   3.853   5.957   9.528 -0.1456 -0.2934 -0.0722
    1CHL1  H15A   19   3.747   5.929   9.513 -1.0782  0.7112  4.0896
    1CHL1  H15B   20   3.824   6.057   9.565 -3.7374 -1.0679 -0.6410
    1CHL1   C16   21   3.920   5.952   9.395 -0.5160 -0.6129  0.9535
    1CHL1  H16A   22   3.860   5.893   9.321 -0.9981 -1.7358  2.2292
    1CHL1  H16B   23   3.945   6.049   9.347  0.9876 -0.4914  1.9750
    1CHL1   C17   24   4.048   5.860   9.417 -0.4467 -0.0759  0.1331
    1CHL1   H17   25   4.128   5.925   9.458  0.5056 -2.4884  2.2745
    1CHL1   C13   26   4.021   5.775   9.550  0.6014 -0.2045 -0.5157
    1CHL1   C18   27   3.937   5.652   9.508 -0.3186  0.5621  0.1339
    1CHL1  H18A   28   3.982   5.577   9.440  1.4811  0.5559  1.2696
    1CHL1  H18B   29   3.905   5.602   9.603  2.6148 -0.4470  0.6679
    1CHL1  H18C   30   3.849   5.679   9.447 -0.1732 -0.4111 -0.5169
    1CHL1   C12   31   4.137   5.741   9.650 -0.0980  0.0908 -0.0730
    1CHL1  H12A   32   4.201   5.661   9.608 -1.0911 -0.8613  0.1933
    1CHL1  H12B   33   4.201   5.830   9.662  0.9778 -0.7183  0.2435
    1CHL1   C11   34   4.092   5.703   9.794 -0.3797  0.4473 -0.4784
    1CHL1  H11A   35   4.027   5.614   9.782  0.9637 -0.6202  0.0819
    1CHL1  H11B   36   4.181   5.683   9.857 -0.0520  1.9611 -0.4329
    1CHL1    C9   37   4.002   5.811   9.864 -0.1871  0.4368 -0.7449
    1CHL1    H9   38   4.070   5.898   9.880  0.4496  0.2611 -2.3745
    1CHL1   C10   39   3.946   5.768  10.006 -0.3351  0.7298 -0.5989
    1CHL1   C19   40   3.866   5.640  10.002  0.6595  0.1562 -0.0225
    1CHL1  H19A   41   3.785   5.647   9.926  2.1345  1.2728 -1.5311
    1CHL1  H19B   42   3.921   5.554   9.956 -0.6598 -0.6443 -0.1382
    1CHL1  H19C   43   3.815   5.611  10.096 -1.1041  0.3461 -0.9040
    1CHL1    C1   44   4.066   5.766  10.101 -0.5891 -0.2956  0.2948
    1CHL1   H1A   45   4.131   5.681  10.072  0.1399 -0.0860  1.3024
    1CHL1   H1B   46   4.133   5.854  10.088 -3.2585  1.4750 -2.2433
    1CHL1    C2   47   4.033   5.752  10.245  0.5031 -0.8335 -0.1418
    1CHL1   H2A   48   4.126   5.775  10.301 -1.3576  3.4143  1.4067
    1CHL1   H2B   49   3.999   5.648  10.264  1.1507 -0.7203  1.7176
    1CHL1   C20   50   4.098   5.786   9.292  0.8005 -1.2701 -0.0099
    1CHL1   H20   51   4.031   5.699   9.276 -1.7417  0.9086 -1.6101
    1CHL1   C21   52   4.242   5.735   9.312 -0.4341 -0.3478  0.4800
    1CHL1  H21A   53   4.258   5.652   9.383 -1.8399 -0.2932  0.8857
    1CHL1  H21B   54   4.297   5.814   9.367 -2.0022  1.1820 -0.0680
    1CHL1  H21C   55   4.297   5.709   9.219 -0.5637 -2.5767  1.0019
    1CHL1   C22   56   4.101   5.863   9.161 -0.1139  0.1667  0.3608
    1CHL1  H22A   57   4.130   5.786   9.086 -0.6690  1.0435 -0.7549
    1CHL1  H22B   58   4.001   5.904   9.137 -0.9471 -1.9721  0.0059
    1CHL1   C23   59   4.192   5.993   9.151 -0.7025  0.0166  0.0847
    1CHL1  H23A   60   4.156   6.063   9.229 -0.4616  0.7897 -0.4956
    1CHL1  H23B   61   4.301   5.971   9.153 -0.1483  2.5470 -0.5403
    1CHL1   C24   62   4.158   6.067   9.012 -0.3082 -0.7097 -0.1391
    1CHL1  H24A   63   4.051   6.097   9.013 -0.2762 -0.6070  1.2629
    1CHL1  H24B   64   4.216   6.160   8.990 -1.9464 -0.0894 -2.0520
    1CHL1   C25   65   4.180   5.972   8.894 -0.3666 -0.0668 -0.1643
    1CHL1   H25   66   4.107   5.888   8.892 -1.0129  0.5019 -0.8156
    1CHL1   C26   67   4.137   6.060   8.767  0.1644 -0.5476  0.2637
    1CHL1  H26A   68   4.223   6.129   8.753 -0.7528  0.2390 -1.7837
    1CHL1  H26B   69   4.125   5.992   8.680  1.1062  0.2158 -0.4626
    1CHL1  H26C   70   4.042   6.110   8.797  0.5186  0.2023  0.1473
    1CHL1   C27   71   4.320   5.932   8.862 -0.8893 -0.1839  0.3908
    1CHL1  H27A   72   4.322   5.848   8.789  0.2127 -1.6732  2.0822
    1CHL1  H27B   73   4.380   6.021   8.832 -1.0702 -0.1764  0.0469
    1CHL1  H27C   74   4.368   5.888   8.952 -1.2274  1.0736  1.1988
    2CHL1    C3   75   4.819   3.269  10.070  1.0009 -0.3944 -0.2738
    2CHL1    H3   76   4.914   3.242  10.019  0.6662  1.0193 -1.6941
    2CHL1    O3   77   4.829   3.269  10.212 -0.2691  0.2581 -0.4255
    2CHL1   H3'   78   4.759   3.333  10.231  0.5094  0.5857  1.4155
    2CHL1    C4   79   4.784   3.411  10.017 -0.1135  0.5728  0.2180
    2CHL1   H4A   80   4.694   3.459  10.061  0.3546  2.2285 -0.5749
    2CHL1   H4B   81   4.865   3.482  10.045  0.0299  0.8922 -0.9567
    2CHL1    C5   82   4.763   3.400   9.869  0.2870  0.1566  0.3353
    2CHL1    C6   83   4.826   3.482   9.781 -0.1329  0.3446 -0.5373
    2CHL1    H6   84   4.890   3.560   9.825  0.5033 -0.5721  0.1807
    2CHL1    C7   85   4.795   3.495   9.633  0.3801  0.0025 -0.2440
    2CHL1   H7A   86   4.779   3.601   9.603  0.6748 -0.1171 -0.8313
    2CHL1   H7B   87   4.882   3.458   9.574 -0.2039 -0.8823 -0.5495
    2CHL1    C8   88   4.670   3.418   9.603  0.0543 -0.3589  0.1158
    2CHL1    H8   89   4.589   3.480   9.646  1.6083  2.9134 -1.5039
    2CHL1   C14   90   4.651   3.405   9.444 -0.3786  0.2601  0.1424
    2CHL1   H14   91   4.744   3.357   9.406  1.2187  3.7205 -0.4553
    2CHL1   C15   92   4.649   3.539   9.369  0.0980  0.0488 -0.1397
    2CHL1  H15A   93   4.587   3.618   9.417 -0.7103 -0.9430  0.4740
    2CHL1  H15B   94   4.752   3.578   9.358 -0.3930  1.3791 -0.1353
    2CHL1   C16   95   4.594   3.499   9.230 -0.6844 -0.3161 -0.4246
    2CHL1  H16A   96   4.503   3.558   9.206 -0.4072  1.2082  2.0484
    2CHL1  H16B   97   4.665   3.516   9.146  0.0285  0.0203  0.2398
    2CHL1   C17   98   4.550   3.349   9.237 -0.7156 -0.5063 -0.5380
    2CHL1   H17   99   4.637   3.287   9.209  0.3983  0.3779  0.8952
    2CHL1   C13  100   4.532   3.317   9.386 -0.0869  0.0054 -0.2371
    2CHL1   C18  101   4.405   3.393   9.442  0.2621  0.0340  0.2505
    2CHL1  H18A  102   4.374   3.489   9.396 -0.3264  0.5600  1.7213
    2CHL1  H18B  103   4.314   3.334   9.416 -0.5316  1.7849 -1.0428
    2CHL1  H18C  104   4.410   3.395   9.553  1.4224 -5.2728  0.4692
    2CHL1   C12  105   4.543   3.172   9.443  0.2712 -0.6881  0.1728
    2CHL1  H12A  106   4.457   3.110   9.411  0.7133 -0.5240 -1.3377
    2CHL1  H12B  107   4.635   3.126   9.401  0.2853  0.3743 -0.9821
    2CHL1   C11  108   4.561   3.185   9.598  0.1640 -0.3064 -0.0679
    2CHL1  H11A  109   4.460   3.224   9.623 -0.2963 -0.0891 -2.1180
    2CHL1  H11B  110   4.576   3.081   9.633 -0.4900  0.0875  1.4212
    2CHL1    C9  111   4.667   3.276   9.669  0.2669 -0.0774 -0.4053
    2CHL1    H9  112   4.768   3.235   9.648  0.4183 -0.5255  1.2005
    2CHL1   C10  113   4.670   3.291   9.825  0.2620  0.7267  0.6376
    2CHL1   C19  114   4.522   3.328   9.868 -0.0794  0.3587 -0.6091
    2CHL1  H19A  115   4.453   3.243   9.850 -2.7522  1.6751  2.9138
    2CHL1  H19B  116   4.526   3.347   9.977  1.9923  1.7878 -0.9181
    2CHL1  H19C  117   4.494   3.417   9.808  2.5433  0.2361 -2.0897
    2CHL1    C1  118   4.702   3.146   9.880  0.1956 -0.3779  0.6032
    2CHL1   H1A  119   4.614   3.084   9.853 -0.0472  0.9139 -1.7263
    2CHL1   H1B  120   4.785   3.096   9.827 -0.3331 -0.2807 -0.3207
    2CHL1    C2  121   4.721   3.160  10.027  0.2430  0.8403 -0.0905
    2CHL1   H2A  122   4.759   3.064  10.067  0.8380  0.5833 -1.2531
    2CHL1   H2B  123   4.619   3.181  10.067 -0.1709 -2.3523  0.6324
    2CHL1   C20  124   4.449   3.315   9.130  0.0450 -0.0412  0.7611
    2CHL1   H20  125   4.375   3.396   9.143  0.8986  0.5799  1.7765
    2CHL1   C21  126   4.392   3.176   9.154 -0.5184  0.9140  0.0358
    2CHL1  H21A  127   4.305   3.143   9.093 -0.7908 -0.1120  0.9687
    2CHL1  H21B  128   4.356   3.159   9.257  0.6336 -1.1963  0.1327
    2CHL1  H21C  129   4.470   3.100   9.130 -0.9744  0.4935 -0.1213
    2CHL1   C22  130   4.508   3.335   8.989 -0.6488 -0.1644  0.5474
    2CHL1  H22A  131   4.599   3.398   8.988  1.1812 -2.7421 -0.3360
    2CHL1  H22B  132   4.548   3.235   8.963 -0.2720  0.0319  0.3697
    2CHL1   C23  133   4.410   3.382   8.883 -0.0324  0.5579 -0.1004
    2CHL1  H23A  134   4.308   3.339   8.885 -1.2350  2.9205 -3.9668
    2CHL1  H23B  135   4.390   3.490   8.900 -0.7927  0.2671  0.8971
    2CHL1   C24  136   4.472   3.392   8.741 -0.3631 -0.1394 -0.1911
    2CHL1  H24A  137   4.557   3.464   8.738 -1.6245  1.4622  1.5006
    2CHL1  H24B  138   4.518   3.298   8.703  1.9642  0.4240  1.1257
    2CHL1   C25  139   4.378   3.451   8.629  0.0233 -0.6719  0.0277
    2CHL1   H25  140   4.447   3.457   8.542  0.2922 -0.8409  0.2271
    2CHL1   C26  141   4.264   3.359   8.587 -0.4429 -0.7296  1.0520
    2CHL1  H26A  142   4.197   3.334   8.672 -0.1086 -0.7784  1.3030
    2CHL1  H26B  143   4.208   3.414   8.508  0.5413  0.5537  1.2306
    2CHL1  H26C  144   4.299   3.266   8.536 -0.1127 -0.0866  0.0876
    2CHL1   C27  145   4.325   3.586   8.665  0.6278 -0.0117 -0.6529
    2CHL1  H27A  146   4.284   3.636   8.575  1.1232  1.9077  0.1460
    2CHL1  H27B  147   4.251   3.583   8.748  1.5111 -1.0173  0.1274
    2CHL1  H27C  148   4.407   3.650   8.704 -0.6900  1.8866 -0.9084
    3CHL1    C3  149   5.346   3.242  10.315 -0.2524  0.7595 -0.2112
    3CHL1    H3  150   5.391   3.343  10.304  0.9534  0.4083  1.3074
    3CHL1    O3  151   5.318   3.210  10.454 -0.7196  0.0097  0.0882
    3CHL1   H3'  152   5.267   3.129  10.451  3.7345 -3.2243  3.9754
    3CHL1    C4  153   5.210   3.232  10.240  0.1352 -0.9104 -0.0478
    3CHL1   H4A  154   5.170   3.129  10.251  3.1656 -2.0068  1.3520
    3CHL1   H4B  155   5.135   3.294  10.293 -1.3895 -2.2375 -0.6265
    3CHL1    C5  156   5.237   3.276  10.097  0.3439  0.0023  0.0292
    3CHL1    C6  157   5.183   3.389  10.044  0.2750  0.0478  0.7268
    3CHL1    H6  158   5.097   3.431  10.099 -1.6755 -0.0215 -2.1833
    3CHL1    C7  159   5.205   3.433   9.901 -0.0672  0.2499 -0.6029
    3CHL1   H7A  160   5.109   3.453   9.848 -0.5594 -1.1696 -0.2490
    3CHL1   H7B  161   5.275   3.520   9.900 -1.9748  1.8816  1.4939
    3CHL1    C8  162   5.274   3.321   9.821  0.0571  0.3652 -1.0633
    3CHL1    H8  163   5.195   3.246   9.804 -0.3881  0.2906  1.2149
    3CHL1   C14  164   5.321   3.380   9.689 -0.5612 -0.5836 -0.5994
    3CHL1   H14  165   5.388   3.465   9.716 -1.3399 -0.4147  0.8417
    3CHL1   C15  166   5.211   3.444   9.597 -0.6785 -0.1238 -0.0516
    3CHL1  H15A  167   5.127   3.373   9.583  1.0944 -2.7020  1.9046
    3CHL1  H15B  168   5.171   3.540   9.635 -0.1008 -0.2649  0.9197
    3CHL1   C16  169   5.293   3.466   9.470 -0.7106 -0.1411 -0.0442
    3CHL1  H16A  170   5.225   3.435   9.387 -0.9725 -0.8464  0.4312
    3CHL1  H16B  171   5.327   3.570   9.451  1.3013 -0.9367 -0.9531
    3CHL1   C17  172   5.426   3.376   9.477  0.8107 -0.3325  0.0587
    3CHL1   H17  173   5.507   3.446   9.506  0.2026  1.6656 -2.8514
    3CHL1   C13  174   5.398   3.290   9.597  0.4236  0.2769 -0.3951
    3CHL1   C18  175   5.304   3.161   9.569  0.1169  0.0752  0.6446
    3CHL1  H18A  176   5.290   3.104   9.664  0.4088 -1.8429 -0.4363
    3CHL1  H18B  177   5.209   3.200   9.527  1.8258  1.8276 -1.7665
    3CHL1  H18C  178   5.355   3.101   9.492 -0.1144  1.1677 -0.3731
    3CHL1   C12  179   5.525   3.239   9.674 -0.2225  0.6277  0.1288
    3CHL1  H12A  180   5.574   3.160   9.614  0.9163  1.6851 -0.3684
    3CHL1  H12B  181   5.595   3.325   9.686 -0.6879  0.9916  0.2584
    3CHL1   C11  182   5.495   3.173   9.806  0.0138  0.1079 -0.0204
    3CHL1  H11A  183   5.449   3.074   9.785  0.4677  0.2199 -1.5809
    3CHL1  H11B  184   5.592   3.152   9.855  0.9508 -0.2007 -1.9577
    3CHL1    C9  185   5.395   3.261   9.897 -0.3900  0.0289  0.3493
    3CHL1    H9  186   5.459   3.350   9.915  1.0343 -0.7251 -0.8075
    3CHL1   C10  187   5.349   3.194  10.031 -0.2900  0.3346 -0.1805
    3CHL1   C19  188   5.285   3.051  10.006 -0.4113  0.5822 -0.1784
    3CHL1  H19A  189   5.362   2.994   9.950 -0.6070  1.1072 -0.9826
    3CHL1  H19B  190   5.234   2.999  10.091  0.9773  0.5193  0.6287
    3CHL1  H19C  191   5.198   3.059   9.936 -0.8490  0.4166  0.3391
    3CHL1    C1  192   5.478   3.178  10.116 -0.0922  0.1520 -0.6198
    3CHL1   H1A  193   5.542   3.093  10.083  0.3810 -0.2882  1.3283
    3CHL1   H1B  194   5.545   3.267  10.110 -2.3579  1.8082 -2.0989
    3CHL1    C2  195   5.441   3.142  10.267  0.2609 -0.3016 -0.0614
    3CHL1   H2A  196   5.536   3.151  10.324 -0.0794 -0.0661  0.4670
    3CHL1   H2B  197   5.401   3.039  10.278 -3.2929  1.2124  2.2514
    3CHL1   C20  198   5.453   3.308   9.339  0.0003  0.3314  0.3573
    3CHL1   H20  199   5.356   3.254   9.330  0.2958 -0.1688  0.1582
    3CHL1   C21  200   5.578   3.212   9.337 -0.2158 -0.0461 -0.0602
    3CHL1  H21A  201   5.591   3.193   9.229 -0.3890  0.4686 -0.1744
    3CHL1  H21B  202   5.566   3.115   9.391 -1.3225  0.3491  0.4239
    3CHL1  H21C  203   5.673   3.260   9.368  1.1133 -2.0705 -0.8863
    3CHL1   C22  204   5.476   3.410   9.226 -0.4162 -0.2491  0.0432
    3CHL1  H22A  205   5.416   3.502   9.241  0.4419 -0.1351  2.9704
    3CHL1  H22B  206   5.584   3.431   9.236 -0.5563  0.0523  0.9283
    3CHL1   C23  207   5.436   3.363   9.087 -0.6666 -0.6637  0.4372
    3CHL1  H23A  208   5.454   3.256   9.066 -0.5725 -1.0418  2.3588
    3CHL1  H23B  209   5.329   3.392   9.088 -0.5990 -0.3988  2.7986
    3CHL1   C24  210   5.506   3.456   8.981  0.1068 -0.3598  0.4168
    3CHL1  H24A  211   5.458   3.556   8.992 -0.8676 -0.9113  1.3072
    3CHL1  H24B  212   5.616   3.471   8.974 -0.1983  0.3945 -4.0638
    3CHL1   C25  213   5.465   3.417   8.834 -0.0702 -0.4042 -0.3218
    3CHL1   H25  214   5.501   3.313   8.822 -1.1782 -1.0758  1.9500
    3CHL1   C26  215   5.314   3.433   8.817  0.2709  0.9461  0.3874
    3CHL1  H26A  216   5.283   3.418   8.711 -0.1306  0.6313  0.5499
    3CHL1  H26B  217   5.264   3.353   8.876 -0.1812  0.8776 -0.0865
    3CHL1  H26C  218   5.279   3.531   8.855 -1.4431  0.4652  0.0684
    3CHL1   C27  219   5.538   3.501   8.731  0.3636 -0.0492  0.4330
    3CHL1  H27A  220   5.483   3.488   8.635 -0.6633  0.3068  0.9621
    3CHL1  H27B  221   5.518   3.606   8.761 -1.3186 -0.4289  0.6733
    3CHL1  H27C  222   5.649   3.493   8.734  0.3186 -0.2951  1.6955
    4CHL1    C3  223   4.372   5.333  10.499 -0.2344  0.3631  0.2286
    4CHL1    H3  224   4.387   5.439  10.470 -0.3752  0.2930 -0.1002
    4CHL1    O3  225   4.392   5.328  10.638 -0.3689  0.1739  0.2484
    4CHL1   H3'  226   4.486   5.340  10.657  0.3727 -2.3710 -1.4577
    4CHL1    C4  227   4.230   5.292  10.453 -0.6367 -0.2166  0.3204
    4CHL1   H4A  228   4.201   5.194  10.495 -0.0149 -0.6615 -0.2856
    4CHL1   H4B  229   4.170   5.364  10.513  0.0285  0.5556  0.0619
    4CHL1    C5  230   4.220   5.290  10.302  0.1597 -0.3069 -0.2273
    4CHL1    C6  231   4.121   5.354  10.245 -0.3986  0.1935  0.2855
    4CHL1    H6  232   4.031   5.374  10.305 -3.2664 -1.0254 -3.4387
    4CHL1    C7  233   4.095   5.340  10.098  0.5470  0.2265 -0.1422
    4CHL1   H7A  234   3.990   5.313  10.076  0.0522 -1.4713  3.8342
    4CHL1   H7B  235   4.111   5.440  10.053  1.3981  0.1926  0.0689
    4CHL1    C8  236   4.188   5.240  10.024  0.8032  0.6533  0.4680
    4CHL1    H8  237   4.142   5.139  10.031  0.1505  0.9747  0.8462
    4CHL1   C14  238   4.191   5.283   9.876  0.6315 -0.6686  0.3316
    4CHL1   H14  239   4.229   5.387   9.873  2.3085 -1.1754  2.5600
    4CHL1   C15  240   4.055   5.287   9.807  0.5071  0.1148  0.0322
    4CHL1  H15A  241   3.985   5.209   9.844  0.8616 -0.6625 -0.8818
    4CHL1  H15B  242   4.014   5.390   9.815 -0.4847 -0.2602 -0.1831
    4CHL1   C16  243   4.079   5.273   9.659  0.4978  0.2064 -0.9248
    4CHL1  H16A  244   4.038   5.180   9.616  1.4260 -0.2109 -0.9186
    4CHL1  H16B  245   4.037   5.357   9.601  0.2698  1.7807  1.4442
    4CHL1   C17  246   4.230   5.258   9.649 -0.2440 -0.0201 -0.0573
    4CHL1   H17  247   4.266   5.359   9.620 -2.1331  0.4436 -0.8666
    4CHL1   C13  248   4.277   5.203   9.784  0.0593 -0.3304 -0.1437
    4CHL1   C18  249   4.230   5.052   9.793 -0.8941 -0.2237  0.1584
    4CHL1  H18A  250   4.290   4.985   9.728  1.9621  1.8560  0.5142
    4CHL1  H18B  251   4.249   5.009   9.894  0.3163 -1.6799 -0.6610
    4CHL1  H18C  252   4.121   5.043   9.779 -0.9115 -1.1323  0.7813
    4CHL1   C12  253   4.419   5.220   9.836 -0.2207 -0.4143 -0.5385
    4CHL1  H12A  254   4.494   5.171   9.771 -3.1358 -1.5392 -3.2366
    4CHL1  H12B  255   4.438   5.329   9.837 -1.6504 -0.1565 -0.0980
    4CHL1   C11  256   4.434   5.175   9.982 -0.5395 -0.0994  0.5407
    4CHL1  H11A  257   4.437   5.065   9.991 -1.3012 -0.0011  2.3907
    4CHL1  H11B  258   4.535   5.212  10.009  0.1134 -0.4249 -1.4061
    4CHL1    C9  259   4.329   5.241  10.074  0.6095 -0.2834  0.0904
    4CHL1    H9  260   4.355   5.348  10.060  0.8275 -0.4565 -0.8544
    4CHL1   C10  261   4.332   5.211  10.224  0.3885 -0.2000  0.2219
    4CHL1   C19  262   4.309   5.058  10.248  0.4709 -0.0771 -0.6673
    4CHL1  H19A  263   4.253   4.999  10.172  0.6003 -0.6563 -0.3123
    4CHL1  H19B  264   4.404   5.002  10.252 -1.6672 -3.7533  4.1658
    4CHL1  H19C  265   4.271   5.043  10.351  3.2309  1.8070  0.6789
    4CHL1    C1  266   4.470   5.257  10.274 -0.2158  0.0230  1.1143
    4CHL1   H1A  267   4.554   5.192  10.240 -0.7643 -0.8387  1.3678
    4CHL1   H1B  268   4.498   5.359  10.242 -1.6630 -0.0716 -0.4954
    4CHL1    C2  269   4.481   5.245  10.433 -0.1278  0.8283  0.2527
    4CHL1   H2A  270   4.579   5.284  10.470  0.9902 -1.1821 -0.4991
    4CHL1   H2B  271   4.468   5.140  10.465 -0.4555  0.7914 -0.0052
    4CHL1   C20  272   4.269   5.179   9.514 -0.0806 -0.0324  1.1418
    4CHL1   H20  273   4.228   5.076   9.528 -0.0575 -0.2807 -0.5063
    4CHL1   C21  274   4.417   5.174   9.486 -0.4089 -0.0868  0.0916
    4CHL1  H21A  275   4.444   5.123   9.390  2.1471  0.0115  0.7324
    4CHL1  H21B  276   4.469   5.116   9.565  0.1272  0.9936  0.5291
    4CHL1  H21C  277   4.440   5.282   9.474 -1.1936  0.1048  0.2868
    4CHL1   C22  278   4.187   5.222   9.385  0.3225  0.1876  0.0814
    4CHL1  H22A  279   4.204   5.155   9.298  1.9860  1.4684 -0.6043
    4CHL1  H22B  280   4.083   5.198   9.415 -0.2806  1.4040 -0.9771
    4CHL1   C23  281   4.192   5.372   9.340 -0.0095  0.2097 -0.2038
    4CHL1  H23A  282   4.184   5.437   9.429  2.1391  1.0590 -0.5947
    4CHL1  H23B  283   4.285   5.401   9.287 -0.4903  0.4622 -0.9147
    4CHL1   C24  284   4.083   5.406   9.229  0.1823 -0.6268  0.1439
    4CHL1  H24A  285   3.982   5.399   9.276  0.2020  1.4445  0.5478
    4CHL1  H24B  286   4.102   5.513   9.206 -1.7948 -0.2916 -0.0277
    4CHL1   C25  287   4.073   5.322   9.099 -0.2497  0.2480  0.5849
    4CHL1   H25  288   4.036   5.219   9.122 -1.0970  0.8305  1.9008
    4CHL1   C26  289   3.977   5.384   8.998  0.0157 -0.3922  0.4989
    4CHL1  H26A  290   3.872   5.368   9.029  0.5798 -1.1878  2.0715
    4CHL1  H26B  291   3.989   5.494   8.997  0.7589 -0.4719  0.3313
    4CHL1  H26C  292   4.002   5.349   8.896  1.2313 -0.5577  0.8489
    4CHL1   C27  293   4.205   5.308   9.023 -0.2196 -0.5911 -0.8372
    4CHL1  H27A  294   4.207   5.239   8.937  1.7159 -1.5256 -0.0915
    4CHL1  H27B  295   4.232   5.409   8.985 -0.7943 -0.3854 -0.7043
    4CHL1  H27C  296   4.290   5.280   9.090  0.5771 -0.9273 -1.9772
    5CHL1    C3  297   5.749   2.727  10.159  0.0017  0.2240 -0.1992
    5CHL1    H3  298   5.658   2.781  10.194  0.3253  0.6155  0.0342
    5CHL1    O3  299   5.839   2.712  10.264 -0.8598 -0.5596 -0.2415
    5CHL1   H3'  300   5.912   2.773  10.249 -2.4393  1.0792 -1.3959
    5CHL1    C4  301   5.705   2.589  10.103  0.6613 -0.3849  0.3944
    5CHL1   H4A  302   5.794   2.530  10.071  1.0572  0.5774 -0.3241
    5CHL1   H4B  303   5.653   2.528  10.180  0.2041  0.2250  0.5679
    5CHL1    C5  304   5.618   2.622   9.989  0.1420  0.3585 -0.5003
    5CHL1    C6  305   5.495   2.567   9.976 -0.0820 -0.3042 -0.0428
    5CHL1    H6  306   5.472   2.485  10.045 -1.5003  1.1211  1.2455
    5CHL1    C7  307   5.404   2.592   9.858 -0.1908 -0.1300  0.3696
    5CHL1   H7A  308   5.347   2.502   9.825 -1.9507  1.0920 -0.0250
    5CHL1   H7B  309   5.330   2.671   9.883 -0.0938  0.1766 -0.2784
    5CHL1    C8  310   5.481   2.645   9.725 -0.2338  0.4590  0.5799
    5CHL1    H8  311   5.547   2.564   9.687  1.0018  1.3094  0.8648
    5CHL1   C14  312   5.393   2.694   9.609  0.0298  0.2516  0.0430
    5CHL1   H14  313   5.345   2.785   9.651 -0.5313 -0.2713  0.5508
    5CHL1   C15  314   5.281   2.604   9.560  0.5834 -0.4725 -0.1243
    5CHL1  H15A  315   5.310   2.497   9.555 -0.3274 -0.6845 -1.1023
    5CHL1  H15B  316   5.198   2.618   9.632 -1.1350 -0.4201 -2.0650
    5CHL1   C16  317   5.240   2.660   9.422 -0.0147  0.2541 -0.3431
    5CHL1  H16A  318   5.240   2.595   9.332 -1.0055  1.3476 -1.1512
    5CHL1  H16B  319   5.144   2.715   9.426  0.2608  0.8760 -1.7742
    5CHL1   C17  320   5.343   2.772   9.391  0.4637 -0.2380 -0.0593
    5CHL1   H17  321   5.299   2.868   9.424 -1.0009 -0.9171  0.0267
    5CHL1   C13  322   5.467   2.738   9.478  0.4982  0.3197 -0.3997
    5CHL1   C18  323   5.549   2.628   9.409  0.5669  0.8158 -0.3335
    5CHL1  H18A  324   5.484   2.545   9.374  0.4531  0.7332  0.0726
    5CHL1  H18B  325   5.613   2.671   9.328  0.2535 -0.1468 -1.1076
    5CHL1  H18C  326   5.613   2.579   9.485 -1.2152 -0.8042  0.1392
    5CHL1   C12  327   5.552   2.860   9.523 -0.4393 -0.4621  0.2201
    5CHL1  H12A  328   5.615   2.904   9.443 -1.9846 -1.0353 -1.3376
    5CHL1  H12B  329   5.485   2.943   9.553 -1.7979 -0.8816 -1.5480
    5CHL1   C11  330   5.648   2.827   9.635 -0.3547 -0.6990  0.3018
    5CHL1  H11A  331   5.721   2.757   9.590 -0.5328  0.0897 -1.2123
    5CHL1  H11B  332   5.718   2.910   9.657 -2.1160  1.2257 -1.2470
    5CHL1    C9  333   5.582   2.756   9.763 -0.3174 -0.3053  0.5155
    5CHL1    H9  334   5.506   2.828   9.804 -0.4005  0.3369 -0.7485
    5CHL1   C10  335   5.675   2.713   9.880  0.3074  0.6421  0.6312
    5CHL1   C19  336   5.782   2.627   9.802 -0.4980  0.0765  0.2820
    5CHL1  H19A  337   5.754   2.547   9.730 -1.1923  1.0452 -0.5370
    5CHL1  H19B  338   5.848   2.690   9.738  0.2808 -1.7867 -0.8040
    5CHL1  H19C  339   5.848   2.571   9.871 -2.4463 -2.3462  0.2456
    5CHL1    C1  340   5.722   2.848   9.947  0.0192 -0.2739 -0.4569
    5CHL1   H1A  341   5.785   2.907   9.877 -1.1635  0.8242 -0.6103
    5CHL1   H1B  342   5.631   2.904   9.977  1.2352  2.5920 -1.8890
    5CHL1    C2  343   5.822   2.819  10.067  0.4556  0.1224  0.6911
    5CHL1   H2A  344   5.846   2.916  10.115  0.3548 -0.0500  1.0957
    5CHL1   H2B  345   5.917   2.773  10.032  1.3984  1.8245  0.9715
    5CHL1   C20  346   5.365   2.780   9.234 -0.1253  0.5478 -0.1976
    5CHL1   H20  347   5.407   2.681   9.207 -1.5432  0.6191 -2.7681
    5CHL1   C21  348   5.468   2.889   9.206 -0.6737 -0.7536  0.2504
    5CHL1  H21A  349   5.501   2.900   9.101  0.8557 -2.4824  0.5110
    5CHL1  H21B  350   5.560   2.860   9.262  0.5873 -0.0514 -1.3998
    5CHL1  H21C  351   5.433   2.983   9.254 -0.5151 -0.6304  0.1255
    5CHL1   C22  352   5.248   2.796   9.137 -0.0406 -0.4127 -0.4838
    5CHL1  H22A  353   5.175   2.714   9.154  0.5408 -0.3671  2.4535
    5CHL1  H22B  354   5.189   2.885   9.165 -1.4168 -1.8922  1.4663
    5CHL1   C23  355   5.279   2.793   8.987 -0.2966 -0.0731  0.7307
    5CHL1  H23A  356   5.354   2.865   8.950 -0.2963 -0.2172  0.4492
    5CHL1  H23B  357   5.309   2.687   8.971  1.7588  0.7903 -1.3754
    5CHL1   C24  358   5.150   2.806   8.913 -0.5581  0.1738 -0.0882
    5CHL1  H24A  359   5.093   2.720   8.953  0.2488  0.5892  2.0277
    5CHL1  H24B  360   5.093   2.897   8.943  0.9506  1.2125 -0.3208
    5CHL1   C25  361   5.144   2.792   8.758 -0.4350 -0.7901  0.6020
    5CHL1   H25  362   5.186   2.693   8.730  1.6812  0.2003  0.2053
    5CHL1   C26  363   4.999   2.793   8.712 -0.0748 -0.0330  0.0985
    5CHL1  H26A  364   4.957   2.893   8.734 -2.2147 -1.0598  0.8357
    5CHL1  H26B  365   4.992   2.769   8.603 -2.8683 -0.3485  0.2890
    5CHL1  H26C  366   4.942   2.713   8.764 -0.3897  0.2702  0.2208
    5CHL1   C27  367   5.218   2.895   8.679  0.6088 -0.9276  0.2426
    5CHL1  H27A  368   5.322   2.876   8.712  0.5790  0.0064  0.8924
    5CHL1  H27B  369   5.219   2.874   8.570  1.1671  0.8516 -0.1159
    5CHL1  H27C  370   5.186   2.999   8.699 -0.1110 -1.4029  1.5813
    6CHL1    C3  371   3.473   0.490  10.482  0.3933 -0.1974 -0.4831
    6CHL1    H3  372   3.364   0.465  10.479 -0.1712  1.9794  0.5475
    6CHL1    O3  373   3.528   0.513  10.602  0.1799  0.2892  0.0686
    6CHL1   H3'  374   3.575   0.432  10.623  1.7438  0.7658 -1.4713
    6CHL1    C4  375   3.545   0.372  10.418 -0.1937  0.2253  0.0957
    6CHL1   H4A  376   3.654   0.389  10.421 -0.5061  2.4284 -0.2869
    6CHL1   H4B  377   3.540   0.277  10.476 -0.5555 -0.9857 -1.8482
    6CHL1    C5  378   3.518   0.353  10.266  0.1329 -1.2335 -0.5957
    6CHL1    C6  379   3.467   0.236  10.222 -0.4932 -0.1823  0.1843
    6CHL1    H6  380   3.466   0.162  10.303  1.0311  2.9144  3.1791
    6CHL1    C7  381   3.419   0.211  10.085 -0.0832 -0.1249 -0.3290
    6CHL1   H7A  382   3.446   0.106  10.059 -0.9239 -0.2370 -0.7715
    6CHL1   H7B  383   3.310   0.227  10.085 -0.5323 -2.9053  0.5258
    6CHL1    C8  384   3.476   0.315   9.985 -0.8897 -1.1949 -0.1843
    6CHL1    H8  385   3.587   0.303   9.980 -0.9162 -1.0752 -1.1997
    6CHL1   C14  386   3.406   0.304   9.850  0.0886  0.3096 -0.6600
    6CHL1   H14  387   3.303   0.339   9.873  0.7298  1.5530  0.4270
    6CHL1   C15  388   3.394   0.164   9.779 -0.4484 -0.2479 -0.4102
    6CHL1  H15A  389   3.494   0.115   9.782 -0.0433  0.4836 -1.9374
    6CHL1  H15B  390   3.309   0.106   9.822  0.3630 -0.4566  0.9603
    6CHL1   C16  391   3.359   0.205   9.635 -0.5015  0.2443 -0.2944
    6CHL1  H16A  392   3.436   0.167   9.564  0.7424 -0.3777  1.3585
    6CHL1  H16B  393   3.254   0.183   9.609 -0.8025  0.8641  0.3990
    6CHL1   C17  394   3.382   0.361   9.625 -0.1563 -0.2678 -0.0548
    6CHL1   H17  395   3.282   0.407   9.640  0.5305  1.1036  0.4516
    6CHL1   C13  396   3.462   0.401   9.749  0.1970  0.1228  0.6413
    6CHL1   C18  397   3.611   0.366   9.724  0.0309 -0.1801  0.3987
    6CHL1  H18A  398   3.646   0.441   9.650 -1.1638 -1.1134 -1.1686
    6CHL1  H18B  399   3.673   0.391   9.812  0.1667  4.2559 -0.8276
    6CHL1  H18C  400   3.646   0.264   9.697  2.3239  0.6516  0.1549
    6CHL1   C12  401   3.445   0.547   9.792 -0.4162  0.2520 -0.0737
    6CHL1  H12A  402   3.513   0.605   9.727 -0.7479  0.7483  0.0169
    6CHL1  H12B  403   3.337   0.565   9.771 -0.6061 -1.7903 -1.0085
    6CHL1   C11  404   3.491   0.562   9.935  0.3177  0.3081 -0.1392
    6CHL1  H11A  405   3.602   0.556   9.928  0.2766 -0.0164 -0.4830
    6CHL1  H11B  406   3.474   0.667   9.968  1.0219  1.2487 -2.7005
    6CHL1    C9  407   3.453   0.453  10.040  0.9373  0.2214 -0.2641
    6CHL1    H9  408   3.345   0.465  10.062  1.0097 -1.0947  0.8591
    6CHL1   C10  409   3.524   0.478  10.179 -0.3108 -0.5853  0.0599
    6CHL1   C19  410   3.679   0.510  10.166  0.6665 -0.4579 -0.0996
    6CHL1  H19A  411   3.729   0.436  10.101 -2.0350 -2.2066 -0.2532
    6CHL1  H19B  412   3.699   0.614  10.131 -1.6978 -0.3532 -1.2157
    6CHL1  H19C  413   3.734   0.510  10.263 -0.1391 -2.7934  0.3727
    6CHL1    C1  414   3.444   0.596  10.248 -0.2040  0.2370  0.1100
    6CHL1   H1A  415   3.451   0.690  10.189  1.2489  0.5635  0.7832
    6CHL1   H1B  416   3.337   0.566  10.240  0.1416 -0.8258 -0.6644
    6CHL1    C2  417   3.483   0.618  10.395  0.4811 -0.1021 -0.0016
    6CHL1   H2A  418   3.404   0.683  10.437 -0.8148 -0.1869 -2.2141
    6CHL1   H2B  419   3.579   0.673  10.395 -0.5673  1.7604 -0.5487
    6CHL1   C20  420   3.422   0.414   9.487 -0.4573  0.1895 -0.6749
    6CHL1   H20  421   3.531   0.391   9.485 -0.3587  0.5722  0.0827
    6CHL1   C21  422   3.404   0.561   9.470  0.6308  0.3367 -0.2480
    6CHL1  H21A  423   3.393   0.595   9.365 -2.1155 -0.1967 -0.1734
    6CHL1  H21B  424   3.493   0.607   9.518  0.7482 -0.6550  0.5033
    6CHL1  H21C  425   3.308   0.581   9.522  1.1637 -0.4452  1.0637
    6CHL1   C22  426   3.348   0.350   9.363  0.0046  0.1991 -0.4316
    6CHL1  H22A  427   3.397   0.384   9.269  2.1001  0.2412  0.6495
    6CHL1  H22B  428   3.364   0.241   9.365 -3.1036 -0.3017  1.5787
    6CHL1   C23  429   3.200   0.383   9.347  0.4244  0.1470 -0.2987
    6CHL1  H23A  430   3.145   0.358   9.440 -0.3253 -1.2476 -1.0950
    6CHL1  H23B  431   3.182   0.489   9.320 -0.5487  0.2976  0.9294
    6CHL1   C24  432   3.131   0.292   9.241 -0.2447 -0.4681  0.0629
    6CHL1  H24A  433   3.176   0.326   9.145  0.7460  0.5303  0.8738
    6CHL1  H24B  434   3.156   0.185   9.261  2.5172  0.5285  2.1996
    6CHL1   C25  435   2.977   0.315   9.221  0.0152  0.6797  0.1970
    6CHL1   H25  436   2.924   0.286   9.314  0.9080  2.4675  1.3122
    6CHL1   C26  437   2.930   0.456   9.202  0.3058  0.3853  0.0860
    6CHL1  H26A  438   2.977   0.530   9.270  2.3027 -1.1228  0.3927
    6CHL1  H26B  439   2.966   0.477   9.099 -0.0835  0.7194  0.0173
    6CHL1  H26C  440   2.819   0.455   9.199  0.2753  2.8921 -0.2804
    6CHL1   C27  441   2.926   0.230   9.106 -0.4533  0.3369  0.3955
    6CHL1  H27A  442   2.956   0.124   9.119 -1.5330 -0.1664 -1.0336
    6CHL1  H27B  443   2.816   0.237   9.088 -0.3248  2.3443  0.2692
    6CHL1  H27C  444   2.967   0.259   9.007 -1.3991 -0.9417 -0.3936
    7CHL1    C3  445   0.016   3.949  10.376 -0.2829 -0.3967  0.3855
    7CHL1    H3  446   0.018   3.838  10.368  0.4019 -0.2937 -0.9550
    7CHL1    O3  447   0.058   3.998  10.506 -0.3701  0.3085  0.7464
    7CHL1   H3'  448   0.137   3.950  10.532 -1.7018 -1.2786  1.9573
    7CHL1    C4  449   0.108   4.015  10.272  0.3231 -0.2802  0.0625
    7CHL1   H4A  450   0.121   4.121  10.300  1.2327 -0.6263  0.9955
    7CHL1   H4B  451   0.206   3.963  10.281  0.8480  0.6403 -0.3791
    7CHL1    C5  452   0.060   4.022  10.133 -0.5319  0.3712  0.6552
    7CHL1    C6  453   0.136   3.971  10.038 -0.1199  0.1526 -0.2174
    7CHL1    H6  454   0.234   3.930  10.067 -0.0302  1.2807  1.1505
    7CHL1    C7  455   0.091   3.961   9.901  0.2545  0.2434 -0.1489
    7CHL1   H7A  456   0.180   3.988   9.840  0.3535 -0.0351 -0.1297
    7CHL1   H7B  457   0.072   3.858   9.863 -2.1914  0.0355  1.5222
    7CHL1    C8  458  -0.037   4.048   9.866 -1.1909 -0.6155  0.0982
    7CHL1    H8  459  -0.005   4.154   9.861 -3.1340 -0.1127 -2.5440
    7CHL1   C14  460  -0.086   4.003   9.729 -0.1322  0.1453  0.0660
    7CHL1   H14  461  -0.126   3.901   9.749  1.2404 -0.5543 -0.6660
    7CHL1   C15  462   0.018   3.979   9.617  0.3391 -0.4130  0.1179
    7CHL1  H15A  463   0.095   4.058   9.615  0.3612 -0.4282  0.3911
    7CHL1  H15B  464   0.066   3.880   9.629  1.9553  0.1200 -1.6888
    7CHL1   C16  465  -0.069   3.986   9.487 -0.1384  0.1141  0.0317
    7CHL1  H16A  466  -0.047   4.076   9.427 -0.6309  0.7824  0.8348
    7CHL1  H16B  467  -0.062   3.896   9.422  1.2888  1.1419 -1.2682
    7CHL1   C17  468  -0.217   4.008   9.542 -0.3405 -0.0881 -0.0553
    7CHL1   H17  469  -0.249   3.904   9.561  2.4768 -0.7227  1.5197
    7CHL1   C13  470  -0.203   4.081   9.680  0.1386  0.1275  0.1432
    7CHL1   C18  471  -0.152   4.226   9.646  0.2268 -0.1150 -0.6293
    7CHL1  H18A  472  -0.239   4.266   9.591 -1.1474  0.8075  2.1178
    7CHL1  H18B  473  -0.136   4.283   9.740 -2.2687  1.8654 -1.3608
    7CHL1  H18C  474  -0.061   4.226   9.582 -0.2229  2.4004 -1.3235
    7CHL1   C12  475  -0.316   4.073   9.786 -0.0675 -0.0019 -0.3232
    7CHL1  H12A  476  -0.402   4.135   9.753  0.1785  0.3732 -0.2677
    7CHL1  H12B  477  -0.352   3.972   9.812 -1.1472  0.4472 -0.0623
    7CHL1   C11  478  -0.262   4.123   9.921 -0.1353 -1.1650  0.0145
    7CHL1  H11A  479  -0.227   4.228   9.908  0.1269 -0.8988  2.5416
    7CHL1  H11B  480  -0.348   4.130   9.991  1.1214 -0.2699  1.5080
    7CHL1    C9  481  -0.147   4.038   9.972 -0.5534  0.1820  0.0766
    7CHL1    H9  482  -0.168   3.929   9.962 -0.4301  0.3034 -1.7674
    7CHL1   C10  483  -0.090   4.074  10.112  0.1326  0.1783 -0.5161
    7CHL1   C19  484  -0.097   4.230  10.134  0.4288  0.1103  0.1764
    7CHL1  H19A  485  -0.200   4.258  10.164  0.6713  0.3941  0.7449
    7CHL1  H19B  486  -0.020   4.270  10.203  0.6663 -1.0996  0.6215
    7CHL1  H19C  487  -0.062   4.278  10.040  0.2291  2.2825  1.1746
    7CHL1    C1  488  -0.177   3.987  10.204 -0.7404 -0.0618 -0.6817
    7CHL1   H1A  489  -0.285   4.016  10.200 -0.9128 -0.0486  2.8147
    7CHL1   H1B  490  -0.174   3.881  10.170  0.1722  0.3402 -1.8938
    7CHL1    C2  491  -0.135   3.985  10.355  0.2454  0.3864 -0.4052
    7CHL1   H2A  492  -0.210   3.938  10.422 -0.9465  0.4431 -1.6895
    7CHL1   H2B  493  -0.143   4.093  10.380 -2.1655  0.6849 -2.3257
    7CHL1   C20  494  -0.316   4.062   9.438 -0.0953 -0.0228 -0.3527
    7CHL1   H20  495  -0.322   4.173   9.444  0.5939 -0.0061 -0.0270
    7CHL1   C21  496  -0.459   4.002   9.472 -0.4568 -0.3770 -0.2422
    7CHL1  H21A  497  -0.478   3.893   9.456 -1.4068 -0.4966  1.5139
    7CHL1  H21B  498  -0.542   4.055   9.421  1.2543  1.5114 -1.1433
    7CHL1  H21C  499  -0.491   4.024   9.576  1.0800 -0.4363  0.2596
    7CHL1   C22  500  -0.278   4.019   9.289 -0.4384 -0.4063  0.6083
    7CHL1  H22A  501  -0.180   4.066   9.265  0.3948 -0.4828  3.5733
    7CHL1  H22B  502  -0.273   3.908   9.291 -0.6361 -0.4068  1.1840
    7CHL1   C23  503  -0.378   4.056   9.184  0.6590  0.0990 -0.2864
    7CHL1  H23A  504  -0.351   4.008   9.087  0.1452  1.4676 -1.1228
    7CHL1  H23B  505  -0.481   4.027   9.214 -0.3215  1.9375 -1.8198
    7CHL1   C24  506  -0.384   4.209   9.164  0.6519 -0.5925  0.3094
    7CHL1  H24A  507  -0.418   4.261   9.257  0.0327 -2.0149  0.8931
    7CHL1  H24B  508  -0.284   4.254   9.147  0.6868 -0.1681  1.5683
    7CHL1   C25  509  -0.468   4.258   9.041  0.4050 -0.0530 -0.3975
    7CHL1   H25  510  -0.442   4.199   8.950 -0.7620 -1.8777  0.4307
    7CHL1   C26  511  -0.619   4.265   9.076  0.5956 -0.1814  0.1669
    7CHL1  H26A  512  -0.641   4.160   9.106 -0.4912  0.7783  2.8380
    7CHL1  H26B  513  -0.631   4.334   9.162 -1.9322 -0.6238  0.2077
    7CHL1  H26C  514  -0.675   4.302   8.988 -0.0581 -0.8048  0.3169
    7CHL1   C27  515  -0.424   4.406   9.004  0.0247 -0.1808  0.2792
    7CHL1  H27A  516  -0.445   4.464   9.097 -2.0776 -1.6159  0.7438
    7CHL1  H27B  517  -0.326   4.414   8.954 -0.7521  0.1940 -1.2126
    7CHL1  H27C  518  -0.496   4.440   8.926  0.3604 -1.5461 -0.6430
    8CHL1    C3  519   0.178   5.252  10.310  1.0112  0.0761 -0.3662
    8CHL1    H3  520   0.217   5.354  10.331 -0.5954  0.6897 -0.3487
    8CHL1    O3  521   0.179   5.176  10.430  0.1689 -0.2044  0.1907
    8CHL1   H3'  522   0.173   5.085  10.399 -0.8446 -0.2420  0.4669
    8CHL1    C4  523   0.033   5.251  10.251 -0.3020 -0.6759 -0.2804
    8CHL1   H4A  524  -0.016   5.152  10.255 -1.3871 -0.1580 -0.3717
    8CHL1   H4B  525  -0.025   5.315  10.322  0.9005  0.0535  0.0568
    8CHL1    C5  526   0.036   5.309  10.115  1.2818  0.4157  0.2438
    8CHL1    C6  527  -0.036   5.420  10.096 -0.6587  1.0671  0.3875
    8CHL1    H6  528  -0.107   5.465  10.167 -0.2596  3.8576 -0.8941
    8CHL1    C7  529  -0.051   5.488   9.963  0.0370  0.0655 -0.1072
    8CHL1   H7A  530  -0.156   5.515   9.938  0.5860  1.6580 -0.7378
    8CHL1   H7B  531   0.003   5.585   9.976 -1.7509  1.3704 -2.0822
    8CHL1    C8  532   0.006   5.405   9.845 -0.0333 -0.5885 -0.6749
    8CHL1    H8  533  -0.071   5.328   9.821 -1.3370 -0.4062  2.7201
    8CHL1   C14  534   0.033   5.487   9.722  0.4980 -0.6326  0.4056
    8CHL1   H14  535   0.112   5.558   9.755 -1.0415  0.3858  1.9397
    8CHL1   C15  536  -0.077   5.582   9.659 -0.2195 -0.0022  0.4321
    8CHL1  H15A  537  -0.178   5.536   9.651 -1.4017  2.4529  0.7374
    8CHL1  H15B  538  -0.092   5.674   9.720  1.9820 -0.3095  1.4936
    8CHL1   C16  539  -0.031   5.609   9.516 -0.7039  0.3031 -0.5428
    8CHL1  H16A  540  -0.115   5.570   9.456 -1.4228 -1.6041  1.6625
    8CHL1  H16B  541  -0.011   5.716   9.494  0.8130  0.1430 -0.0389
    8CHL1   C17  542   0.095   5.527   9.491  0.1217  0.4785  0.2138
    8CHL1   H17  543   0.180   5.591   9.524 -1.6368  1.6893  2.5651
    8CHL1   C13  544   0.092   5.415   9.602 -0.1235  0.6163 -0.9441
    8CHL1   C18  545   0.004   5.291   9.562 -0.1338 -0.1547 -0.1992
    8CHL1  H18A  546  -0.041   5.231   9.644  0.4467  0.3422  0.4814
    8CHL1  H18B  547  -0.079   5.320   9.494  0.5925  0.5630 -0.7979
    8CHL1  H18C  548   0.071   5.221   9.509 -1.3626 -1.9373  0.5552
    8CHL1   C12  549   0.227   5.362   9.648 -0.1221 -0.3068  0.4114
    8CHL1  H12A  550   0.266   5.309   9.559  0.9331  2.1850 -0.6701
    8CHL1  H12B  551   0.300   5.445   9.654 -1.2242  1.0948 -3.8047
    8CHL1   C11  552   0.221   5.273   9.772  0.0136 -0.6105 -0.2699
    8CHL1  H11A  553   0.169   5.179   9.742  0.8053 -0.8219 -0.9750
    8CHL1  H11B  554   0.324   5.251   9.805 -0.2964  0.8998  1.7952
    8CHL1    C9  555   0.143   5.343   9.889  0.1821  0.3334 -0.8954
    8CHL1    H9  556   0.198   5.434   9.918  1.4822 -0.3055 -1.3145
    8CHL1   C10  557   0.123   5.249  10.008  0.1266  0.1960 -0.4256
    8CHL1   C19  558   0.063   5.116   9.972 -0.3326 -0.0870 -0.7326
    8CHL1  H19A  559   0.048   5.051  10.060  2.5543 -1.4777 -1.2143
    8CHL1  H19B  560  -0.033   5.131   9.919 -0.7065 -0.3016 -0.1076
    8CHL1  H19C  561   0.127   5.054   9.904 -1.0199  0.0056 -1.4685
    8CHL1    C1  562   0.268   5.227  10.070  0.4665 -0.5047  0.0469
    8CHL1   H1A  563   0.313   5.152  10.001  0.7809  0.7690 -1.1574
    8CHL1   H1B  564   0.331   5.318  10.075  1.0472 -0.9668  1.3349
    8CHL1    C2  565   0.259   5.166  10.214 -0.4036 -0.1954 -0.3534
    8CHL1   H2A  566   0.361   5.148  10.255 -0.5882 -1.0100 -0.2476
    8CHL1   H2B  567   0.215   5.066  10.193 -1.1456 -0.9755  4.3542
    8CHL1   C20  568   0.114   5.492   9.342  0.0764  0.1430  0.1141
    8CHL1   H20  569   0.050   5.402   9.332 -0.3984  0.4636  0.2154
    8CHL1   C21  570   0.270   5.462   9.325 -0.3178 -0.1599 -0.0695
    8CHL1  H21A  571   0.326   5.551   9.360 -0.2108 -0.2311 -0.0606
    8CHL1  H21B  572   0.293   5.438   9.219  1.8273 -2.1799  0.7917
    8CHL1  H21C  573   0.299   5.375   9.388  0.3689  0.3557  0.3354
    8CHL1   C22  574   0.053   5.591   9.240 -0.6248 -0.1467  0.0002
    8CHL1  H22A  575  -0.056   5.597   9.256 -0.6333 -0.5738  0.0886
    8CHL1  H22B  576   0.088   5.697   9.243 -1.1201  0.0288 -0.3231
    8CHL1   C23  577   0.076   5.543   9.096 -0.3966 -0.0985  0.5253
    8CHL1  H23A  578   0.186   5.542   9.076 -0.1191 -1.2300  1.9860
    8CHL1  H23B  579   0.042   5.437   9.101  2.3739 -1.0499  0.3624
    8CHL1   C24  580  -0.007   5.597   8.985 -0.0569  0.2688 -0.0039
    8CHL1  H24A  581  -0.113   5.592   9.018  0.0291  1.6798  0.5150
    8CHL1  H24B  582   0.019   5.704   8.977  0.0500  0.3360  1.1093
    8CHL1   C25  583   0.017   5.521   8.857 -0.9641  0.1764 -0.1399
    8CHL1   H25  584   0.004   5.413   8.878  0.4551 -0.0378 -0.3257
    8CHL1   C26  585  -0.082   5.561   8.749 -0.2927  0.0903 -0.0014
    8CHL1  H26A  586  -0.187   5.548   8.781  0.7894 -2.9795  2.5290
    8CHL1  H26B  587  -0.073   5.670   8.733 -0.8553  0.5167  2.4801
    8CHL1  H26C  588  -0.052   5.510   8.655 -2.5126  0.7206 -1.0889
    8CHL1   C27  589   0.166   5.541   8.803 -0.1088  0.2511 -0.6787
    8CHL1  H27A  590   0.185   5.460   8.730  0.7482 -1.3852  1.2857
    8CHL1  H27B  591   0.176   5.637   8.749  1.3667 -0.4410 -1.6799
    8CHL1  H27C  592   0.246   5.536   8.881 -1.7215  0.2068  1.0226
    9CHL1    C3  593   2.966   1.489  10.187 -0.3133  0.7580  0.0710
    9CHL1    H3  594   2.886   1.413  10.198  1.5660 -0.9987  1.8739
    9CHL1    O3  595   3.007   1.521  10.319 -0.7278 -0.0001 -0.1507
    9CHL1   H3'  596   3.088   1.568  10.301 -0.8861  0.9525  1.5826
    9CHL1    C4  597   3.080   1.442  10.101  0.6098  0.0761  1.0235
    9CHL1   H4A  598   3.162   1.517  10.106  1.0019 -0.2141 -0.7356
    9CHL1   H4B  599   3.115   1.344  10.141  0.1663 -0.5593 -0.1223
    9CHL1    C5  600   3.050   1.440   9.954 -0.6807  0.1635 -0.1631
    9CHL1    C6  601   3.061   1.326   9.889  0.6157  0.1186  0.0272
    9CHL1    H6  602   3.107   1.243   9.945  2.2165  0.9610 -0.0052
    9CHL1    C7  603   3.010   1.307   9.746  0.6955  0.6555 -0.2854
    9CHL1   H7A  604   3.089   1.251   9.691 -0.1745 -1.0865  0.2293
    9CHL1   H7B  605   2.919   1.244   9.746  2.2768 -1.6711 -1.4026
    9CHL1    C8  606   2.992   1.440   9.666  0.2903 -0.5202 -0.4993
    9CHL1    H8  607   3.091   1.481   9.637  1.5355 -3.5809 -0.6775
    9CHL1   C14  608   2.931   1.408   9.531  0.4080 -0.0571  0.2763
    9CHL1   H14  609   2.835   1.358   9.556  0.9951 -0.9717  0.7167
    9CHL1   C15  610   2.996   1.315   9.428 -0.0759  0.1007  0.5937
    9CHL1  H15A  611   3.106   1.334   9.431 -0.3358  2.1947 -1.3191
    9CHL1  H15B  612   2.988   1.208   9.456 -0.4256 -0.0933 -0.2385
    9CHL1   C16  613   2.941   1.354   9.295  0.5236  0.5388  0.9233
    9CHL1  H16A  614   3.013   1.365   9.212  0.7851 -2.2837  0.7408
    9CHL1  H16B  615   2.883   1.269   9.254 -1.1657  2.1082 -0.0294
    9CHL1   C17  616   2.852   1.487   9.317 -0.3606  0.5236 -0.6327
    9CHL1   H17  617   2.749   1.447   9.333 -0.3226  0.9736  0.7878
    9CHL1   C13  618   2.897   1.539   9.454  0.6222  0.1769  0.2600
    9CHL1   C18  619   3.017   1.626   9.424 -0.0674 -0.1136 -0.1369
    9CHL1  H18A  620   3.091   1.570   9.364 -0.5728 -0.0194 -0.8479
    9CHL1  H18B  621   2.989   1.721   9.375 -1.6143 -0.9958 -0.9938
    9CHL1  H18C  622   3.068   1.656   9.519  1.0435  0.7635 -0.9989
    9CHL1   C12  623   2.789   1.613   9.533  0.4475 -0.2009  0.1277
    9CHL1  H12A  624   2.761   1.714   9.495  2.0770  1.7121  3.7842
    9CHL1  H12B  625   2.707   1.540   9.552  1.0239 -0.9305 -0.1659
    9CHL1   C11  626   2.834   1.654   9.679  0.3470 -0.0729 -0.3046
    9CHL1  H11A  627   2.913   1.731   9.667 -1.1894  1.2745 -2.0003
    9CHL1  H11B  628   2.743   1.684   9.734 -0.7383  1.1651 -2.7348
    9CHL1    C9  629   2.899   1.530   9.754 -1.0438  0.3664  0.4790
    9CHL1    H9  630   2.812   1.464   9.774 -1.0292  0.0881 -0.3655
    9CHL1   C10  631   2.967   1.565   9.891 -0.8390 -0.1129  0.0969
    9CHL1   C19  632   3.074   1.680   9.874  0.0162 -0.4221  0.2856
    9CHL1  H19A  633   3.159   1.665   9.805 -0.7082  1.3390 -1.0276
    9CHL1  H19B  634   3.019   1.768   9.833 -2.1811 -1.6627  0.4547
    9CHL1  H19C  635   3.116   1.704   9.974 -0.2431  0.7473  0.1145
    9CHL1    C1  636   2.852   1.604   9.992 -0.4005 -0.4484 -0.3594
    9CHL1   H1A  637   2.805   1.700   9.964  0.3189 -0.5853 -2.1138
    9CHL1   H1B  638   2.770   1.529   9.987 -0.1451 -0.6906 -1.0842
    9CHL1    C2  639   2.897   1.623  10.134 -0.4117  0.9624 -0.7222
    9CHL1   H2A  640   2.806   1.648  10.192 -1.0528 -1.7627 -0.5231
    9CHL1   H2B  641   2.974   1.701  10.152  1.5996 -0.9602 -0.8427
    9CHL1   C20  642   2.847   1.568   9.189  0.4950 -0.2004 -0.6282
    9CHL1   H20  643   2.950   1.602   9.165  1.6524 -1.7747  1.9378
    9CHL1   C21  644   2.750   1.689   9.209  0.3839 -0.1040 -0.3129
    9CHL1  H21A  645   2.653   1.658   9.253  1.7801 -0.7783  2.4212
    9CHL1  H21B  646   2.731   1.738   9.112  0.5992 -0.8661 -0.7457
    9CHL1  H21C  647   2.793   1.765   9.277 -0.4919 -1.2449  1.5788
    9CHL1   C22  648   2.799   1.478   9.072  0.0000  0.5941  0.3072
    9CHL1  H22A  649   2.855   1.384   9.055  1.3394  1.2080  1.2386
    9CHL1  H22B  650   2.696   1.438   9.084  0.1504 -0.0968 -0.6679
    9CHL1   C23  651   2.807   1.557   8.935  0.0471 -0.1854  0.5304
    9CHL1  H23A  652   2.810   1.483   8.852  0.6233  1.1358 -0.6513
    9CHL1  H23B  653   2.715   1.619   8.926  0.8189  1.2399  2.2804
    9CHL1   C24  654   2.930   1.647   8.907  0.4805 -0.2334  0.4230
    9CHL1  H24A  655   2.944   1.721   8.989 -0.0431 -0.2656  0.5415
    9CHL1  H24B  656   3.018   1.579   8.898  0.2794 -0.4141 -0.1650
    9CHL1   C25  657   2.914   1.714   8.765  0.1838  0.3405 -0.2279
    9CHL1   H25  658   2.873   1.644   8.689 -2.3966  2.2980 -0.7020
    9CHL1   C26  659   2.836   1.848   8.769  0.0238  0.2033  0.8090
    9CHL1  H26A  660   2.839   1.882   8.663  0.3961  1.0455  1.0866
    9CHL1  H26B  661   2.731   1.833   8.800 -0.2675 -0.1815 -0.3448
    9CHL1  H26C  662   2.887   1.935   8.816 -0.8781  1.6890 -0.9114
    9CHL1   C27  663   3.059   1.759   8.721 -0.3176  0.1101 -0.0783
    9CHL1  H27A  664   3.127   1.673   8.741 -0.7936  0.0603  1.4372
    9CHL1  H27B  665   3.062   1.792   8.615  0.0993 -0.7359 -0.3364
    9CHL1  H27C  666   3.095   1.837   8.791  0.9123  1.1266 -1.8131
   10CHL1    C3  667   2.318   5.775   9.924  0.1057 -0.8705 -0.4592
   10CHL1    H3  668   2.220   5.725   9.932 -1.4012  1.9979 -0.2338
   10CHL1    O3  669   2.365   5.791  10.057 -0.2123 -0.1048  0.3554
   10CHL1   H3'  670   2.411   5.875  10.064 -0.9552  0.3803 -0.5909
   10CHL1    C4  671   2.421   5.699   9.838 -0.0723 -0.4217  0.8600
   10CHL1   H4A  672   2.525   5.738   9.846  1.0971 -2.9858 -0.9636
   10CHL1   H4B  673   2.431   5.594   9.873 -0.1151 -0.1863  1.5841
   10CHL1    C5  674   2.398   5.698   9.684 -0.3155 -0.0676 -0.8195
   10CHL1    C6  675   2.400   5.585   9.613 -0.6240 -0.1264  0.6100
   10CHL1    H6  676   2.433   5.489   9.656 -3.4364 -1.3623  0.1321
   10CHL1    C7  677   2.402   5.584   9.462 -0.0822 -0.3069  0.6765
   10CHL1   H7A  678   2.492   5.527   9.427 -1.8506 -1.6376 -1.8955
   10CHL1   H7B  679   2.315   5.527   9.422  0.7671 -1.0268 -0.1894
   10CHL1    C8  680   2.394   5.721   9.396 -0.1489  0.5244  0.7584
   10CHL1    H8  681   2.499   5.755   9.388 -1.2173  3.9886  0.8590
   10CHL1   C14  682   2.333   5.712   9.256  0.5247  0.4896  0.0499
   10CHL1   H14  683   2.225   5.689   9.271  1.1407 -0.0465  4.0742
   10CHL1   C15  684   2.394   5.605   9.167  0.0013 -0.3841  0.7587
   10CHL1  H15A  685   2.501   5.632   9.176  0.2202 -0.3372 -1.8029
   10CHL1  H15B  686   2.380   5.503   9.208  4.2332 -0.4655  2.1729
   10CHL1   C16  687   2.317   5.627   9.043  0.4311  0.2870 -0.2941
   10CHL1  H16A  688   2.375   5.612   8.950  0.1195 -0.8425 -0.3132
   10CHL1  H16B  689   2.223   5.567   9.043  1.7640 -1.8417  2.2992
   10CHL1   C17  690   2.261   5.782   9.040  0.3522 -0.3756 -0.7346
   10CHL1   H17  691   2.154   5.763   9.062  0.0989  1.7288 -0.0108
   10CHL1   C13  692   2.323   5.840   9.170  0.2437 -0.1038  0.1882
   10CHL1   C18  693   2.461   5.905   9.164  0.0067  0.4530 -0.1535
   10CHL1  H18A  694   2.496   5.926   9.267  0.6334 -1.5580  0.0563
   10CHL1  H18B  695   2.535   5.840   9.113  0.8446  0.9119  0.4698
   10CHL1  H18C  696   2.463   5.992   9.095  1.0674  0.3563 -0.2522
   10CHL1   C12  697   2.228   5.925   9.244 -0.0363  0.1984 -0.5751
   10CHL1  H12A  698   2.213   6.024   9.195  0.6431 -0.0028 -1.2075
   10CHL1  H12B  699   2.129   5.879   9.262  0.2507  0.6794  2.3878
   10CHL1   C11  700   2.274   5.951   9.390  0.3053 -0.2394  1.0005
   10CHL1  H11A  701   2.365   6.013   9.401 -0.2665  0.4610  1.8584
   10CHL1  H11B  702   2.199   6.015   9.441 -0.3921 -0.8418  0.7443
   10CHL1    C9  703   2.310   5.819   9.473  0.2349 -0.3001 -0.3992
   10CHL1    H9  704   2.210   5.772   9.486 -0.0414  0.3429 -0.1856
   10CHL1   C10  705   2.361   5.836   9.619  0.3356  0.5393  0.4860
   10CHL1   C19  706   2.488   5.921   9.614  0.3143 -0.6088  0.3478
   10CHL1  H19A  707   2.552   5.895   9.527 -2.0987 -1.8618 -1.0906
   10CHL1  H19B  708   2.462   6.027   9.593  0.1437 -0.7133  0.0340
   10CHL1  H19C  709   2.548   5.937   9.707  0.9112  1.6882 -0.3864
   10CHL1    C1  710   2.251   5.901   9.708 -0.1788 -0.3457  0.0955
   10CHL1   H1A  711   2.214   5.997   9.668  0.6896 -0.3353 -0.6846
   10CHL1   H1B  712   2.161   5.836   9.703  0.3581 -1.1090  0.3037
   10CHL1    C2  713   2.291   5.909   9.854  0.2239 -0.7583  0.0451
   10CHL1   H2A  714   2.212   5.958   9.915 -0.5584  1.4831 -2.6781
   10CHL1   H2B  715   2.380   5.975   9.868 -0.8717  0.4912  1.3343
   10CHL1   C20  716   2.259   5.860   8.909  0.1926  0.1310 -0.7768
   10CHL1   H20  717   2.224   5.963   8.934  0.0148  0.3480 -1.9247
   10CHL1   C21  718   2.156   5.787   8.808  0.2616  0.9385 -0.1018
   10CHL1  H21A  719   2.195   5.687   8.781 -0.8654  0.8061 -1.3187
   10CHL1  H21B  720   2.154   5.847   8.714 -0.4884  1.1937  0.0738
   10CHL1  H21C  721   2.055   5.788   8.854 -0.8270 -2.6451 -2.2725
   10CHL1   C22  722   2.397   5.865   8.832  0.8134  0.1261 -0.3602
   10CHL1  H22A  723   2.485   5.885   8.898  1.2992  0.6633 -1.1643
   10CHL1  H22B  724   2.419   5.774   8.773 -0.0383 -0.4769  0.2413
   10CHL1   C23  725   2.400   5.985   8.728 -0.7447  0.6688  0.2106
   10CHL1  H23A  726   2.492   5.968   8.668  0.8530 -0.2779  2.8477
   10CHL1  H23B  727   2.314   5.974   8.658 -1.3395  0.0987  1.0264
   10CHL1   C24  728   2.373   6.126   8.791 -0.2455  0.2220 -0.0928
   10CHL1  H24A  729   2.278   6.129   8.849  0.4084 -0.6813  1.0535
   10CHL1  H24B  730   2.457   6.145   8.862  1.4259 -0.0947 -1.9442
   10CHL1   C25  731   2.367   6.235   8.685 -0.2997  0.3740  0.5961
   10CHL1   H25  732   2.275   6.214   8.627 -1.4525 -0.5842  2.7007
   10CHL1   C26  733   2.357   6.377   8.740 -0.2897  0.9594  0.2343
   10CHL1  H26A  734   2.440   6.410   8.806  2.7170  1.8485 -3.7943
   10CHL1  H26B  735   2.345   6.447   8.654  2.3128  2.0239  0.6929
   10CHL1  H26C  736   2.260   6.392   8.792  0.5731 -0.6121  2.3505
   10CHL1   C27  737   2.486   6.229   8.587 -0.2988  0.2780 -0.6372
   10CHL1  H27A  738   2.493   6.140   8.521 -0.8108 -0.5026  0.3464
   10CHL1  H27B  739   2.475   6.316   8.518 -1.6639  1.8876  1.5394
   10CHL1  H27C  740   2.583   6.236   8.640 -1.1369  2.7431  0.6447
   11CHL1    C3  741   4.624   1.629  10.160 -0.2585  0.1571  0.4851
   11CHL1    H3  742   4.574   1.537  10.122 -1.1183 -0.1773  2.3862
   11CHL1    O3  743   4.675   1.597  10.291  0.0207  0.0984  0.6386
   11CHL1   H3'  744   4.768   1.620  10.289 -0.5167  2.2543 -1.8103
   11CHL1    C4  745   4.738   1.664  10.059 -0.1993 -0.3369 -0.0716
   11CHL1   H4A  746   4.777   1.755  10.109 -2.2284  0.6483 -0.2399
   11CHL1   H4B  747   4.821   1.590  10.061  0.6016  0.5201 -0.9523
   11CHL1    C5  748   4.680   1.689   9.923  0.0207 -0.6886  0.5336
   11CHL1    C6  749   4.695   1.606   9.819  0.2875  0.6567 -0.3551
   11CHL1    H6  750   4.762   1.522   9.840  1.0843  0.9837 -1.5210
   11CHL1    C7  751   4.632   1.629   9.685  0.1874 -1.2947  0.1591
   11CHL1   H7A  752   4.715   1.622   9.611 -0.9538  0.6180 -1.3224
   11CHL1   H7B  753   4.558   1.549   9.662  1.2660 -2.0605 -0.7890
   11CHL1    C8  754   4.588   1.782   9.668  0.4460 -0.0826 -0.3951
   11CHL1    H8  755   4.685   1.835   9.655  1.7031 -2.3235 -0.4463
   11CHL1   C14  756   4.506   1.805   9.546 -0.7127 -0.5271 -0.4434
   11CHL1   H14  757   4.416   1.744   9.566  0.2983 -1.5070  1.2852
   11CHL1   C15  758   4.562   1.752   9.414 -0.3000 -0.0986 -0.1659
   11CHL1  H15A  759   4.667   1.785   9.396 -1.2042  2.7191 -0.4132
   11CHL1  H15B  760   4.567   1.642   9.401 -0.8585 -0.1734  0.2540
   11CHL1   C16  761   4.476   1.830   9.312  0.0513  0.5333  0.1178
   11CHL1  H16A  762   4.535   1.865   9.225 -0.4644  1.4016  0.1229
   11CHL1  H16B  763   4.407   1.758   9.263 -1.5271  2.0259  0.1385
   11CHL1   C17  764   4.396   1.939   9.383  0.2498  0.2310 -0.0706
   11CHL1   H17  765   4.303   1.885   9.410  0.9996 -1.3092 -0.4936
   11CHL1   C13  766   4.467   1.950   9.519 -0.8951  1.2339  0.1937
   11CHL1   C18  767   4.587   2.048   9.511  0.0255  0.2025  0.2871
   11CHL1  H18A  768   4.647   2.046   9.604 -0.6326  0.7383  0.7256
   11CHL1  H18B  769   4.660   2.015   9.435  1.4539  1.2679  1.1720
   11CHL1  H18C  770   4.538   2.146   9.490 -0.2284  0.0456  0.1478
   11CHL1   C12  771   4.374   1.991   9.644 -0.2140  0.4659  0.1013
   11CHL1  H12A  772   4.334   2.093   9.628 -1.7524  0.1592  1.7451
   11CHL1  H12B  773   4.293   1.914   9.648 -0.6490  0.9909  2.5542
   11CHL1   C11  774   4.449   1.971   9.773 -0.0056  0.5407  0.0088
   11CHL1  H11A  775   4.530   2.048   9.776  0.4192  0.2785 -3.5049
   11CHL1  H11B  776   4.374   1.984   9.854 -2.1617 -0.7044 -1.7430
   11CHL1    C9  777   4.511   1.833   9.795  0.1841 -0.3602 -0.4013
   11CHL1    H9  778   4.421   1.768   9.800  1.1677 -1.7289  0.3401
   11CHL1   C10  779   4.586   1.807   9.926 -0.0569  0.3439 -0.0143
   11CHL1   C19  780   4.685   1.930   9.942  0.4166  0.3666 -0.4840
   11CHL1  H19A  781   4.756   1.932  10.028  0.3564  0.1117 -0.4270
   11CHL1  H19B  782   4.736   1.955   9.847  2.0881 -0.5181  0.1505
   11CHL1  H19C  783   4.627   2.022   9.966  2.2229  1.9349 -2.0302
   11CHL1    C1  784   4.484   1.786  10.041  0.1109 -0.2736  0.0721
   11CHL1   H1A  785   4.427   1.880  10.057 -1.2549 -1.1183  0.2976
   11CHL1   H1B  786   4.419   1.704  10.004  1.5089 -0.3444 -2.3156
   11CHL1    C2  787   4.540   1.749  10.180 -0.5515 -0.2981  0.0123
   11CHL1   H2A  788   4.459   1.729  10.254  0.6293 -0.8176  1.1766
   11CHL1   H2B  789   4.592   1.827  10.239 -2.1604 -0.1952  1.3598
   11CHL1   C20  790   4.365   2.060   9.299 -0.0105 -0.1555 -0.0871
   11CHL1   H20  791   4.460   2.114   9.279  0.4049 -0.7365  0.3168
   11CHL1   C21  792   4.272   2.156   9.371  0.7267 -0.2621 -0.1899
   11CHL1  H21A  793   4.324   2.207   9.456  0.1313 -2.1547  1.3520
   11CHL1  H21B  794   4.182   2.106   9.414  1.5783 -1.3988  0.3007
   11CHL1  H21C  795   4.227   2.236   9.308 -0.0534 -0.0206  0.6558
   11CHL1   C22  796   4.292   2.028   9.170  0.1972  0.0372 -0.3173
   11CHL1  H22A  797   4.335   1.941   9.116 -1.1610 -0.0072 -1.3597
   11CHL1  H22B  798   4.189   2.002   9.204 -0.2389  0.4770 -1.2619
   11CHL1   C23  799   4.284   2.145   9.069  0.3127 -0.4474 -0.8331
   11CHL1  H23A  800   4.224   2.232   9.104  1.6963  0.0381  0.4005
   11CHL1  H23B  801   4.380   2.202   9.068  0.9769 -1.5014  0.5759
   11CHL1   C24  802   4.242   2.092   8.934 -0.7508 -0.3411 -0.1710
   11CHL1  H24A  803   4.319   2.017   8.905 -1.2769 -1.1765  0.5502
   11CHL1  H24B  804   4.142   2.045   8.935 -0.9170 -0.0882 -2.1611
   11CHL1   C25  805   4.246   2.194   8.813 -0.3419  0.6085 -0.4380
   11CHL1   H25  806   4.352   2.222   8.794  0.9974 -0.8113  4.2753
   11CHL1   C26  807   4.191   2.124   8.677 -0.8310  1.1263  0.0787
   11CHL1  H26A  808   4.259   2.036   8.671  0.9875  2.3973  1.4257
   11CHL1  H26B  809   4.083   2.102   8.691 -0.4888 -0.0383  0.9219
   11CHL1  H26C  810   4.200   2.189   8.587 -1.3441  0.4201 -0.4873
   11CHL1   C27  811   4.167   2.324   8.831 -0.1251 -0.2742 -0.1216
   11CHL1  H27A  812   4.058   2.303   8.839 -0.1384  0.1163  0.7465
   11CHL1  H27B  813   4.199   2.375   8.924 -1.0691  1.8854 -0.9419
   11CHL1  H27C  814   4.170   2.391   8.742 -1.4945  1.9370  1.4488
   12CHL1    C3  815   1.091   5.054  10.286 -0.5283  0.0469 -0.5435
   12CHL1    H3  816   1.116   5.161  10.274  1.6212 -0.2863  0.5959
   12CHL1    O3  817   1.116   5.015  10.419  0.5551 -0.2110  0.0033
   12CHL1   H3'  818   1.147   5.100  10.452  2.5668 -1.2151  0.8060
   12CHL1    C4  819   0.948   5.033  10.252 -0.1277 -0.0281  0.2559
   12CHL1   H4A  820   0.914   4.927  10.257 -1.5266  0.3418 -1.1103
   12CHL1   H4B  821   0.873   5.079  10.319 -1.3948 -0.4957 -0.8201
   12CHL1    C5  822   0.916   5.059  10.109  0.2398  0.2634  0.1116
   12CHL1    C6  823   0.817   5.150  10.081 -0.5196  0.1934  0.6460
   12CHL1    H6  824   0.759   5.198  10.161 -1.5696  0.2813 -0.1548
   12CHL1    C7  825   0.776   5.178   9.934 -0.0153  1.1272 -0.5680
   12CHL1   H7A  826   0.665   5.190   9.927 -0.6169 -2.4076  1.6524
   12CHL1   H7B  827   0.821   5.272   9.897 -2.5854  2.2190 -1.0113
   12CHL1    C8  828   0.818   5.056   9.845  0.3636 -0.1785  0.2864
   12CHL1    H8  829   0.752   4.972   9.877 -2.5470  2.3215  1.1102
   12CHL1   C14  830   0.793   5.088   9.697  0.5008  0.0839 -0.5610
   12CHL1   H14  831   0.860   5.176   9.682 -1.4493  2.0845  1.9398
   12CHL1   C15  832   0.656   5.129   9.653 -0.1987  0.7741 -0.7406
   12CHL1  H15A  833   0.594   5.060   9.715  0.2386  2.0268  1.1009
   12CHL1  H15B  834   0.641   5.235   9.679  0.8199  1.2026 -1.8438
   12CHL1   C16  835   0.643   5.092   9.505 -0.4052 -0.4578  0.0626
   12CHL1  H16A  836   0.562   5.016   9.503 -0.1864 -0.7152  0.8721
   12CHL1  H16B  837   0.614   5.177   9.440 -0.5340  0.4750  1.3350
   12CHL1   C17  838   0.786   5.044   9.476  0.7055 -0.0085 -0.2826
   12CHL1   H17  839   0.836   5.140   9.452 -0.4161  0.2919 -1.4646
   12CHL1   C13  840   0.843   4.986   9.598 -0.1110 -0.1537 -0.1236
   12CHL1   C18  841   0.771   4.855   9.623 -0.0264 -0.0699  1.3552
   12CHL1  H18A  842   0.661   4.870   9.627 -0.0745 -0.3188  0.9943
   12CHL1  H18B  843   0.790   4.778   9.544  0.2792  1.2773  0.1000
   12CHL1  H18C  844   0.803   4.807   9.718  0.3096 -1.1688  0.7042
   12CHL1   C12  845   0.994   4.976   9.613  0.5245 -0.1561  0.2346
   12CHL1  H12A  846   1.027   4.898   9.541 -0.1577  0.5125 -0.8258
   12CHL1  H12B  847   1.032   5.080   9.600 -0.8773  0.4304  0.6991
   12CHL1   C11  848   1.038   4.936   9.757  0.6515 -0.1048  0.1394
   12CHL1  H11A  849   1.005   4.832   9.777 -3.0152  0.5940 -1.7227
   12CHL1  H11B  850   1.148   4.932   9.773  0.3244 -2.5124  2.1098
   12CHL1    C9  851   0.974   5.027   9.863  0.3264 -0.1516  0.5356
   12CHL1    H9  852   1.029   5.122   9.852  2.5360 -1.4302  0.1927
   12CHL1   C10  853   1.006   4.983  10.008  0.5555  0.4739 -0.0260
   12CHL1   C19  854   0.972   4.832  10.020  0.2168 -0.2505  0.6260
   12CHL1  H19A  855   0.870   4.821   9.978  1.5813 -2.5308 -2.2271
   12CHL1  H19B  856   1.045   4.773   9.961 -0.2282 -1.0866  0.9082
   12CHL1  H19C  857   0.994   4.797  10.124  0.4115 -1.1635  0.2774
   12CHL1    C1  858   1.153   5.000  10.048 -0.3382  0.0075  0.1035
   12CHL1   H1A  859   1.215   4.931   9.987 -0.7463 -1.3177  1.1615
   12CHL1   H1B  860   1.182   5.104  10.021 -0.1016 -0.4338 -1.4081
   12CHL1    C2  861   1.181   4.982  10.190 -0.2381  0.1921 -0.2785
   12CHL1   H2A  862   1.285   5.015  10.211 -0.5021  1.4024 -0.8422
   12CHL1   H2B  863   1.174   4.875  10.220  1.3849  0.3285  0.6257
   12CHL1   C20  864   0.811   4.971   9.348 -0.2344 -0.1729 -0.7125
   12CHL1   H20  865   0.829   4.864   9.374 -3.3430 -0.0631  2.3324
   12CHL1   C21  866   0.945   5.016   9.285  0.4496  0.7276 -0.4645
   12CHL1  H21A  867   0.927   5.108   9.225  1.5996  1.2297 -0.0625
   12CHL1  H21B  868   0.966   4.936   9.211  2.1389  2.6758 -2.1750
   12CHL1  H21C  869   1.029   5.039   9.355  0.3668  0.3900 -0.2564
   12CHL1   C22  870   0.699   4.979   9.248 -0.2498 -0.5450  0.6784
   12CHL1  H22A  871   0.613   4.933   9.301 -0.7583 -0.9319 -0.4608
   12CHL1  H22B  872   0.664   5.081   9.220  1.0540 -0.0196  0.9243
   12CHL1   C23  873   0.718   4.908   9.116 -0.0293 -0.4339  0.6499
   12CHL1  H23A  874   0.810   4.933   9.059 -0.4197 -3.6311 -1.5002
   12CHL1  H23B  875   0.739   4.802   9.140 -1.0196 -0.6671  0.5217
   12CHL1   C24  876   0.591   4.929   9.025 -0.1509 -0.3348  0.2771
   12CHL1  H24A  877   0.501   4.884   9.070 -1.3830  1.7013 -0.0754
   12CHL1  H24B  878   0.585   5.038   9.005  1.3182 -0.1536  0.7354
   12CHL1   C25  879   0.604   4.847   8.893 -0.0347 -0.1155 -0.2417
   12CHL1   H25  880   0.645   4.746   8.916 -0.4911 -0.4010 -0.6535
   12CHL1   C26  881   0.463   4.838   8.829 -0.0653  0.4560  0.5714
   12CHL1  H26A  882   0.387   4.804   8.902  0.5300 -1.7053  0.2450
   12CHL1  H26B  883   0.451   4.946   8.805  3.0196  0.7586  0.1758
   12CHL1  H26C  884   0.459   4.778   8.735  0.0621  2.0006 -0.4402
   12CHL1   C27  885   0.702   4.914   8.794 -0.6258 -0.1464  0.2914
   12CHL1  H27A  886   0.679   4.891   8.688 -0.3678  2.8761 -0.4578
   12CHL1  H27B  887   0.714   5.022   8.814  0.1400  0.2663 -2.2465
   12CHL1  H27C  888   0.803   4.873   8.813 -0.5573 -1.5311 -2.8036
   13CHL1    C3  889   6.302   6.740   9.914 -0.5159  0.2082 -0.3489
   13CHL1    H3  890   6.296   6.636   9.877  1.5566  0.0803 -0.3482
   13CHL1    O3  891   6.273   6.746  10.051  0.1848  0.9296 -0.0908
   13CHL1   H3'  892   6.222   6.825  10.069 -0.7102  0.0871  1.1205
   13CHL1    C4  893   6.447   6.784   9.890  0.1539 -0.6514 -0.4690
   13CHL1   H4A  894   6.456   6.890   9.924 -2.1808 -0.2440 -1.0243
   13CHL1   H4B  895   6.508   6.706   9.940  0.1696 -0.7720 -0.6789
   13CHL1    C5  896   6.471   6.796   9.742 -0.3328 -0.5226  0.1723
   13CHL1    C6  897   6.575   6.718   9.688  0.3535 -0.6047 -0.0857
   13CHL1    H6  898   6.637   6.655   9.753 -0.8591  0.7706  2.4463
   13CHL1    C7  899   6.620   6.739   9.550  0.0424 -0.1424  0.3895
   13CHL1   H7A  900   6.729   6.755   9.540 -0.1459  0.4947 -0.7412
   13CHL1   H7B  901   6.600   6.649   9.487 -0.8822  0.5114 -0.2769
   13CHL1    C8  902   6.562   6.868   9.480  0.5280  0.5971  0.3385
   13CHL1    H8  903   6.613   6.961   9.513 -0.3709  0.4852  2.0586
   13CHL1   C14  904   6.582   6.849   9.333 -0.4401  0.0419 -0.1907
   13CHL1   H14  905   6.534   6.754   9.301 -0.3232  0.2642 -1.0472
   13CHL1   C15  906   6.724   6.844   9.284 -0.3951 -0.2075  0.1902
   13CHL1  H15A  907   6.778   6.926   9.336  1.6758 -1.7395  0.4742
   13CHL1  H15B  908   6.762   6.747   9.321  2.3400  1.3988  1.7371
   13CHL1   C16  909   6.708   6.865   9.139 -0.2117 -0.0441  0.9985
   13CHL1  H16A  910   6.788   6.934   9.105 -0.5765 -0.2069 -0.2153
   13CHL1  H16B  911   6.724   6.772   9.080 -1.6029  0.3942 -0.0792
   13CHL1   C17  912   6.566   6.906   9.102  0.5192 -0.7487  0.6828
   13CHL1   H17  913   6.505   6.816   9.077  2.9410 -1.5758 -2.4771
   13CHL1   C13  914   6.513   6.955   9.244 -0.1904 -0.9080  0.2548
   13CHL1   C18  915   6.573   7.106   9.264  0.5490  0.3361 -0.3713
   13CHL1  H18A  916   6.676   7.115   9.223  0.3866 -1.5064 -1.2466
   13CHL1  H18B  917   6.510   7.175   9.204 -1.1983 -1.0244 -0.1488
   13CHL1  H18C  918   6.570   7.130   9.372 -1.2199  1.4175 -0.6440
   13CHL1   C12  919   6.364   6.948   9.266  0.5753 -0.1040 -0.1409
   13CHL1  H12A  920   6.311   7.026   9.206  0.4006 -1.1988 -1.4486
   13CHL1  H12B  921   6.335   6.846   9.231  2.7659 -1.6360  2.3402
   13CHL1   C11  922   6.329   6.964   9.412 -0.1593 -0.3221 -0.3882
   13CHL1  H11A  923   6.341   7.072   9.434 -1.3775 -0.0728 -0.9452
   13CHL1  H11B  924   6.221   6.940   9.423  0.4493 -2.4567  1.4142
   13CHL1    C9  925   6.412   6.867   9.507 -0.2988  0.2864 -0.0149
   13CHL1    H9  926   6.390   6.762   9.479  1.5113 -0.1092 -0.0124
   13CHL1   C10  927   6.382   6.886   9.658 -1.0848 -0.6497 -0.2419
   13CHL1   C19  928   6.398   7.033   9.689  0.3022  0.0267  0.2031
   13CHL1  H19A  929   6.323   7.101   9.643  0.6243  0.0113 -0.3548
   13CHL1  H19B  930   6.389   7.042   9.799  1.9314  2.1625  0.1989
   13CHL1  H19C  931   6.500   7.069   9.665 -0.3888  0.5430 -2.1676
   13CHL1    C1  932   6.236   6.840   9.689 -0.4647 -0.4949 -0.8074
   13CHL1   H1A  933   6.163   6.906   9.636  0.5567  1.3854  0.0812
   13CHL1   H1B  934   6.227   6.740   9.643 -1.3253 -0.2516 -1.1945
   13CHL1    C2  935   6.199   6.832   9.837 -0.8776  0.1170 -0.2387
   13CHL1   H2A  936   6.098   6.790   9.854 -0.5860 -0.6006 -0.2327
   13CHL1   H2B  937   6.199   6.937   9.873  0.5851  0.6605 -1.7175
   13CHL1   C20  938   6.554   7.001   8.983 -0.4463 -0.0757 -0.1503
   13CHL1   H20  939   6.607   7.096   9.008 -1.4970  0.1962  1.0646
   13CHL1   C21  940   6.410   7.026   8.949  0.2332  0.3600  0.5810
   13CHL1  H21A  941   6.405   7.075   8.850  2.0020  1.3979  0.9848
   13CHL1  H21B  942   6.361   7.096   9.020 -1.2806  1.2087 -1.2525
   13CHL1  H21C  943   6.346   6.935   8.958  1.7684 -0.8919 -0.9981
   13CHL1   C22  944   6.622   6.952   8.857 -0.8867  0.1078  0.1760
   13CHL1  H22A  945   6.614   7.037   8.786  3.3370  1.6347  1.3698
   13CHL1  H22B  946   6.732   6.941   8.871 -0.5993  0.3508 -1.7716
   13CHL1   C23  947   6.578   6.812   8.810  0.3508  0.5432  1.2125
   13CHL1  H23A  948   6.620   6.742   8.885  0.2769 -1.6113 -0.6848
   13CHL1  H23B  949   6.467   6.802   8.818  0.2619  0.7748  0.3565
   13CHL1   C24  950   6.620   6.790   8.665  0.2591  0.0172 -0.2070
   13CHL1  H24A  951   6.541   6.834   8.600  0.1484  1.0755  0.6347
   13CHL1  H24B  952   6.710   6.853   8.646 -0.9791  1.2363 -2.2835
   13CHL1   C25  953   6.640   6.649   8.616  0.3555 -0.5283  0.1098
   13CHL1   H25  954   6.658   6.651   8.506 -2.6462  1.3116 -0.4110
   13CHL1   C26  955   6.757   6.586   8.698  0.2689  0.1813  0.2422
   13CHL1  H26A  956   6.852   6.643   8.697  0.1817  0.4726  2.9792
   13CHL1  H26B  957   6.723   6.582   8.804 -0.0096  0.6115  0.1703
   13CHL1  H26C  958   6.789   6.487   8.660  0.4909  0.2679  0.2080
   13CHL1   C27  959   6.508   6.567   8.631  0.0429  0.7348 -0.2436
   13CHL1  H27A  960   6.428   6.637   8.599 -1.6492 -0.7416  0.6874
   13CHL1  H27B  961   6.514   6.465   8.588  0.6607  0.7160 -0.1169
   13CHL1  H27C  962   6.498   6.546   8.740 -1.2610  1.2197 -0.2647
   14CHL1    C3  963   6.709   3.436  10.264  0.3233  0.5598 -0.0226
   14CHL1    H3  964   6.812   3.464  10.233  1.0651 -1.7814  0.2767
   14CHL1    O3  965   6.714   3.440  10.407  0.0033 -0.5798  0.5925
   14CHL1   H3'  966   6.642   3.382  10.433 -1.5255 -0.2508 -2.5951
   14CHL1    C4  967   6.615   3.539  10.206 -0.2586 -0.1826 -0.2548
   14CHL1   H4A  968   6.515   3.518  10.251  0.6896  1.3399  2.6899
   14CHL1   H4B  969   6.639   3.643  10.239 -3.2595  0.9983 -1.5507
   14CHL1    C5  970   6.601   3.525  10.058  0.0668 -0.1289  0.4346
   14CHL1    C6  971   6.625   3.636   9.983 -0.2665  0.0288  0.1515
   14CHL1    H6  972   6.660   3.730  10.027  0.7399 -0.8093  1.1700
   14CHL1    C7  973   6.600   3.639   9.834 -0.2561  0.2171 -1.2405
   14CHL1   H7A  974   6.548   3.735   9.816  0.0629  0.7409  0.4806
   14CHL1   H7B  975   6.698   3.646   9.783 -0.5237 -2.8724 -2.2872
   14CHL1    C8  976   6.523   3.518   9.787  0.1605 -0.0693 -0.1844
   14CHL1    H8  977   6.414   3.526   9.811  0.8587 -2.4794  4.2952
   14CHL1   C14  978   6.527   3.502   9.635 -0.3325 -0.2659  0.3389
   14CHL1   H14  979   6.628   3.463   9.611 -0.8288 -1.5215  0.2694
   14CHL1   C15  980   6.508   3.629   9.546 -0.7047 -0.9725 -0.0668
   14CHL1  H15A  981   6.416   3.680   9.582 -0.9312 -2.5759  1.7538
   14CHL1  H15B  982   6.602   3.686   9.547 -0.5156 -1.2769 -0.4086
   14CHL1   C16  983   6.492   3.574   9.405  0.6794 -0.0496  0.0737
   14CHL1  H16A  984   6.400   3.615   9.358 -0.2005 -1.0667  0.8897
   14CHL1  H16B  985   6.570   3.607   9.333 -1.7420  0.3866 -2.4118
   14CHL1   C17  986   6.496   3.419   9.419  0.0065  0.4644  0.2778
   14CHL1   H17  987   6.602   3.389   9.405 -0.4828 -1.6995  0.9376
   14CHL1   C13  988   6.448   3.387   9.564 -0.0235  0.1618 -0.1112
   14CHL1   C18  989   6.290   3.403   9.568 -0.5803  0.0980 -0.3837
   14CHL1  H18A  990   6.273   3.509   9.537 -2.0031 -0.3993 -1.3421
   14CHL1  H18B  991   6.232   3.337   9.500 -1.2467  1.7935 -1.5017
   14CHL1  H18C  992   6.247   3.388   9.669 -1.8930  1.7564 -0.6508
   14CHL1   C12  993   6.505   3.260   9.626 -0.0226 -0.6624 -0.3277
   14CHL1  H12A  994   6.446   3.172   9.592  0.4535 -0.4587 -1.7411
   14CHL1  H12B  995   6.611   3.244   9.596  0.3892  2.4500 -0.6992
   14CHL1   C11  996   6.495   3.262   9.780  0.0036  0.2535 -0.1737
   14CHL1  H11A  997   6.388   3.280   9.799 -0.0080  1.4489 -1.3409
   14CHL1  H11B  998   6.547   3.173   9.823  0.4572 -0.1509 -1.5338
   14CHL1    C9  999   6.565   3.384   9.845 -0.0684  0.3762 -0.6145
   14CHL1    H9 1000   6.671   3.375   9.816 -0.2613  3.0340 -2.2581
   14CHL1   C10 1001   6.563   3.385   9.998 -0.4978  0.1977 -0.2165
   14CHL1   C19 1002   6.416   3.366  10.042  0.0717 -1.0974  0.0764
   14CHL1  H19A 1003   6.393   3.382  10.149 -0.8137 -1.2023 -0.0915
   14CHL1  H19B 1004   6.354   3.435   9.979  1.0590  0.9553  1.3054
   14CHL1  H19C 1005   6.384   3.261  10.024 -1.3375 -0.9063  1.3419
   14CHL1    C1 1006   6.672   3.282  10.055 -0.9498 -0.7432  0.3531
   14CHL1   H1A 1007   6.645   3.176  10.038 -0.7533 -0.7344 -0.0404
   14CHL1   H1B 1008   6.770   3.285  10.003 -0.7925 -2.5287  0.5117
   14CHL1    C2 1009   6.680   3.293  10.210 -0.5114 -0.1597 -0.1572
   14CHL1   H2A 1010   6.762   3.229  10.250  1.6515  1.1556 -2.3383
   14CHL1   H2B 1011   6.592   3.235  10.245 -1.1541 -0.1455 -1.7354
   14CHL1   C20 1012   6.421   3.357   9.296  0.1112  0.1963 -0.5189
   14CHL1   H20 1013   6.321   3.403   9.281  0.8665  2.1744  0.3676
   14CHL1   C21 1014   6.407   3.201   9.306  0.0708  0.1900  0.1942
   14CHL1  H21A 1015   6.340   3.163   9.226  1.9005  0.2820 -1.3844
   14CHL1  H21B 1016   6.355   3.171   9.400  2.3344 -2.5746  0.6071
   14CHL1  H21C 1017   6.507   3.154   9.304 -0.6612 -1.3865 -0.1900
   14CHL1   C22 1018   6.487   3.407   9.161 -0.2761  0.5492  0.3803
   14CHL1  H22A 1019   6.464   3.516   9.157 -0.2147  0.5040 -1.6379
   14CHL1  H22B 1020   6.596   3.388   9.153  0.1576  1.9550  2.4586
   14CHL1   C23 1021   6.433   3.352   9.021  0.1653  0.8068  0.3010
   14CHL1  H23A 1022   6.458   3.244   9.024  0.5485  0.9209  1.3313
   14CHL1  H23B 1023   6.324   3.372   9.018 -0.0114  0.2210  2.3734
   14CHL1   C24 1024   6.501   3.429   8.909 -0.2426 -0.1369  0.7036
   14CHL1  H24A 1025   6.478   3.538   8.909  0.5878  0.0472 -0.4485
   14CHL1  H24B 1026   6.610   3.431   8.925 -0.4812  2.1087  2.2168
   14CHL1   C25 1027   6.475   3.384   8.760  0.6005  0.0623 -0.1238
   14CHL1   H25 1028   6.365   3.394   8.748  0.9009  1.7393 -1.6510
   14CHL1   C26 1029   6.537   3.486   8.659  0.1023  0.6403 -0.3648
   14CHL1  H26A 1030   6.506   3.456   8.557 -1.9326  0.5484  0.2706
   14CHL1  H26B 1031   6.499   3.589   8.676  0.2984  0.5939  0.3453
   14CHL1  H26C 1032   6.648   3.489   8.669 -0.0300 -2.3447  2.9781
   14CHL1   C27 1033   6.524   3.240   8.747  0.4435  0.5424 -0.7007
   14CHL1  H27A 1034   6.510   3.208   8.641  0.9198 -1.5718 -0.1491
   14CHL1  H27B 1035   6.633   3.237   8.767  0.0963  0.3806  1.2551
   14CHL1  H27C 1036   6.468   3.173   8.816  0.7948  0.3474 -0.6026
   15CHL1    C3 1037   6.635   2.301  10.026 -0.3866  0.3027 -0.6822
   15CHL1    H3 1038   6.613   2.193  10.007  0.0564  0.2178 -0.7127
   15CHL1    O3 1039   6.650   2.325  10.161  0.8176  0.2230 -0.1112
   15CHL1   H3' 1040   6.667   2.420  10.159 -1.2462  0.6065 -0.9600
   15CHL1    C4 1041   6.762   2.344   9.959 -0.2511 -0.2522 -0.0492
   15CHL1   H4A 1042   6.781   2.452   9.969 -2.6485  0.6743 -4.2297
   15CHL1   H4B 1043   6.840   2.286  10.012  0.5863  1.6616  0.8333
   15CHL1    C5 1044   6.750   2.321   9.812  0.0779 -0.0214  0.0736
   15CHL1    C6 1045   6.833   2.229   9.758  0.3697 -0.3562 -0.8135
   15CHL1    H6 1046   6.897   2.165   9.820  0.1183  0.2772  0.1320
   15CHL1    C7 1047   6.825   2.192   9.610  0.3859  0.5566 -0.3731
   15CHL1   H7A 1048   6.928   2.168   9.575  0.2670 -0.6995  0.1271
   15CHL1   H7B 1049   6.756   2.108   9.590 -0.0515  0.1644  2.5615
   15CHL1    C8 1050   6.768   2.312   9.530  0.1152  0.4210  0.0136
   15CHL1    H8 1051   6.838   2.398   9.537 -0.5671  1.3461 -3.6588
   15CHL1   C14 1052   6.756   2.269   9.380 -0.8039 -0.1732 -0.2380
   15CHL1   H14 1053   6.694   2.178   9.386 -0.1423 -0.8924 -3.4692
   15CHL1   C15 1054   6.880   2.230   9.310 -0.0356  0.0924 -0.5629
   15CHL1  H15A 1055   6.970   2.294   9.317  0.9067 -1.3806  1.3845
   15CHL1  H15B 1056   6.901   2.126   9.345  2.9096  1.1210  0.8563
   15CHL1   C16 1057   6.844   2.224   9.162 -0.3846 -0.1882  0.2197
   15CHL1  H16A 1058   6.926   2.279   9.113  0.1361 -0.2431  1.0106
   15CHL1  H16B 1059   6.824   2.121   9.125 -1.1798  0.3639 -0.8973
   15CHL1   C17 1060   6.708   2.309   9.148 -0.0542 -0.3613 -0.6208
   15CHL1   H17 1061   6.633   2.230   9.125 -2.0212  0.7240  1.7722
   15CHL1   C13 1062   6.676   2.368   9.288 -0.0547  0.2797  0.4163
   15CHL1   C18 1063   6.747   2.504   9.295 -0.3837 -0.2112  0.0974
   15CHL1  H18A 1064   6.765   2.559   9.390  6.0320 -0.3377 -0.7778
   15CHL1  H18B 1065   6.846   2.494   9.245 -0.7241  0.6318 -0.7477
   15CHL1  H18C 1066   6.684   2.576   9.239  0.2954 -0.9970 -1.7031
   15CHL1   C12 1067   6.535   2.374   9.352  0.2555  0.3328  0.4359
   15CHL1  H12A 1068   6.465   2.435   9.290  2.0819  2.9630  0.9105
   15CHL1  H12B 1069   6.490   2.272   9.353  1.6721 -0.3051 -0.6410
   15CHL1   C11 1070   6.535   2.428   9.494  0.0316 -0.5527  0.8555
   15CHL1  H11A 1071   6.558   2.537   9.486 -1.3219 -0.3036  0.2241
   15CHL1  H11B 1072   6.432   2.425   9.537  0.0405  0.1497  0.9314
   15CHL1    C9 1073   6.629   2.346   9.587  0.8939 -0.6158  0.0522
   15CHL1    H9 1074   6.577   2.247   9.594 -0.7431  0.2620  0.6169
   15CHL1   C10 1075   6.637   2.393   9.734 -0.3304  0.6664  1.5383
   15CHL1   C19 1076   6.673   2.541   9.733 -0.1707  0.8697  0.3446
   15CHL1  H19A 1077   6.774   2.562   9.692 -0.2739 -0.8172 -0.8106
   15CHL1  H19B 1078   6.589   2.591   9.680  0.9470  2.8623  0.3682
   15CHL1  H19C 1079   6.677   2.580   9.838  2.1013 -0.3518  0.7440
   15CHL1    C1 1080   6.501   2.367   9.815 -0.2676  0.3914  0.1152
   15CHL1   H1A 1081   6.421   2.432   9.772  0.6025  0.8378 -0.8468
   15CHL1   H1B 1082   6.463   2.268   9.783 -0.1869  1.0875 -2.2604
   15CHL1    C2 1083   6.518   2.383   9.962  0.1132 -0.1367 -0.1167
   15CHL1   H2A 1084   6.422   2.367  10.016 -1.1056  0.3899 -2.0624
   15CHL1   H2B 1085   6.540   2.491   9.975 -1.0352  0.1423 -0.4022
   15CHL1   C20 1086   6.690   2.393   9.024  0.3970  0.0128  0.2774
   15CHL1   H20 1087   6.750   2.485   9.040 -0.0249  0.4997 -0.8929
   15CHL1   C21 1088   6.542   2.434   9.022 -0.0878 -0.6185 -0.7500
   15CHL1  H21A 1089   6.472   2.351   9.044  1.0078 -1.0942  1.0741
   15CHL1  H21B 1090   6.525   2.491   8.928 -2.9912  2.5043  1.5464
   15CHL1  H21C 1091   6.525   2.519   9.091  1.5170 -1.1538  0.3343
   15CHL1   C22 1092   6.738   2.320   8.897 -1.1202  0.1956  0.4862
   15CHL1  H22A 1093   6.847   2.306   8.908 -0.7965 -0.4492 -2.8519
   15CHL1  H22B 1094   6.690   2.220   8.899 -1.1754  0.2143  0.0947
   15CHL1   C23 1095   6.712   2.390   8.764 -0.3028  0.1403  0.1096
   15CHL1  H23A 1096   6.603   2.395   8.745 -0.2835 -1.4604 -0.4896
   15CHL1  H23B 1097   6.741   2.497   8.776 -0.0944  0.0916  0.0330
   15CHL1   C24 1098   6.781   2.325   8.644 -0.3314  0.5270  0.1106
   15CHL1  H24A 1099   6.892   2.327   8.640 -0.3458 -1.3612 -2.5123
   15CHL1  H24B 1100   6.756   2.217   8.644 -2.7699  1.0491  0.8172
   15CHL1   C25 1101   6.734   2.398   8.515 -0.6403 -0.3074 -0.7162
   15CHL1   H25 1102   6.624   2.401   8.527 -0.4675  2.1624  0.5589
   15CHL1   C26 1103   6.788   2.545   8.501 -0.2433  0.0955 -0.4095
   15CHL1  H26A 1104   6.769   2.610   8.589  5.5276  1.5759 -0.0826
   15CHL1  H26B 1105   6.894   2.542   8.470  0.5958 -2.3114  2.4743
   15CHL1  H26C 1106   6.729   2.596   8.422 -1.5028 -0.1982  0.3098
   15CHL1   C27 1107   6.770   2.323   8.391 -0.0223 -0.0868  0.3078
   15CHL1  H27A 1108   6.881   2.319   8.395  0.0982  2.8465  0.9944
   15CHL1  H27B 1109   6.738   2.219   8.414  1.8619 -0.2772  2.3169
   15CHL1  H27C 1110   6.724   2.368   8.301 -1.6366  1.3228  1.8061
   16CHL1    C3 1111   0.756   3.173  10.250  0.1840  0.4175 -0.5152
   16CHL1    H3 1112   0.699   3.265  10.221 -0.7961  0.4098  1.3127
   16CHL1    O3 1113   0.765   3.178  10.392  0.7187  0.1983  0.2506
   16CHL1   H3' 1114   0.773   3.089  10.426  0.3511 -0.5492 -1.5146
   16CHL1    C4 1115   0.667   3.068  10.195  0.4264  0.7504  0.4301
   16CHL1   H4A 1116   0.713   2.970  10.220  2.2099  0.8336 -2.2559
   16CHL1   H4B 1117   0.571   3.065  10.251  1.5004 -0.2061  2.2707
   16CHL1    C5 1118   0.645   3.078  10.046 -0.3789 -0.9414  0.1782
   16CHL1    C6 1119   0.522   3.096   9.991  0.0334  0.0474  0.6479
   16CHL1    H6 1120   0.437   3.100  10.059 -0.4494  0.1249  0.0472
   16CHL1    C7 1121   0.502   3.109   9.845  0.4102 -0.3424  0.2972
   16CHL1   H7A 1122   0.410   3.057   9.809  0.1052  1.0927 -1.0737
   16CHL1   H7B 1123   0.491   3.218   9.827 -4.3608 -1.0060 -1.7592
   16CHL1    C8 1124   0.623   3.057   9.763  0.4384 -0.2409 -0.2667
   16CHL1    H8 1125   0.626   2.948   9.779 -0.3212  0.1345  2.6259
   16CHL1   C14 1126   0.609   3.103   9.618  0.3541  0.7649  0.3566
   16CHL1   H14 1127   0.623   3.213   9.623  0.7417  0.6957  0.9650
   16CHL1   C15 1128   0.473   3.072   9.545 -0.8353 -0.6932  0.8107
   16CHL1  H15A 1129   0.441   2.967   9.565 -0.0570 -0.9583  0.6741
   16CHL1  H15B 1130   0.387   3.138   9.568 -0.8786 -0.2452 -0.6082
   16CHL1   C16 1131   0.506   3.082   9.401 -0.0231 -0.1977  0.1138
   16CHL1  H16A 1132   0.491   2.979   9.363  2.1107 -0.9141  1.1400
   16CHL1  H16B 1133   0.456   3.160   9.341  3.1926  0.2776 -2.0668
   16CHL1   C17 1134   0.659   3.103   9.385  0.2325  0.5527  0.3910
   16CHL1   H17 1135   0.673   3.213   9.395  0.5124  0.5612 -0.0515
   16CHL1   C13 1136   0.712   3.055   9.524 -0.4567 -0.2802 -0.0919
   16CHL1   C18 1137   0.723   2.901   9.528 -0.3694  0.4049 -0.8424
   16CHL1  H18A 1138   0.624   2.856   9.503 -0.7616 -0.3807  1.9689
   16CHL1  H18B 1139   0.803   2.849   9.471 -0.1878 -0.4948  0.2153
   16CHL1  H18C 1140   0.756   2.871   9.630  0.1528  1.7704 -0.6057
   16CHL1   C12 1141   0.843   3.122   9.573 -0.1493  0.4053  0.2763
   16CHL1  H12A 1142   0.921   3.075   9.509  0.0221 -2.0580  2.2593
   16CHL1  H12B 1143   0.838   3.233   9.560  1.0119  0.2236 -2.1151
   16CHL1   C11 1144   0.874   3.091   9.721 -0.1932  0.0177  0.5341
   16CHL1  H11A 1145   0.901   2.984   9.727  2.2716  0.5234 -0.9856
   16CHL1  H11B 1146   0.954   3.154   9.765 -0.8766  1.5371 -0.3658
   16CHL1    C9 1147   0.753   3.113   9.815  0.1991  0.6779 -1.1580
   16CHL1    H9 1148   0.745   3.224   9.812 -0.0525  0.6897 -0.1859
   16CHL1   C10 1149   0.783   3.073   9.964 -0.0374 -1.0287  0.5386
   16CHL1   C19 1150   0.838   2.926   9.975  0.1178 -0.4780  0.0900
   16CHL1  H19A 1151   0.764   2.861   9.924 -0.3302  0.9225 -1.0506
   16CHL1  H19B 1152   0.939   2.909   9.933  0.4838  1.3931  0.1832
   16CHL1  H19C 1153   0.851   2.908  10.084 -2.5459 -0.1634  0.4991
   16CHL1    C1 1154   0.876   3.179  10.030  0.0728  0.1041 -0.1444
   16CHL1   H1A 1155   0.978   3.167   9.986  0.4349  2.2178  0.0780
   16CHL1   H1B 1156   0.835   3.280  10.006  2.3005  0.7740 -1.2881
   16CHL1    C2 1157   0.894   3.179  10.184 -0.3006  0.1849 -0.3653
   16CHL1   H2A 1158   0.948   3.270  10.219  0.7317  0.2319 -2.0289
   16CHL1   H2B 1159   0.950   3.087  10.211  0.3800  0.4540 -0.8491
   16CHL1   C20 1160   0.721   3.054   9.252  0.6354 -0.0696  0.5185
   16CHL1   H20 1161   0.734   2.943   9.253 -2.9854 -0.5344  1.6113
   16CHL1   C21 1162   0.866   3.113   9.229 -0.1364  0.5539  0.7120
   16CHL1  H21A 1163   0.947   3.077   9.297  0.3300  0.1520 -0.0570
   16CHL1  H21B 1164   0.857   3.223   9.238  0.0800  0.7892 -1.7924
   16CHL1  H21C 1165   0.904   3.081   9.130 -1.3842 -1.9709  1.0039
   16CHL1   C22 1166   0.624   3.079   9.133  0.1219  0.0098 -0.0895
   16CHL1  H22A 1167   0.543   3.003   9.141  0.1826  0.1249  1.8612
   16CHL1  H22B 1168   0.582   3.182   9.141 -1.5388 -0.7461  1.1996
   16CHL1   C23 1169   0.679   3.056   8.994 -0.3654 -0.4330  0.6437
   16CHL1  H23A 1170   0.731   3.150   8.965 -0.5903 -1.3317 -2.8981
   16CHL1  H23B 1171   0.762   2.983   8.991  0.8529  0.9612 -1.0705
   16CHL1   C24 1172   0.556   3.038   8.893 -0.1383  0.3831 -0.3795
   16CHL1  H24A 1173   0.493   2.953   8.928 -3.2352  2.5493 -0.5198
   16CHL1  H24B 1174   0.492   3.128   8.896 -0.8577 -0.0972 -1.1837
   16CHL1   C25 1175   0.596   3.006   8.751  0.1119 -0.3335  0.1799
   16CHL1   H25 1176   0.502   2.996   8.692  0.1116 -1.0154  0.2886
   16CHL1   C26 1177   0.682   3.119   8.692 -0.3975 -0.0197  0.0769
   16CHL1  H26A 1178   0.627   3.215   8.683  1.5408  1.0540 -0.5631
   16CHL1  H26B 1179   0.773   3.137   8.754 -1.7349  0.8857  1.8372
   16CHL1  H26C 1180   0.690   3.096   8.584 -1.6821  0.1119 -0.0486
   16CHL1   C27 1181   0.675   2.872   8.733  0.0077  0.4782 -0.1799
   16CHL1  H27A 1182   0.611   2.785   8.759  2.1049 -1.8013 -2.4880
   16CHL1  H27B 1183   0.697   2.869   8.625 -1.0482 -0.1096 -0.3887
   16CHL1  H27C 1184   0.773   2.866   8.785 -0.5624 -1.4297  0.7372
   17CHL1    C3 1185   3.116   6.559  10.266  0.2531  0.6446  0.7434
   17CHL1    H3 1186   3.129   6.453  10.235  1.0502  1.1974 -0.8122
   17CHL1    O3 1187   3.142   6.562  10.403  0.2437 -0.6334  0.1929
   17CHL1   H3' 1188   3.125   6.651  10.436  0.1928 -0.7229  0.4073
   17CHL1    C4 1189   3.216   6.655  10.189  0.7130  0.4934 -0.2452
   17CHL1   H4A 1190   3.206   6.757  10.231 -2.9130  0.2246 -0.2782
   17CHL1   H4B 1191   3.315   6.617  10.222  0.3330  1.7934  2.5305
   17CHL1    C5 1192   3.193   6.646  10.040  0.5635 -0.0067 -1.3496
   17CHL1    C6 1193   3.296   6.609   9.961 -0.6149 -0.1655  0.1990
   17CHL1    H6 1194   3.394   6.587  10.005 -0.9755 -2.5867 -0.1163
   17CHL1    C7 1195   3.270   6.604   9.807  0.4154  0.1503  0.3831
   17CHL1   H7A 1196   3.355   6.654   9.755  1.0315 -0.0258  1.2079
   17CHL1   H7B 1197   3.266   6.499   9.770 -0.0443  1.0369 -2.1262
   17CHL1    C8 1198   3.143   6.681   9.758 -0.5690  0.6094  0.1466
   17CHL1    H8 1199   3.166   6.789   9.764  0.8195  0.2235  2.1298
   17CHL1   C14 1200   3.105   6.636   9.615 -0.4159  0.4749 -0.3168
   17CHL1   H14 1201   3.089   6.526   9.621  1.1183  0.3028  0.7125
   17CHL1   C15 1202   3.209   6.658   9.508  0.5374 -1.0702  0.3656
   17CHL1  H15A 1203   3.234   6.765   9.518 -0.4855 -0.6399 -1.3882
   17CHL1  H15B 1204   3.308   6.608   9.507  0.9383 -0.2773 -1.7617
   17CHL1   C16 1205   3.130   6.628   9.383 -0.6099 -0.3323 -0.0230
   17CHL1  H16A 1206   3.138   6.714   9.313 -1.3688  1.2496  1.7790
   17CHL1  H16B 1207   3.152   6.525   9.347 -0.2904 -0.8512  1.5817
   17CHL1   C17 1208   2.977   6.633   9.421 -0.1791 -0.2524 -0.5129
   17CHL1   H17 1209   2.956   6.525   9.437 -2.8656  0.2834 -0.0906
   17CHL1   C13 1210   2.975   6.698   9.561  0.1042 -0.2487 -0.1911
   17CHL1   C18 1211   2.988   6.850   9.550 -0.0515  0.8521  0.1267
   17CHL1  H18A 1212   3.028   6.879   9.650 -0.9104  0.9899  0.4334
   17CHL1  H18B 1213   3.056   6.879   9.467  0.4460 -1.9098 -0.4759
   17CHL1  H18C 1214   2.896   6.911   9.553 -0.4936  0.1526  1.5416
   17CHL1   C12 1215   2.865   6.662   9.658 -0.2407  0.2530  1.0136
   17CHL1  H12A 1216   2.763   6.692   9.624 -0.9047  0.0965  2.8094
   17CHL1  H12B 1217   2.859   6.551   9.650 -0.2570  0.4346 -2.3766
   17CHL1   C11 1218   2.888   6.705   9.804  0.0100 -0.4643  0.0496
   17CHL1  H11A 1219   2.885   6.816   9.809  0.6381 -0.4247 -0.4394
   17CHL1  H11B 1220   2.805   6.664   9.866 -0.5626  0.0070 -0.4044
   17CHL1    C9 1221   3.027   6.648   9.857  0.4765  0.0038  0.6367
   17CHL1    H9 1222   3.008   6.539   9.855  2.3955 -0.3315 -1.6039
   17CHL1   C10 1223   3.049   6.681   9.997 -0.2324 -0.4610 -0.0599
   17CHL1   C19 1224   3.033   6.841  10.013 -0.1619 -0.5882 -0.0172
   17CHL1  H19A 1225   2.933   6.880   9.982 -0.2878  1.2503  2.5309
   17CHL1  H19B 1226   3.041   6.858  10.122 -0.7189 -0.7219  0.0470
   17CHL1  H19C 1227   3.116   6.900   9.969 -1.1032  0.3150 -0.6164
   17CHL1    C1 1228   2.946   6.616  10.088  0.6255 -0.2477  0.1763
   17CHL1   H1A 1229   2.859   6.685  10.083 -1.0602 -2.3941 -1.0757
   17CHL1   H1B 1230   2.922   6.514  10.051  0.3090  0.4908 -1.7204
   17CHL1    C2 1231   2.971   6.609  10.242 -0.2277  0.4648  0.3644
   17CHL1   H2A 1232   2.901   6.536  10.286 -0.6420  0.5657 -0.1297
   17CHL1   H2B 1233   2.945   6.709  10.283  0.8973  0.4001  1.2493
   17CHL1   C20 1234   2.886   6.690   9.304 -0.0868  0.5118  0.1417
   17CHL1   H20 1235   2.902   6.799   9.304 -1.0945  0.6730  1.4057
   17CHL1   C21 1236   2.742   6.651   9.337  1.0666  0.6049  0.2912
   17CHL1  H21A 1237   2.711   6.709   9.426 -1.5882 -1.1616  0.5645
   17CHL1  H21B 1238   2.727   6.543   9.355  0.0821  0.7968  0.6833
   17CHL1  H21C 1239   2.671   6.688   9.260  0.5885  0.1205  0.4943
   17CHL1   C22 1240   2.921   6.633   9.168 -0.0221 -0.3911  0.8520
   17CHL1  H22A 1241   3.016   6.679   9.134  0.1887 -0.3754  1.4482
   17CHL1  H22B 1242   2.920   6.524   9.184 -0.9683 -0.4925  0.1628
   17CHL1   C23 1243   2.814   6.639   9.051  0.5207  0.1094  0.0623
   17CHL1  H23A 1244   2.751   6.549   9.069  1.0344 -0.1109  0.7902
   17CHL1  H23B 1245   2.749   6.726   9.076  1.2963  0.8342 -0.4013
   17CHL1   C24 1246   2.875   6.655   8.918  0.1005 -0.4162 -0.4802
   17CHL1  H24A 1247   2.909   6.761   8.914 -2.1856  0.3004 -1.5293
   17CHL1  H24B 1248   2.963   6.588   8.905 -0.3018 -0.8943 -0.7560
   17CHL1   C25 1249   2.782   6.633   8.794 -0.1835 -0.1311  0.4241
   17CHL1   H25 1250   2.848   6.651   8.707 -1.8651  1.5037 -0.5489
   17CHL1   C26 1251   2.735   6.485   8.800  0.1466 -0.1259 -0.2977
   17CHL1  H26A 1252   2.707   6.459   8.695  0.5371 -2.1440  0.0853
   17CHL1  H26B 1253   2.819   6.417   8.826  1.5102  1.5606 -0.1663
   17CHL1  H26C 1254   2.650   6.469   8.869  0.2688 -3.2372 -0.7986
   17CHL1   C27 1255   2.661   6.725   8.777 -0.3803  0.2015  0.0491
   17CHL1  H27A 1256   2.695   6.809   8.712  2.1983 -0.9314 -0.1360
   17CHL1  H27B 1257   2.584   6.659   8.732 -0.1007 -1.2874  1.6974
   17CHL1  H27C 1258   2.636   6.762   8.878  1.4709  0.1602  0.5394
   18CHL1    C3 1259   2.131   5.373  10.107  0.2001 -0.5096  0.0045
   18CHL1    H3 1260   2.074   5.464  10.079 -0.8155 -1.4743 -1.0888
   18CHL1    O3 1261   2.176   5.364  10.241  0.2545  0.2610 -0.0824
   18CHL1   H3' 1262   2.199   5.455  10.261 -2.5455  0.8401  0.7616
   18CHL1    C4 1263   2.038   5.250  10.071  0.2454 -0.2709 -0.2906
   18CHL1   H4A 1264   2.084   5.155  10.105 -0.5251 -1.5462 -2.6866
   18CHL1   H4B 1265   1.945   5.253  10.133 -0.1432  1.2438 -0.9082
   18CHL1    C5 1266   1.999   5.245   9.922 -0.0061 -0.8670 -0.2806
   18CHL1    C6 1267   1.869   5.238   9.889  0.7768  0.6135  0.7038
   18CHL1    H6 1268   1.787   5.241   9.963 -0.7428 -1.8306 -0.8143
   18CHL1    C7 1269   1.835   5.226   9.745 -0.2012 -0.3888  0.2655
   18CHL1   H7A 1270   1.742   5.166   9.734 -0.6559 -0.0591  2.1668
   18CHL1   H7B 1271   1.792   5.324   9.716 -1.0510 -0.9965 -0.5406
   18CHL1    C8 1272   1.954   5.200   9.648  0.1948  0.5104 -0.2570
   18CHL1    H8 1273   1.978   5.092   9.654 -0.6547  0.3077 -0.4669
   18CHL1   C14 1274   1.905   5.234   9.506 -0.3259  0.6645 -0.0083
   18CHL1   H14 1275   1.900   5.345   9.507  0.5393  0.7046  1.6370
   18CHL1   C15 1276   1.764   5.197   9.457 -0.0371 -0.5462 -0.1530
   18CHL1  H15A 1277   1.741   5.088   9.466  0.6023 -0.5242  2.2492
   18CHL1  H15B 1278   1.692   5.259   9.514  2.5579 -0.0121  2.6804
   18CHL1   C16 1279   1.777   5.243   9.305 -0.3505 -0.4353  0.7554
   18CHL1  H16A 1280   1.724   5.163   9.249  1.3524 -0.4905 -0.8246
   18CHL1  H16B 1281   1.732   5.345   9.295 -0.1114 -0.4169 -0.1598
   18CHL1   C17 1282   1.925   5.255   9.274 -0.1032 -0.5131 -0.1216
   18CHL1   H17 1283   1.949   5.364   9.272  3.3097 -1.2329 -3.3454
   18CHL1   C13 1284   2.005   5.201   9.395  0.6943 -0.1948  0.3783
   18CHL1   C18 1285   2.023   5.048   9.375 -0.1886 -0.2662 -0.5923
   18CHL1  H18A 1286   2.083   5.014   9.462  1.0035  1.2385 -0.8070
   18CHL1  H18B 1287   1.924   4.997   9.375 -0.1320 -0.3771 -0.4439
   18CHL1  H18C 1288   2.072   5.032   9.276  0.5705  0.0948 -0.2818
   18CHL1   C12 1289   2.139   5.263   9.421  0.2495  0.2739 -0.0438
   18CHL1  H12A 1290   2.225   5.235   9.356  1.0006  1.2257  0.5012
   18CHL1  H12B 1291   2.126   5.372   9.401  0.1817 -0.1594 -2.4825
   18CHL1   C11 1292   2.192   5.239   9.564  0.6765 -0.1676  0.2201
   18CHL1  H11A 1293   2.222   5.133   9.576  1.0118  0.0027  0.9424
   18CHL1  H11B 1294   2.285   5.294   9.590 -1.1069  1.0915  4.4872
   18CHL1    C9 1295   2.081   5.276   9.678  0.5547  0.1453 -0.1569
   18CHL1    H9 1296   2.057   5.383   9.663 -0.9522  0.1156  1.7330
   18CHL1   C10 1297   2.124   5.264   9.824  0.2000  0.4430  0.4718
   18CHL1   C19 1298   2.213   5.136   9.834 -0.5836 -0.4528  0.0354
   18CHL1  H19A 1299   2.215   5.100   9.939 -1.6975 -2.0577 -0.4705
   18CHL1  H19B 1300   2.175   5.048   9.778  1.5167  0.7725 -3.4526
   18CHL1  H19C 1301   2.320   5.143   9.808 -0.1903 -2.9648  0.8449
   18CHL1    C1 1302   2.212   5.383   9.865  0.6789  0.5702 -0.2862
   18CHL1   H1A 1303   2.310   5.367   9.815  0.6822  1.5662 -0.6086
   18CHL1   H1B 1304   2.170   5.478   9.825  0.9545  0.2055 -1.4816
   18CHL1    C2 1305   2.249   5.382  10.014 -0.7710 -0.6748  0.1747
   18CHL1   H2A 1306   2.322   5.463  10.031  0.5757 -1.7273 -0.4310
   18CHL1   H2B 1307   2.318   5.297  10.037 -0.1795  0.0375  1.0703
   18CHL1   C20 1308   1.957   5.223   9.125 -0.8177 -0.2064 -0.7197
   18CHL1   H20 1309   1.934   5.114   9.114  1.5905 -0.6547 -1.7396
   18CHL1   C21 1310   2.107   5.252   9.107 -0.2168  0.2978 -0.4756
   18CHL1  H21A 1311   2.162   5.188   9.179  1.5818 -0.3736 -2.4029
   18CHL1  H21B 1312   2.130   5.361   9.116  0.5541  0.1806 -0.9838
   18CHL1  H21C 1313   2.143   5.221   9.006  4.5808 -0.7034  1.4265
   18CHL1   C22 1314   1.872   5.300   9.024 -0.4601  0.2271 -0.3561
   18CHL1  H22A 1315   1.765   5.285   9.050  0.1330 -3.4175  0.1567
   18CHL1  H22B 1316   1.903   5.407   9.031 -0.3189  0.2172 -0.8182
   18CHL1   C23 1317   1.886   5.257   8.881 -0.0267 -0.3280 -0.6673
   18CHL1  H23A 1318   1.985   5.289   8.843  0.1869 -0.2551 -0.0470
   18CHL1  H23B 1319   1.871   5.147   8.884  1.5441 -0.5492 -0.7924
   18CHL1   C24 1320   1.787   5.338   8.795 -0.2499 -0.1908  0.0584
   18CHL1  H24A 1321   1.699   5.368   8.856 -0.9101 -0.5586 -0.6940
   18CHL1  H24B 1322   1.839   5.433   8.773 -0.6534  0.0411  0.1055
   18CHL1   C25 1323   1.739   5.258   8.670  0.5781  0.1842  0.0981
   18CHL1   H25 1324   1.701   5.165   8.717  0.8668 -0.1418 -0.3026
   18CHL1   C26 1325   1.622   5.320   8.592  0.5471 -0.4414 -0.3437
   18CHL1  H26A 1326   1.614   5.279   8.489 -0.5520  0.5476 -0.6526
   18CHL1  H26B 1327   1.523   5.326   8.641  0.4147  0.5548 -0.7264
   18CHL1  H26C 1328   1.646   5.427   8.574 -2.5293  0.6255  1.6124
   18CHL1   C27 1329   1.854   5.228   8.576 -0.6530 -0.1833 -0.5174
   18CHL1  H27A 1330   1.882   5.321   8.522  2.2430 -1.0318 -0.5622
   18CHL1  H27B 1331   1.932   5.186   8.643 -1.7142 -0.2135  0.7125
   18CHL1  H27C 1332   1.827   5.160   8.492 -0.6037 -0.2374 -0.4895
   19CHL1    C3 1333   6.344   1.812  10.022 -0.1303  0.0298  0.8840
   19CHL1    H3 1334   6.266   1.734  10.029  0.3665 -0.8881 -2.7884
   19CHL1    O3 1335   6.393   1.836  10.154 -0.0417  0.6750  0.0793
   19CHL1   H3' 1336   6.416   1.928  10.164 -0.6355  0.9619 -1.1239
   19CHL1    C4 1337   6.467   1.759   9.948  0.7812 -0.0790  0.0375
   19CHL1   H4A 1338   6.547   1.834   9.968  0.1469  0.5427  0.2387
   19CHL1   H4B 1339   6.482   1.660   9.997 -0.4289  0.9893  2.6591
   19CHL1    C5 1340   6.452   1.750   9.798  0.0374  0.5177 -0.5358
   19CHL1    C6 1341   6.488   1.633   9.744 -0.2918  1.4327 -0.5173
   19CHL1    H6 1342   6.520   1.554   9.813 -1.1358  1.9094  0.4328
   19CHL1    C7 1343   6.479   1.612   9.596 -0.1056 -0.3223  1.1066
   19CHL1   H7A 1344   6.569   1.563   9.554 -0.7366  0.1964 -0.9113
   19CHL1   H7B 1345   6.387   1.551   9.579  0.3014 -1.5332  3.0586
   19CHL1    C8 1346   6.467   1.747   9.521  0.1591  0.0904 -0.2979
   19CHL1    H8 1347   6.567   1.795   9.524 -0.2707  1.0515 -1.1597
   19CHL1   C14 1348   6.434   1.712   9.378  0.2743 -0.1875  0.3074
   19CHL1   H14 1349   6.350   1.639   9.373 -0.3066  0.4984 -0.0880
   19CHL1   C15 1350   6.537   1.623   9.296 -0.2034  0.1860 -0.6438
   19CHL1  H15A 1351   6.640   1.660   9.314  0.2233 -2.1195  2.1037
   19CHL1  H15B 1352   6.513   1.518   9.324  1.3492 -0.1786 -0.6591
   19CHL1   C16 1353   6.493   1.651   9.154 -0.3041  1.2970 -0.0614
   19CHL1  H16A 1354   6.583   1.699   9.110  0.0419 -0.3103 -1.1800
   19CHL1  H16B 1355   6.474   1.551   9.108 -3.4742  2.1187 -0.6502
   19CHL1   C17 1356   6.389   1.763   9.153 -0.3818  0.4622  0.5051
   19CHL1   H17 1357   6.292   1.710   9.156 -0.6964  0.8729 -1.5412
   19CHL1   C13 1358   6.409   1.831   9.292  0.6495 -0.8461 -0.3428
   19CHL1   C18 1359   6.536   1.919   9.280 -0.4347 -0.0378 -0.4312
   19CHL1  H18A 1360   6.564   1.950   9.382 -0.2291 -0.0137 -0.4952
   19CHL1  H18B 1361   6.617   1.865   9.226 -1.3745 -1.4083 -0.5145
   19CHL1  H18C 1362   6.513   2.009   9.219  0.2289  0.9846  0.8191
   19CHL1   C12 1363   6.293   1.920   9.350  0.1043  0.5062 -0.2814
   19CHL1  H12A 1364   6.266   2.011   9.292 -0.8441  0.7399  0.5186
   19CHL1  H12B 1365   6.203   1.856   9.340  0.0074  0.4433  0.9349
   19CHL1   C11 1366   6.327   1.962   9.489 -0.2272  0.4189  0.1720
   19CHL1  H11A 1367   6.407   2.040   9.493  1.2736 -1.1724  1.7714
   19CHL1  H11B 1368   6.237   2.014   9.529  0.5146  2.4421 -0.7356
   19CHL1    C9 1369   6.359   1.838   9.582 -0.7104  0.0938  0.2703
   19CHL1    H9 1370   6.268   1.774   9.589  0.4576 -1.4098  2.4474
   19CHL1   C10 1371   6.391   1.876   9.727 -0.1332 -0.4590  0.4434
   19CHL1   C19 1372   6.495   1.996   9.738  0.7399 -0.6428 -0.3787
   19CHL1  H19A 1373   6.575   1.981   9.663  0.0503 -2.9266 -0.6803
   19CHL1  H19B 1374   6.432   2.084   9.713  1.0647 -0.8673 -2.0025
   19CHL1  H19C 1375   6.534   2.007   9.842 -3.0565 -0.1055  1.0931
   19CHL1    C1 1376   6.260   1.906   9.803  0.4534  0.5083  0.0196
   19CHL1   H1A 1377   6.226   1.995   9.745  1.3835  0.6463 -0.3263
   19CHL1   H1B 1378   6.205   1.813   9.779  3.0675 -1.1282  0.1505
   19CHL1    C2 1379   6.285   1.943   9.952  0.3150  0.4924  0.2187
   19CHL1   H2A 1380   6.192   1.970  10.006  0.5541  1.1421  0.3053
   19CHL1   H2B 1381   6.353   2.030   9.959  2.0504 -0.8301  0.2644
   19CHL1   C20 1382   6.383   1.859   9.030  0.5730  0.1354  0.7476
   19CHL1   H20 1383   6.474   1.923   9.035  0.5759  0.1248  0.8344
   19CHL1   C21 1384   6.262   1.949   9.021 -0.5363  0.0279 -0.5438
   19CHL1  H21A 1385   6.161   1.905   9.012 -1.1424  0.7281  2.4473
   19CHL1  H21B 1386   6.272   2.013   8.930  0.8571  1.6096  0.6747
   19CHL1  H21C 1387   6.252   2.021   9.105  2.5744 -0.2486  0.1222
   19CHL1   C22 1388   6.394   1.773   8.904  0.7538  0.3610 -0.4261
   19CHL1  H22A 1389   6.466   1.689   8.913  0.4067  0.0944 -0.1140
   19CHL1  H22B 1390   6.296   1.721   8.893 -0.4473  2.3344  0.6748
   19CHL1   C23 1391   6.438   1.856   8.782  0.3171  0.8075 -0.6074
   19CHL1  H23A 1392   6.363   1.935   8.760 -0.2293  0.6870  0.7612
   19CHL1  H23B 1393   6.530   1.911   8.813 -0.0923  2.1317 -1.6864
   19CHL1   C24 1394   6.457   1.751   8.668 -0.2603  0.1081  0.1560
   19CHL1  H24A 1395   6.547   1.700   8.709 -0.0941  0.3592  0.1081
   19CHL1  H24B 1396   6.366   1.689   8.653  0.0659 -0.1639 -0.7631
   19CHL1   C25 1397   6.492   1.809   8.530 -0.3331  0.4566  0.8241
   19CHL1   H25 1398   6.399   1.855   8.491  0.4001  0.3927 -1.0435
   19CHL1   C26 1399   6.619   1.898   8.547  0.5078  0.6006 -0.2114
   19CHL1  H26A 1400   6.661   1.915   8.445 -0.8793 -0.4391 -0.9763
   19CHL1  H26B 1401   6.587   1.994   8.592  0.1778 -0.5277  2.0153
   19CHL1  H26C 1402   6.691   1.849   8.616 -0.8082 -1.3765 -0.2017
   19CHL1   C27 1403   6.516   1.690   8.439 -0.1552 -0.4753  0.1940
   19CHL1  H27A 1404   6.575   1.607   8.484 -1.8706 -1.1407  1.3057
   19CHL1  H27B 1405   6.417   1.651   8.407  0.3574 -0.9650 -0.8083
   19CHL1  H27C 1406   6.573   1.714   8.348  0.4020  1.0758  0.9371
   20CHL1    C3 1407   1.771   2.489  10.296 -0.4990  0.0223  0.6619
   20CHL1    H3 1408   1.768   2.598  10.279  1.5412 -0.0998 -0.7306
   20CHL1    O3 1409   1.807   2.473  10.431 -0.0011  0.6553  0.5720
   20CHL1   H3' 1410   1.890   2.520  10.445  0.7087  0.1655 -1.6689
   20CHL1    C4 1411   1.634   2.427  10.281  0.6867 -0.2887 -0.0006
   20CHL1   H4A 1412   1.642   2.322  10.316  0.3387  0.2865  1.8633
   20CHL1   H4B 1413   1.566   2.481  10.350  0.9891  1.0211 -0.7143
   20CHL1    C5 1414   1.587   2.437  10.139  0.0144 -0.1219  0.2907
   20CHL1    C6 1415   1.474   2.500  10.100  0.1653  0.0180 -0.7625
   20CHL1    H6 1416   1.404   2.552  10.166  1.5338  1.3036 -0.2870
   20CHL1    C7 1417   1.435   2.528   9.954 -0.6976 -0.1125 -0.2972
   20CHL1   H7A 1418   1.332   2.494   9.930 -0.5891 -1.8717  1.6021
   20CHL1   H7B 1419   1.447   2.637   9.932 -2.7494  0.1096 -0.4011
   20CHL1    C8 1420   1.521   2.451   9.850  0.2245  0.1867 -0.2811
   20CHL1    H8 1421   1.476   2.349   9.844 -0.7591  0.7156 -2.5135
   20CHL1   C14 1422   1.491   2.511   9.713  0.0097  0.1069 -0.4951
   20CHL1   H14 1423   1.534   2.613   9.719  1.0889 -0.5009  3.2151
   20CHL1   C15 1424   1.346   2.533   9.665 -0.3989  0.0620 -0.1113
   20CHL1  H15A 1425   1.274   2.449   9.672  1.4687 -1.4153  2.1114
   20CHL1  H15B 1426   1.302   2.623   9.713 -0.2737 -0.1876  0.4687
   20CHL1   C16 1427   1.363   2.550   9.508  0.2545  0.6399 -0.1562
   20CHL1  H16A 1428   1.302   2.467   9.466 -1.1412  2.0066 -0.8898
   20CHL1  H16B 1429   1.322   2.649   9.479  1.2031  1.3802  0.9909
   20CHL1   C17 1430   1.514   2.528   9.478  0.5187  0.2785  0.2646
   20CHL1   H17 1431   1.561   2.627   9.488 -0.1761  0.6241  0.1543
   20CHL1   C13 1432   1.566   2.443   9.596 -0.3728 -0.2164 -0.9600
   20CHL1   C18 1433   1.512   2.297   9.587 -0.5401  0.9347 -0.0580
   20CHL1  H18A 1434   1.545   2.223   9.663  1.1436  2.3420  0.6121
   20CHL1  H18B 1435   1.402   2.312   9.578 -0.3763  4.1309  2.6421
   20CHL1  H18C 1436   1.556   2.254   9.494  0.8130 -0.6799  1.2984
   20CHL1   C12 1437   1.717   2.449   9.640  0.5247 -0.3267 -0.4723
   20CHL1  H12A 1438   1.780   2.396   9.565  1.4597  2.1536 -1.4727
   20CHL1  H12B 1439   1.756   2.553   9.645  0.6317 -0.4737  2.3943
   20CHL1   C11 1440   1.752   2.383   9.771  0.5155  0.5598  0.6926
   20CHL1  H11A 1441   1.738   2.273   9.766 -1.6058  0.8304  0.2314
   20CHL1  H11B 1442   1.859   2.413   9.780  0.9351 -0.4513 -0.8022
   20CHL1    C9 1443   1.663   2.447   9.885 -0.2665 -0.5700 -0.3319
   20CHL1    H9 1444   1.700   2.552   9.889 -0.1018 -0.6724  1.1611
   20CHL1   C10 1445   1.692   2.390  10.030  0.3172 -0.1172 -0.6478
   20CHL1   C19 1446   1.698   2.242  10.027  0.6010 -0.4517 -0.3554
   20CHL1  H19A 1447   1.706   2.208  10.133  0.5068  1.2477  0.2309
   20CHL1  H19B 1448   1.609   2.204   9.974 -1.3913  0.0400  2.5188
   20CHL1  H19C 1449   1.780   2.189   9.974 -1.2186 -0.4373 -3.2798
   20CHL1    C1 1450   1.838   2.447  10.065  0.3789  0.3462  0.5965
   20CHL1   H1A 1451   1.918   2.400  10.005  0.4815  0.2738  0.7862
   20CHL1   H1B 1452   1.857   2.554  10.042  0.0839  0.1723 -0.4433
   20CHL1    C2 1453   1.885   2.428  10.208 -0.2422 -0.5477  0.4017
   20CHL1   H2A 1454   1.971   2.496  10.227 -0.9542  0.2803  0.7118
   20CHL1   H2B 1455   1.904   2.322  10.233 -0.5025 -0.6129  0.3257
   20CHL1   C20 1456   1.537   2.475   9.335  0.3315  0.7671 -0.4316
   20CHL1   H20 1457   1.495   2.372   9.329  0.2993  0.6976  0.9011
   20CHL1   C21 1458   1.684   2.452   9.307  0.9371  0.9126  0.2500
   20CHL1  H21A 1459   1.714   2.366   9.370 -0.5994  0.7372  0.7684
   20CHL1  H21B 1460   1.749   2.540   9.326  1.4800  0.5639  0.0355
   20CHL1  H21C 1461   1.691   2.425   9.199 -1.1448  1.5872 -0.0751
   20CHL1   C22 1462   1.470   2.554   9.226 -0.0186 -0.7001  0.2509
   20CHL1  H22A 1463   1.391   2.626   9.257  0.5457 -0.3665  0.9236
   20CHL1  H22B 1464   1.551   2.621   9.191 -0.2644  0.0882  1.1618
   20CHL1   C23 1465   1.425   2.458   9.111  0.0387 -0.2546 -0.0020
   20CHL1  H23A 1466   1.506   2.396   9.067  0.3883  1.1239 -1.3493
   20CHL1  H23B 1467   1.350   2.387   9.152 -0.1522 -1.5799 -2.5270
   20CHL1   C24 1468   1.361   2.543   9.002  0.2070  0.6659  0.1457
   20CHL1  H24A 1469   1.269   2.603   9.019 -0.1365  0.1598  0.0790
   20CHL1  H24B 1470   1.444   2.611   8.972  1.0950 -0.6579 -0.4632
   20CHL1   C25 1471   1.340   2.452   8.881 -0.2376  0.2035  0.2602
   20CHL1   H25 1472   1.434   2.398   8.856  0.5550  0.7169  2.0610
   20CHL1   C26 1473   1.223   2.357   8.902 -0.2947 -0.2084  0.6999
   20CHL1  H26A 1474   1.208   2.308   8.804  0.1591  0.2881  0.3838
   20CHL1  H26B 1475   1.247   2.276   8.975  2.2035  1.5745  1.9442
   20CHL1  H26C 1476   1.135   2.421   8.925  0.3064  0.3244  1.5495
   20CHL1   C27 1477   1.300   2.553   8.774 -0.4275 -0.4007 -0.7228
   20CHL1  H27A 1478   1.270   2.512   8.675 -2.7046  0.8111 -0.5674
   20CHL1  H27B 1479   1.210   2.611   8.803  1.4456  1.5588  1.4625
   20CHL1  H27C 1480   1.387   2.618   8.749 -0.7745  0.2273 -0.3254
   21CHL1    C3 1481   1.239   5.383  10.088 -0.1733 -0.2359 -0.3302
   21CHL1    H3 1482   1.253   5.274  10.073  2.6688  0.0735 -0.2272
   21CHL1    O3 1483   1.233   5.412  10.227  0.3304  0.8857 -0.4904
   21CHL1   H3' 1484   1.245   5.507  10.235  1.1423  0.7521 -0.1299
   21CHL1    C4 1485   1.354   5.468  10.022  0.2000  0.0106  0.3149
   21CHL1   H4A 1486   1.347   5.570  10.067 -0.8702  0.7569 -1.4994
   21CHL1   H4B 1487   1.450   5.431  10.063  0.4246  1.3529  1.0623
   21CHL1    C5 1488   1.361   5.476   9.873 -0.0192  0.2162 -0.6339
   21CHL1    C6 1489   1.478   5.453   9.808  0.0959  0.0184 -0.2121
   21CHL1    H6 1490   1.573   5.428   9.857 -0.3578  1.1390  1.2479
   21CHL1    C7 1491   1.484   5.455   9.653 -0.7305 -0.5380 -0.6082
   21CHL1   H7A 1492   1.564   5.526   9.621 -1.2463  0.4423  0.2323
   21CHL1   H7B 1493   1.502   5.360   9.599  0.2789 -2.0656  2.3311
   21CHL1    C8 1494   1.355   5.515   9.581  0.1253  0.0688 -0.9381
   21CHL1    H8 1495   1.347   5.624   9.601 -1.0199 -0.1324 -0.2662
   21CHL1   C14 1496   1.360   5.476   9.435 -0.0576 -0.1765  0.2062
   21CHL1   H14 1497   1.369   5.366   9.430 -2.0140 -0.3234 -0.4609
   21CHL1   C15 1498   1.472   5.536   9.349 -0.0913  0.5923  0.6219
   21CHL1  H15A 1499   1.477   5.647   9.353 -1.1810  0.6687  0.2025
   21CHL1  H15B 1500   1.576   5.509   9.374 -0.0334  1.5101  1.4147
   21CHL1   C16 1501   1.436   5.500   9.204  0.5929  0.7133 -0.2263
   21CHL1  H16A 1502   1.445   5.584   9.131  2.3508  0.9787  0.2694
   21CHL1  H16B 1503   1.490   5.410   9.169 -0.8420  0.4468 -1.8440
   21CHL1   C17 1504   1.281   5.463   9.218  0.5268  1.3518 -0.8887
   21CHL1   H17 1505   1.271   5.353   9.227  0.9033  1.3476 -0.5128
   21CHL1   C13 1506   1.229   5.504   9.356 -1.2603  0.1625  0.2578
   21CHL1   C18 1507   1.209   5.659   9.339  0.3457 -0.0256 -0.4076
   21CHL1  H18A 1508   1.287   5.718   9.287 -0.7812  1.3836 -0.5260
   21CHL1  H18B 1509   1.116   5.667   9.279  0.1245 -0.1590 -0.0818
   21CHL1  H18C 1510   1.199   5.699   9.442 -1.1184 -1.8767  0.1966
   21CHL1   C12 1511   1.115   5.427   9.423  0.5820 -0.0404 -0.5788
   21CHL1  H12A 1512   1.020   5.456   9.372  0.8027  0.1046 -0.9112
   21CHL1  H12B 1513   1.133   5.319   9.408 -0.0481 -0.1802 -0.3477
   21CHL1   C11 1514   1.102   5.460   9.569 -0.4338  0.0576 -0.3458
   21CHL1  H11A 1515   1.054   5.559   9.586 -0.2500  0.3862 -1.6854
   21CHL1  H11B 1516   1.031   5.387   9.613  1.1351 -0.3404  1.5744
   21CHL1    C9 1517   1.234   5.452   9.650 -0.0717 -0.4947 -0.3969
   21CHL1    H9 1518   1.251   5.342   9.649 -1.5851 -0.7377 -0.2467
   21CHL1   C10 1519   1.226   5.497   9.796 -0.0053 -0.3715  0.4599
   21CHL1   C19 1520   1.171   5.641   9.814  0.4800  0.6440  0.3179
   21CHL1  H19A 1521   1.061   5.649   9.799  0.4597 -1.3944 -0.7861
   21CHL1  H19B 1522   1.194   5.671   9.918  2.4426 -2.4526  0.8464
   21CHL1  H19C 1523   1.223   5.711   9.745 -2.7521  3.2329  0.4214
   21CHL1    C1 1524   1.122   5.399   9.861 -0.3215 -0.9715  0.2537
   21CHL1   H1A 1525   1.020   5.422   9.824 -0.8648 -0.5114  1.9847
   21CHL1   H1B 1526   1.153   5.295   9.838  0.5176 -1.1740  2.1758
   21CHL1    C2 1527   1.103   5.414  10.019  0.1277 -0.0200  0.1572
   21CHL1   H2A 1528   1.025   5.343  10.054 -0.2676  1.7123  2.9396
   21CHL1   H2B 1529   1.064   5.513  10.052 -2.1560 -0.4953 -1.0386
   21CHL1   C20 1530   1.195   5.480   9.088 -0.1610 -0.7539  0.1124
   21CHL1   H20 1531   1.190   5.588   9.065  1.2425 -1.2134 -2.5125
   21CHL1   C21 1532   1.050   5.435   9.099  0.7040 -0.1951 -0.4218
   21CHL1  H21A 1533   0.999   5.484   9.184  0.9795 -0.4644 -0.1005
   21CHL1  H21B 1534   1.045   5.324   9.103  0.8116 -0.2509 -1.5976
   21CHL1  H21C 1535   0.988   5.475   9.016 -0.0242 -0.0384  0.1882
   21CHL1   C22 1536   1.258   5.418   8.957 -0.2849  0.3316 -0.8454
   21CHL1  H22A 1537   1.359   5.454   8.929 -0.6097  0.8039 -1.4379
   21CHL1  H22B 1538   1.260   5.307   8.970 -1.9324  0.4382  0.4571
   21CHL1   C23 1539   1.164   5.435   8.831 -0.1180  0.3545 -0.3251
   21CHL1  H23A 1540   1.072   5.376   8.851 -0.2299  0.3151 -0.9669
   21CHL1  H23B 1541   1.124   5.538   8.825 -0.3860  0.2684 -0.0112
   21CHL1   C24 1542   1.246   5.393   8.704 -0.5385  0.0602 -0.2399
   21CHL1  H24A 1543   1.334   5.461   8.692 -1.3416  1.0389 -0.6979
   21CHL1  H24B 1544   1.295   5.294   8.713  0.0775  0.2887 -0.9717
   21CHL1   C25 1545   1.155   5.397   8.576 -0.4888  0.2482  0.7981
   21CHL1   H25 1546   1.075   5.320   8.576  0.1588 -0.5473 -3.1382
   21CHL1   C26 1547   1.078   5.534   8.559  0.0246 -0.2049  0.7397
   21CHL1  H26A 1548   0.996   5.541   8.634 -1.6239 -0.4734 -1.0221
   21CHL1  H26B 1549   1.150   5.618   8.567 -2.3301  1.7160  2.6036
   21CHL1  H26C 1550   1.043   5.536   8.454 -2.6580 -0.4000  1.5995
   21CHL1   C27 1551   1.244   5.367   8.452 -0.3911  0.4935  0.0615
   21CHL1  H27A 1552   1.318   5.449   8.448 -0.9203  0.9919  0.4397
   21CHL1  H27B 1553   1.310   5.279   8.469 -1.4588 -0.0074  1.7348
   21CHL1  H27C 1554   1.191   5.368   8.354 -0.5097  0.6805  0.1294
   22CHL1    C3 1555   0.708   6.467  10.090  0.0780  1.0882 -0.6551
   22CHL1    H3 1556   0.799   6.402  10.089  0.2410  1.2960 -2.5587
   22CHL1    O3 1557   0.667   6.510  10.215  0.1401 -0.6524  0.3839
   22CHL1   H3' 1558   0.593   6.567  10.195  1.7093  1.2197 -0.3469
   22CHL1    C4 1559   0.730   6.587  10.005  0.2488  0.3264 -0.8451
   22CHL1   H4A 1560   0.640   6.649  10.022  0.2140 -0.5309  2.3176
   22CHL1   H4B 1561   0.808   6.652  10.051 -1.0104  1.3555 -0.1461
   22CHL1    C5 1562   0.738   6.561   9.857 -0.3666  0.5830  0.4291
   22CHL1    C6 1563   0.842   6.599   9.791 -0.1141  0.5023  0.3857
   22CHL1    H6 1564   0.931   6.649   9.832  1.1333 -0.6859 -0.8070
   22CHL1    C7 1565   0.863   6.580   9.644  0.3747 -0.0349 -0.6491
   22CHL1   H7A 1566   0.903   6.670   9.593  0.8754  0.4787  0.6345
   22CHL1   H7B 1567   0.936   6.496   9.633 -2.6994 -3.1272  1.3695
   22CHL1    C8 1568   0.724   6.538   9.587 -0.1596  0.4529  0.5604
   22CHL1    H8 1569   0.663   6.630   9.575  1.3027  1.4148  0.3583
   22CHL1   C14 1570   0.755   6.478   9.446 -0.7768 -0.9642 -0.8908
   22CHL1   H14 1571   0.809   6.380   9.454 -0.4226 -1.1457 -4.4269
   22CHL1   C15 1572   0.842   6.571   9.351  0.4495  0.2419 -0.3167
   22CHL1  H15A 1573   0.809   6.677   9.349 -0.3759  0.0097  0.5687
   22CHL1  H15B 1574   0.949   6.563   9.382  0.4547  1.0883 -0.1119
   22CHL1   C16 1575   0.834   6.499   9.222  0.1048  0.3236  0.0990
   22CHL1  H16A 1576   0.806   6.574   9.145 -0.6385  0.3057  0.3496
   22CHL1  H16B 1577   0.929   6.448   9.198 -0.2599 -0.4950  0.3754
   22CHL1   C17 1578   0.716   6.390   9.245  0.0800  0.8001  0.3507
   22CHL1   H17 1579   0.771   6.298   9.274 -0.9200  0.0672 -0.0552
   22CHL1   C13 1580   0.634   6.431   9.362 -0.4981  0.5589 -0.2780
   22CHL1   C18 1581   0.541   6.553   9.344 -0.9320  0.7556 -0.6582
   22CHL1  H18A 1582   0.596   6.637   9.296 -1.5749  0.6462 -1.5952
   22CHL1  H18B 1583   0.447   6.529   9.289 -0.7398  2.4073 -1.7587
   22CHL1  H18C 1584   0.515   6.593   9.444 -1.0172  1.4682 -0.9615
   22CHL1   C12 1585   0.568   6.314   9.443  0.0892 -0.1927 -0.4268
   22CHL1  H12A 1586   0.479   6.285   9.383  0.4590 -1.6934 -0.2796
   22CHL1  H12B 1587   0.638   6.229   9.462 -1.2752 -0.9273  1.5015
   22CHL1   C11 1588   0.532   6.355   9.590  0.4743 -0.3695 -0.3708
   22CHL1  H11A 1589   0.459   6.438   9.576 -0.7655 -1.5785 -1.2259
   22CHL1  H11B 1590   0.482   6.282   9.657 -0.8600  1.5065  0.7397
   22CHL1    C9 1591   0.649   6.423   9.668 -0.3339 -0.2592  0.6114
   22CHL1    H9 1592   0.730   6.347   9.674  1.8526  2.0164  0.9476
   22CHL1   C10 1593   0.618   6.477   9.803  0.2821  0.8389 -0.1719
   22CHL1   C19 1594   0.490   6.565   9.800 -0.6028  0.0115  0.4550
   22CHL1  H19A 1595   0.486   6.652   9.731 -3.4104  0.0371  0.5790
   22CHL1  H19B 1596   0.400   6.500   9.792 -0.3946  0.0269 -2.5302
   22CHL1  H19C 1597   0.480   6.612   9.901  1.5975  0.8863  0.2743
   22CHL1    C1 1598   0.597   6.347   9.898 -0.1494 -0.0240 -0.1942
   22CHL1   H1A 1599   0.504   6.292   9.873  0.7551 -2.0104  0.7851
   22CHL1   H1B 1600   0.678   6.273   9.887 -0.6578 -0.3563 -1.8799
   22CHL1    C2 1601   0.588   6.382  10.045 -0.6844 -1.0329 -0.0217
   22CHL1   H2A 1602   0.579   6.294  10.112 -2.8186 -1.1258 -0.4009
   22CHL1   H2B 1603   0.492   6.435  10.059 -0.4603 -0.1353 -1.7361
   22CHL1   C20 1604   0.644   6.350   9.113  0.5400 -0.2424 -0.1182
   22CHL1   H20 1605   0.542   6.321   9.147 -0.5133  2.4643 -0.8129
   22CHL1   C21 1606   0.714   6.235   9.050 -0.7457 -0.4056  0.3984
   22CHL1  H21A 1607   0.680   6.198   8.950  0.0227  0.6566 -0.2599
   22CHL1  H21B 1608   0.713   6.152   9.124  0.1541 -1.1991 -0.4601
   22CHL1  H21C 1609   0.817   6.266   9.023 -0.8952 -1.1657 -1.1216
   22CHL1   C22 1610   0.612   6.470   9.019  0.2276  0.3913 -0.3387
   22CHL1  H22A 1611   0.576   6.561   9.072 -2.3906 -0.5257 -0.4567
   22CHL1  H22B 1612   0.699   6.486   8.951  0.9798 -1.7542  0.0830
   22CHL1   C23 1613   0.492   6.435   8.933 -0.3979 -0.9733 -0.7779
   22CHL1  H23A 1614   0.514   6.339   8.883  1.1624 -1.2954  0.5101
   22CHL1  H23B 1615   0.405   6.418   8.999 -0.8069 -1.0085 -1.3168
   22CHL1   C24 1616   0.459   6.548   8.837 -0.2358 -0.1477 -0.0183
   22CHL1  H24A 1617   0.432   6.642   8.889 -1.8247 -0.1785 -0.7549
   22CHL1  H24B 1618   0.546   6.578   8.776 -0.8857 -0.7919 -1.2802
   22CHL1   C25 1619   0.336   6.511   8.742 -0.1710  1.0457 -0.0207
   22CHL1   H25 1620   0.240   6.500   8.798  0.4441  0.0029  0.8186
   22CHL1   C26 1621   0.320   6.634   8.647 -0.5778  0.3893  0.3789
   22CHL1  H26A 1622   0.232   6.611   8.583 -1.5594 -0.2176  1.9422
   22CHL1  H26B 1623   0.308   6.713   8.723  1.0066 -0.6450  1.7330
   22CHL1  H26C 1624   0.412   6.651   8.587 -1.3615 -2.5745 -1.7679
   22CHL1   C27 1625   0.353   6.377   8.663  0.2398 -0.6449 -0.1781
   22CHL1  H27A 1626   0.292   6.378   8.570  1.0217 -0.2991 -0.6879
   22CHL1  H27B 1627   0.460   6.377   8.635  0.3206 -1.6531  0.1152
   22CHL1  H27C 1628   0.331   6.288   8.726 -1.9671 -1.3649 -1.8873
   23CHL1    C3 1629   4.090   1.472  10.216  0.7011 -0.2744  0.0516
   23CHL1    H3 1630   3.981   1.486  10.231  0.9419  2.0255 -0.1924
   23CHL1    O3 1631   4.155   1.443  10.343  0.3834 -0.5346  0.2937
   23CHL1   H3' 1632   4.245   1.420  10.318  0.5369  1.3555 -1.0134
   23CHL1    C4 1633   4.111   1.349  10.125 -0.2292 -0.1969  0.0771
   23CHL1   H4A 1634   4.221   1.337  10.119 -0.1521  0.7372 -0.4962
   23CHL1   H4B 1635   4.076   1.259  10.180  1.2093  0.5389  2.2575
   23CHL1    C5 1636   4.045   1.371   9.990  0.1240 -0.6043 -0.4855
   23CHL1    C6 1637   3.949   1.291   9.937  0.8266  0.9379  0.5758
   23CHL1    H6 1638   3.908   1.211  10.001  1.2530  1.6373  1.7370
   23CHL1    C7 1639   3.901   1.303   9.797 -0.1044  0.3352  0.2938
   23CHL1   H7A 1640   3.898   1.205   9.745  0.9214  0.6883 -0.4344
   23CHL1   H7B 1641   3.797   1.341   9.800 -0.2020  0.4026 -2.5711
   23CHL1    C8 1642   3.977   1.398   9.702 -0.0471 -0.0261 -0.5530
   23CHL1    H8 1643   4.074   1.355   9.669 -0.5486 -0.8855 -0.9019
   23CHL1   C14 1644   3.895   1.434   9.574  0.5319  0.1617  0.2507
   23CHL1   H14 1645   3.800   1.472   9.618  0.4402  1.4347 -0.9852
   23CHL1   C15 1646   3.850   1.318   9.481  0.1523 -0.2717 -0.3444
   23CHL1  H15A 1647   3.934   1.246   9.470  0.3993  0.1435 -1.1968
   23CHL1  H15B 1648   3.770   1.254   9.524  1.0585 -1.8944 -1.0391
   23CHL1   C16 1649   3.827   1.381   9.342  0.3920  0.5999 -1.1311
   23CHL1  H16A 1650   3.901   1.337   9.272  1.9980 -0.6742  1.2859
   23CHL1  H16B 1651   3.726   1.361   9.300  0.9862 -0.8842 -1.8803
   23CHL1   C17 1652   3.856   1.531   9.367 -0.1050 -0.0557  0.3711
   23CHL1   H17 1653   3.769   1.578   9.418  0.0011  0.7938 -0.2203
   23CHL1   C13 1654   3.958   1.542   9.487 -0.5560  0.0699 -1.0973
   23CHL1   C18 1655   4.090   1.487   9.444 -1.2180  0.1105 -0.0737
   23CHL1  H18A 1656   4.133   1.549   9.362 -1.0260 -0.9862 -0.8087
   23CHL1  H18B 1657   4.164   1.479   9.526  0.6378  1.1585 -1.5879
   23CHL1  H18C 1658   4.069   1.387   9.400  0.9592  0.2822 -1.5629
   23CHL1   C12 1659   3.972   1.677   9.565 -0.5636  0.7523  0.3195
   23CHL1  H12A 1660   4.030   1.741   9.494  0.4491 -1.8782 -1.2796
   23CHL1  H12B 1661   3.870   1.716   9.583 -0.9948  0.2576 -1.0164
   23CHL1   C11 1662   4.053   1.649   9.698  0.4346 -0.5683  0.0972
   23CHL1  H11A 1663   4.156   1.653   9.657 -0.1847  0.2160 -1.4398
   23CHL1  H11B 1664   4.031   1.740   9.758 -1.8558 -0.3279 -1.0399
   23CHL1    C9 1665   4.007   1.526   9.788 -0.5420  0.1927  0.4178
   23CHL1    H9 1666   3.911   1.553   9.837  0.8072  0.6021  2.8865
   23CHL1   C10 1667   4.090   1.501   9.911 -0.4115 -0.1134  1.1896
   23CHL1   C19 1668   4.233   1.477   9.858 -0.3516  0.3154 -0.2115
   23CHL1  H19A 1669   4.247   1.408   9.772  1.3081  0.5995 -0.1701
   23CHL1  H19B 1670   4.284   1.574   9.845  2.5207 -0.9688  1.1298
   23CHL1  H19C 1671   4.285   1.424   9.941 -0.6772 -0.6336 -0.5977
   23CHL1    C1 1672   4.096   1.620  10.008 -0.4783 -0.5918  0.1092
   23CHL1   H1A 1673   4.150   1.708   9.969  1.6887 -1.2251  1.6059
   23CHL1   H1B 1674   3.992   1.658  10.017 -0.6561 -0.7037 -1.2643
   23CHL1    C2 1675   4.156   1.598  10.151  0.0266 -0.2310 -0.8222
   23CHL1   H2A 1676   4.119   1.686  10.209 -1.5842 -1.3242 -0.1428
   23CHL1   H2B 1677   4.267   1.592  10.151  0.2396  2.6696  0.6623
   23CHL1   C20 1678   3.882   1.617   9.241 -0.5259  0.8888 -0.4813
   23CHL1   H20 1679   3.941   1.708   9.265  0.4901 -0.1264  0.9686
   23CHL1   C21 1680   3.753   1.659   9.175 -0.5794  0.7352 -0.4803
   23CHL1  H21A 1681   3.699   1.587   9.111 -0.4271  1.0846 -0.9987
   23CHL1  H21B 1682   3.775   1.747   9.111 -0.5672  0.2744 -1.1144
   23CHL1  H21C 1683   3.692   1.691   9.262  0.1789 -0.7116  0.6221
   23CHL1   C22 1684   3.963   1.540   9.127  0.6455 -0.4901 -0.1351
   23CHL1  H22A 1685   4.032   1.468   9.176 -0.6905 -0.3471  2.0269
   23CHL1  H22B 1686   3.884   1.479   9.078 -0.3347  0.0689  0.7305
   23CHL1   C23 1687   4.043   1.641   9.040  0.2508 -0.3346 -0.0941
   23CHL1  H23A 1688   3.996   1.735   9.003 -1.0309 -0.3669  1.4242
   23CHL1  H23B 1689   4.130   1.681   9.096  0.0170  0.4740 -0.3102
   23CHL1   C24 1690   4.103   1.568   8.913  0.1883 -0.0232 -0.4588
   23CHL1  H24A 1691   4.157   1.474   8.936 -1.8374 -1.6627 -2.3002
   23CHL1  H24B 1692   4.025   1.531   8.844 -0.6571 -1.9582  1.5077
   23CHL1   C25 1693   4.200   1.662   8.836 -0.0013  0.4859  0.3116
   23CHL1   H25 1694   4.152   1.762   8.827 -2.9905 -0.8288  1.0702
   23CHL1   C26 1695   4.334   1.673   8.917  0.5382  0.3748  0.3599
   23CHL1  H26A 1696   4.315   1.745   8.999 -1.3135  0.1244  0.1590
   23CHL1  H26B 1697   4.343   1.575   8.968  1.1111  0.7919  1.0739
   23CHL1  H26C 1698   4.420   1.706   8.855 -1.5133  0.2285 -2.6638
   23CHL1   C27 1699   4.229   1.605   8.696 -0.4471 -0.4805 -0.3689
   23CHL1  H27A 1700   4.255   1.497   8.689  2.2515  0.1819 -1.2190
   23CHL1  H27B 1701   4.147   1.618   8.622 -2.2629  2.4536  2.0561
   23CHL1  H27C 1702   4.320   1.657   8.658  0.3678 -1.1999  0.5895
   24CHL1    C3 1703   5.911   1.782  10.181  0.2532  0.7109  0.1340
   24CHL1    H3 1704   5.978   1.871  10.181 -0.1301  0.9987 -0.9220
   24CHL1    O3 1705   5.932   1.699  10.290 -0.3625  0.4939 -0.6123
   24CHL1   H3' 1706   5.869   1.626  10.287 -0.1664  0.0707  3.2480
   24CHL1    C4 1707   5.766   1.840  10.184  0.4971  0.2750  0.1481
   24CHL1   H4A 1708   5.690   1.765  10.216  1.3975 -0.7183  0.0124
   24CHL1   H4B 1709   5.769   1.913  10.268 -0.8656  0.5727 -0.0463
   24CHL1    C5 1710   5.721   1.904  10.056  0.1791  0.5427 -0.7584
   24CHL1    C6 1711   5.671   2.035  10.069  0.1149 -0.0069  0.4237
   24CHL1    H6 1712   5.672   2.088  10.165  1.3263  0.0334  0.3953
   24CHL1    C7 1713   5.603   2.109   9.950 -0.3735  0.3041 -0.2642
   24CHL1   H7A 1714   5.497   2.143   9.963 -0.2961  1.0166 -1.4234
   24CHL1   H7B 1715   5.663   2.201   9.931  0.6146 -0.0020  1.3329
   24CHL1    C8 1716   5.605   2.024   9.818 -0.3028 -1.1964 -0.4380
   24CHL1    H8 1717   5.511   1.965   9.808 -2.3170  2.2219 -2.9045
   24CHL1   C14 1718   5.609   2.111   9.695  0.1256  0.1917 -0.3330
   24CHL1   H14 1719   5.712   2.150   9.713  0.4832  0.1614 -2.1909
   24CHL1   C15 1720   5.521   2.242   9.685 -0.0541 -0.4251 -0.0187
   24CHL1  H15A 1721   5.417   2.213   9.712  0.1842 -0.4441  0.9251
   24CHL1  H15B 1722   5.559   2.320   9.755 -2.3780  0.0363  0.7543
   24CHL1   C16 1723   5.531   2.288   9.542  0.3718 -0.1412  0.4992
   24CHL1  H16A 1724   5.429   2.293   9.498  0.7040  1.7485 -0.1297
   24CHL1  H16B 1725   5.583   2.385   9.526 -1.5223  0.6653 -1.0630
   24CHL1   C17 1726   5.614   2.176   9.465 -0.3719 -0.5551 -0.3481
   24CHL1   H17 1727   5.720   2.203   9.483 -0.2048 -0.5722 -1.2524
   24CHL1   C13 1728   5.599   2.046   9.553 -0.6196 -0.0447 -0.6439
   24CHL1   C18 1729   5.459   1.991   9.531  0.0572 -0.4690 -0.1233
   24CHL1  H18A 1730   5.393   2.079   9.540  2.0041  1.1610 -1.2864
   24CHL1  H18B 1731   5.454   1.956   9.425 -0.7386 -3.0123  0.7228
   24CHL1  H18C 1732   5.435   1.919   9.612 -2.3720  0.9260  0.4404
   24CHL1   C12 1733   5.701   1.930   9.541  0.3082  0.1600  1.4672
   24CHL1  H12A 1734   5.670   1.880   9.447  1.5479 -0.6532  1.4893
   24CHL1  H12B 1735   5.803   1.974   9.534  0.3970  0.0083  1.7973
   24CHL1   C11 1736   5.704   1.838   9.662 -0.2078 -0.3287  0.2711
   24CHL1  H11A 1737   5.602   1.794   9.670 -0.7278  0.0138 -3.5676
   24CHL1  H11B 1738   5.778   1.756   9.650 -1.1191 -0.8788 -1.7624
   24CHL1    C9 1739   5.717   1.916   9.800  0.2400 -0.1993  0.4105
   24CHL1    H9 1740   5.814   1.969   9.789 -0.5854  1.1985 -0.2617
   24CHL1   C10 1741   5.739   1.824   9.928  0.8469  0.2867  0.0163
   24CHL1   C19 1742   5.653   1.692   9.922  0.0196  0.0889  0.1518
   24CHL1  H19A 1743   5.549   1.710   9.890 -0.0849 -1.2059 -0.2671
   24CHL1  H19B 1744   5.698   1.626   9.844 -0.9057  0.5141 -0.7477
   24CHL1  H19C 1745   5.645   1.657  10.027 -0.2198  1.0643  0.4604
   24CHL1    C1 1746   5.888   1.784   9.929 -1.1435  0.4409  0.0746
   24CHL1   H1A 1747   5.902   1.729   9.833  1.2801  0.8952  0.1246
   24CHL1   H1B 1748   5.958   1.870   9.923  2.3644 -2.3983 -2.0831
   24CHL1    C2 1749   5.934   1.703  10.052  0.1169  1.0032 -1.0064
   24CHL1   H2A 1750   6.037   1.664  10.041 -0.4865 -1.2048  0.7622
   24CHL1   H2B 1751   5.871   1.612  10.059 -1.1931  1.9362 -0.3639
   24CHL1   C20 1752   5.588   2.164   9.309 -0.0847  0.1580  0.4503
   24CHL1   H20 1753   5.496   2.107   9.281  0.9077 -0.5867 -1.3728
   24CHL1   C21 1754   5.706   2.083   9.247 -0.5921 -0.0714  0.8349
   24CHL1  H21A 1755   5.734   1.988   9.298 -0.8225  0.0257  1.1452
   24CHL1  H21B 1756   5.797   2.146   9.247 -0.8024  0.2623 -0.9075
   24CHL1  H21C 1757   5.684   2.063   9.140  0.8982  2.1633  0.0908
   24CHL1   C22 1758   5.572   2.303   9.246 -0.4493 -0.8029  0.2078
   24CHL1  H22A 1759   5.480   2.346   9.292 -0.1015  0.7997 -0.5482
   24CHL1  H22B 1760   5.658   2.363   9.284 -2.3824  0.9563  1.9506
   24CHL1   C23 1761   5.568   2.304   9.096 -0.2101  0.2722  0.6537
   24CHL1  H23A 1762   5.665   2.273   9.052 -1.8268 -2.2884 -1.2519
   24CHL1  H23B 1763   5.492   2.233   9.057 -0.0726  1.0826 -1.1342
   24CHL1   C24 1764   5.546   2.444   9.038 -0.0892  0.1643 -0.8531
   24CHL1  H24A 1765   5.449   2.475   9.081  1.2433  1.8022  1.1230
   24CHL1  H24B 1766   5.617   2.514   9.089  0.6612 -0.2108 -1.3661
   24CHL1   C25 1767   5.566   2.453   8.881 -0.3759 -0.4845  0.7893
   24CHL1   H25 1768   5.673   2.483   8.879 -1.7287  4.8830 -1.0883
   24CHL1   C26 1769   5.556   2.316   8.807  0.6529 -0.2719  0.2762
   24CHL1  H26A 1770   5.572   2.320   8.697  1.8955 -0.7544  0.4365
   24CHL1  H26B 1771   5.621   2.242   8.858  1.7319  0.4229 -0.0708
   24CHL1  H26C 1772   5.453   2.280   8.827  1.1792 -3.5313 -2.4524
   24CHL1   C27 1773   5.502   2.580   8.815  0.1171  0.2252 -0.1235
   24CHL1  H27A 1774   5.393   2.566   8.828  0.1701 -1.1199 -1.0526
   24CHL1  H27B 1775   5.526   2.671   8.874 -2.1262  1.6643 -1.3681
   24CHL1  H27C 1776   5.540   2.593   8.712  0.5197  0.4305  0.0471
   25CHL1    C3 1777   0.476   3.411  10.329  0.4101  0.1794 -0.4594
   25CHL1    H3 1778   0.519   3.316  10.290 -0.9986 -0.6347 -0.0920
   25CHL1    O3 1779   0.503   3.436  10.463  0.3808 -0.1596 -0.1297
   25CHL1   H3' 1780   0.503   3.352  10.510 -2.7544 -1.3217 -2.1285
   25CHL1    C4 1781   0.535   3.526  10.244  0.2878 -0.0388 -0.2677
   25CHL1   H4A 1782   0.496   3.625  10.277 -0.1647 -1.0341  2.2650
   25CHL1   H4B 1783   0.645   3.518  10.257  0.3660  2.8862  1.1541
   25CHL1    C5 1784   0.502   3.524  10.094  0.1090 -0.8940 -0.4903
   25CHL1    C6 1785   0.596   3.536  10.001 -0.1172 -0.1996 -0.1115
   25CHL1    H6 1786   0.701   3.538  10.033 -0.3110  0.7509  0.4835
   25CHL1    C7 1787   0.574   3.525   9.861 -0.3920  0.2364  0.2576
   25CHL1   H7A 1788   0.634   3.597   9.800 -1.6239 -1.2312 -2.7969
   25CHL1   H7B 1789   0.606   3.422   9.834  1.9446  0.7317  1.0817
   25CHL1    C8 1790   0.432   3.550   9.817  0.2453  0.3753  0.5099
   25CHL1    H8 1791   0.412   3.659   9.813  2.6137  0.8320  0.1474
   25CHL1   C14 1792   0.415   3.493   9.671 -0.0945 -0.1790  0.5183
   25CHL1   H14 1793   0.439   3.386   9.691 -1.4712 -0.6299 -0.1932
   25CHL1   C15 1794   0.520   3.528   9.563  0.1257  0.8728  0.1024
   25CHL1  H15A 1795   0.535   3.638   9.566 -4.2153  1.5631 -0.3045
   25CHL1  H15B 1796   0.614   3.474   9.586  0.6109  1.1781 -1.0753
   25CHL1   C16 1797   0.449   3.481   9.433  0.3306  0.6558  0.7226
   25CHL1  H16A 1798   0.429   3.574   9.376  1.3991  1.4258  1.5836
   25CHL1  H16B 1799   0.513   3.408   9.378 -0.1123 -0.3981  1.5709
   25CHL1   C17 1800   0.308   3.424   9.478  0.5409  0.3854 -0.4327
   25CHL1   H17 1801   0.315   3.316   9.506  1.3444  0.9596  1.6910
   25CHL1   C13 1802   0.277   3.505   9.603 -0.0657 -0.7476 -0.0051
   25CHL1   C18 1803   0.233   3.656   9.580  0.4480 -0.2419  0.0170
   25CHL1  H18A 1804   0.311   3.707   9.520  0.1653 -2.1137 -2.0202
   25CHL1  H18B 1805   0.134   3.681   9.534 -0.8621 -1.6475  1.9914
   25CHL1  H18C 1806   0.230   3.698   9.682 -2.8500  1.9619 -0.9079
   25CHL1   C12 1807   0.180   3.442   9.704 -0.2052  0.1338 -0.3545
   25CHL1  H12A 1808   0.075   3.447   9.670 -0.0709 -0.9901 -0.9644
   25CHL1  H12B 1809   0.207   3.334   9.710  0.6245  0.3717  0.4515
   25CHL1   C11 1810   0.190   3.497   9.849 -0.0416  0.1447 -0.3196
   25CHL1  H11A 1811   0.155   3.603   9.845  3.2245  1.3927  2.0489
   25CHL1  H11B 1812   0.124   3.444   9.921  0.2070  1.3291  0.8100
   25CHL1    C9 1813   0.331   3.485   9.907  0.3111 -0.0474  0.4987
   25CHL1    H9 1814   0.357   3.377   9.899  0.8205  0.0306  1.1003
   25CHL1   C10 1815   0.354   3.511  10.062  0.5796 -0.4101 -0.3560
   25CHL1   C19 1816   0.276   3.643  10.101 -0.5198 -0.0982  0.3248
   25CHL1  H19A 1817   0.168   3.625  10.080 -0.3827 -0.0029 -0.5022
   25CHL1  H19B 1818   0.280   3.673  10.208  3.8298  1.3316 -0.1352
   25CHL1  H19C 1819   0.311   3.729  10.039  0.5880  0.0729  1.1749
   25CHL1    C1 1820   0.298   3.389  10.149 -0.9226  0.8541  0.0378
   25CHL1   H1A 1821   0.194   3.358  10.126 -0.1165 -2.7050  0.9108
   25CHL1   H1B 1822   0.347   3.292  10.125  0.9973  1.4416  1.4188
   25CHL1    C2 1823   0.317   3.407  10.302  0.7213 -0.1769  0.0478
   25CHL1   H2A 1824   0.260   3.324  10.347  0.6290 -0.6510 -0.9343
   25CHL1   H2B 1825   0.276   3.504  10.338  1.7963  0.7421 -1.1546
   25CHL1   C20 1826   0.207   3.421   9.356 -0.5273 -0.3880  0.7347
   25CHL1   H20 1827   0.176   3.524   9.328 -0.5502 -1.3355 -3.0710
   25CHL1   C21 1828   0.080   3.335   9.392  0.0983 -0.4453  0.0530
   25CHL1  H21A 1829   0.006   3.394   9.451 -1.3549  0.2563 -2.3885
   25CHL1  H21B 1830   0.084   3.231   9.432 -2.8674 -0.4514  0.4905
   25CHL1  H21C 1831   0.026   3.322   9.296 -0.4318 -0.7521  0.3863
   25CHL1   C22 1832   0.263   3.353   9.230 -0.2792 -0.6249 -0.1374
   25CHL1  H22A 1833   0.365   3.391   9.211 -0.4687 -0.5358 -0.9952
   25CHL1  H22B 1834   0.282   3.243   9.237 -2.8098 -1.0135  1.5137
   25CHL1   C23 1835   0.192   3.377   9.097  0.7042  0.6152 -0.0106
   25CHL1  H23A 1836   0.085   3.347   9.104  0.5884  1.3400  1.7777
   25CHL1  H23B 1837   0.196   3.487   9.085 -0.9571  0.5432 -1.4232
   25CHL1   C24 1838   0.262   3.297   8.986  0.0579 -0.9839  0.0034
   25CHL1  H24A 1839   0.371   3.298   9.008 -0.0821 -2.0981  0.8406
   25CHL1  H24B 1840   0.218   3.195   8.981 -0.7378 -0.5576 -2.5125
   25CHL1   C25 1841   0.238   3.355   8.843 -0.0272 -0.6026 -1.4535
   25CHL1   H25 1842   0.291   3.452   8.833  1.4540 -1.3282 -0.8986
   25CHL1   C26 1843   0.291   3.249   8.743 -0.2905 -0.4264 -0.4152
   25CHL1  H26A 1844   0.281   3.152   8.796  0.9195 -0.9105 -1.0737
   25CHL1  H26B 1845   0.250   3.261   8.641 -2.3719 -0.1440  0.4235
   25CHL1  H26C 1846   0.400   3.267   8.741 -0.6000  2.4149  2.6303
   25CHL1   C27 1847   0.095   3.388   8.806  0.5938 -0.4583 -0.7048
   25CHL1  H27A 1848   0.061   3.393   8.701 -3.4452 -1.1022  0.4645
   25CHL1  H27B 1849   0.020   3.319   8.851  0.5288 -0.8252 -1.3820
   25CHL1  H27C 1850   0.069   3.487   8.850  1.0619 -1.0722  1.0324
   26CHL1    C3 1851   1.384   5.980  10.158  0.3224  0.3166 -0.1923
   26CHL1    H3 1852   1.320   5.893  10.131 -0.1968  0.6222  0.0492
   26CHL1    O3 1853   1.424   5.975  10.299 -0.0533  0.5598  0.2607
   26CHL1   H3' 1854   1.489   6.046  10.301 -0.5232  0.9732  1.5166
   26CHL1    C4 1855   1.511   5.970  10.072 -0.8248  0.1709 -0.1249
   26CHL1   H4A 1856   1.577   6.049  10.114 -0.9345 -0.0201  0.4055
   26CHL1   H4B 1857   1.559   5.871  10.084  0.1039  0.4341 -1.4868
   26CHL1    C5 1858   1.489   5.996   9.919  0.3922  0.2036 -0.2171
   26CHL1    C6 1859   1.527   5.912   9.827  0.4164  0.2993 -0.6451
   26CHL1    H6 1860   1.575   5.820   9.863  0.4512  0.7058  0.3478
   26CHL1    C7 1861   1.502   5.910   9.681 -0.2417  0.6082  0.1257
   26CHL1   H7A 1862   1.591   5.875   9.626 -1.1291  0.1182 -1.0079
   26CHL1   H7B 1863   1.417   5.851   9.641 -0.1432 -1.4358  2.8140
   26CHL1    C8 1864   1.465   6.056   9.645  0.3122  0.0281 -0.7590
   26CHL1    H8 1865   1.558   6.117   9.643  0.9411 -0.8740  0.4019
   26CHL1   C14 1866   1.401   6.053   9.506 -0.1712 -0.1130  1.3204
   26CHL1   H14 1867   1.301   6.006   9.517  0.1875 -1.6297 -1.3438
   26CHL1   C15 1868   1.476   5.971   9.399  0.0928 -0.2228  0.6971
   26CHL1  H15A 1869   1.582   6.001   9.417  0.1893 -2.2664  3.8398
   26CHL1  H15B 1870   1.466   5.861   9.391 -0.8004 -0.1688  1.0657
   26CHL1   C16 1871   1.433   6.026   9.268 -0.0515  0.5414  0.3842
   26CHL1  H16A 1872   1.525   6.055   9.213  0.5185  0.6068  1.3692
   26CHL1  H16B 1873   1.385   5.943   9.211  1.8423 -0.3841  0.0811
   26CHL1   C17 1874   1.333   6.145   9.302  0.2436 -0.5896  0.7683
   26CHL1   H17 1875   1.234   6.094   9.310 -0.2102  0.6522  3.4965
   26CHL1   C13 1876   1.374   6.189   9.443 -1.1081  0.3268 -0.0668
   26CHL1   C18 1877   1.501   6.271   9.434  0.3905 -0.1200 -0.3443
   26CHL1  H18A 1878   1.550   6.282   9.532 -1.1774  0.6264  0.3784
   26CHL1  H18B 1879   1.575   6.232   9.361 -0.9928 -0.2035 -1.7524
   26CHL1  H18C 1880   1.470   6.372   9.400 -0.8774  0.7160  3.1475
   26CHL1   C12 1881   1.272   6.260   9.539  0.0650 -0.7281 -0.4316
   26CHL1  H12A 1882   1.247   6.362   9.504  0.8365 -1.5057 -3.3719
   26CHL1  H12B 1883   1.174   6.208   9.540 -0.7258  0.7412  1.6402
   26CHL1   C11 1884   1.320   6.263   9.684  0.7490  0.3759 -0.0709
   26CHL1  H11A 1885   1.408   6.327   9.704  0.9263 -0.1018  0.7046
   26CHL1  H11B 1886   1.232   6.300   9.742 -1.9965 -0.0761 -3.8021
   26CHL1    C9 1887   1.364   6.120   9.740  0.8401 -0.4141 -0.4840
   26CHL1    H9 1888   1.272   6.059   9.730  0.2483  0.3430  0.2236
   26CHL1   C10 1889   1.405   6.121   9.889  0.2214 -0.3795 -0.3736
   26CHL1   C19 1890   1.497   6.239   9.919  0.3671 -0.6087 -0.4432
   26CHL1  H19A 1891   1.553   6.219  10.013  1.4535 -3.0867 -1.5613
   26CHL1  H19B 1892   1.571   6.265   9.841  0.1109  1.5150 -0.0082
   26CHL1  H19C 1893   1.431   6.327   9.931  0.6685 -0.4398  0.0078
   26CHL1    C1 1894   1.280   6.118   9.977 -0.3702 -0.5327 -0.5545
   26CHL1   H1A 1895   1.229   6.217   9.972  2.0861  0.7833 -0.1058
   26CHL1   H1B 1896   1.219   6.032   9.941 -2.3303  1.0513 -1.1661
   26CHL1    C2 1897   1.314   6.108  10.131  0.7989 -0.6063  0.2185
   26CHL1   H2A 1898   1.231   6.121  10.204 -1.3026 -3.5246 -1.5175
   26CHL1   H2B 1899   1.386   6.186  10.163 -0.3225  0.3962  0.3525
   26CHL1   C20 1900   1.324   6.253   9.194  0.6740  0.7714  0.0157
   26CHL1   H20 1901   1.424   6.302   9.183  0.1681  1.3770 -2.0774
   26CHL1   C21 1902   1.228   6.371   9.235  0.5660 -0.1351 -0.4689
   26CHL1  H21A 1903   1.223   6.438   9.146  2.5346  0.8908  0.1675
   26CHL1  H21B 1904   1.266   6.437   9.316  1.4162 -1.3741  0.1443
   26CHL1  H21C 1905   1.130   6.321   9.251  0.0844  0.2836 -1.9613
   26CHL1   C22 1906   1.291   6.188   9.054 -0.1030  0.2300  0.2929
   26CHL1  H22A 1907   1.381   6.133   9.019  0.0178  1.5599 -1.5656
   26CHL1  H22B 1908   1.210   6.112   9.054 -0.5465  0.6695 -1.9944
   26CHL1   C23 1909   1.273   6.294   8.947 -0.0261 -0.6815  0.7663
   26CHL1  H23A 1910   1.170   6.334   8.956  0.0978 -0.4685  1.2648
   26CHL1  H23B 1911   1.347   6.374   8.970  1.3894 -1.2661 -1.6057
   26CHL1   C24 1912   1.300   6.235   8.803  0.3463 -0.0015 -0.2737
   26CHL1  H24A 1913   1.407   6.208   8.788  0.1403 -2.0626  1.6056
   26CHL1  H24B 1914   1.233   6.146   8.806  1.2380 -0.7113 -1.1721
   26CHL1   C25 1915   1.257   6.325   8.684 -0.2516 -0.8079  0.0824
   26CHL1   H25 1916   1.151   6.352   8.703 -0.0097  0.4112 -0.2235
   26CHL1   C26 1917   1.339   6.448   8.658 -0.5917 -0.3630 -0.1487
   26CHL1  H26A 1918   1.282   6.504   8.581 -0.3423 -0.8480 -0.6780
   26CHL1  H26B 1919   1.361   6.509   8.749 -2.7493 -0.6042  0.5698
   26CHL1  H26C 1920   1.434   6.410   8.616  1.6269  2.0602  2.4867
   26CHL1   C27 1921   1.249   6.245   8.552  0.3101 -0.1176 -0.0741
   26CHL1  H27A 1922   1.181   6.302   8.484 -0.2167 -0.4507  0.1691
   26CHL1  H27B 1923   1.348   6.218   8.511  1.2116  1.8996  0.7040
   26CHL1  H27C 1924   1.199   6.152   8.586 -0.9161  1.3466  2.2558
   27CHL1    C3 1925   1.058   3.473  10.419 -0.4009 -0.6659  0.6500
   27CHL1    H3 1926   0.999   3.383  10.395 -1.7441  0.3893 -0.1165
   27CHL1    O3 1927   1.081   3.488  10.558  0.7698  0.1583 -0.0342
   27CHL1   H3' 1928   1.018   3.555  10.587 -0.9104 -1.4433  0.0796
   27CHL1    C4 1929   1.196   3.473  10.345  0.0277 -0.2958 -0.2947
   27CHL1   H4A 1930   1.249   3.568  10.365  0.7009 -0.3245 -1.8654
   27CHL1   H4B 1931   1.240   3.377  10.381  1.2961 -1.1085 -3.8007
   27CHL1    C5 1932   1.175   3.473  10.197 -0.6020 -0.4201 -0.0876
   27CHL1    C6 1933   1.228   3.381  10.125 -0.8476 -0.3388  0.3054
   27CHL1    H6 1934   1.295   3.309  10.175  1.6809  1.3858 -0.4739
   27CHL1    C7 1935   1.217   3.369   9.975 -0.2661 -0.3798 -0.1397
   27CHL1   H7A 1936   1.306   3.338   9.916 -1.8049 -0.7195 -2.3644
   27CHL1   H7B 1937   1.153   3.286   9.939  0.7267 -1.5499  0.7650
   27CHL1    C8 1938   1.157   3.493   9.910  0.5561 -0.4583 -0.2583
   27CHL1    H8 1939   1.233   3.574   9.907 -0.9923  0.9977 -0.5704
   27CHL1   C14 1940   1.104   3.475   9.769  0.3005 -0.0708 -0.2465
   27CHL1   H14 1941   1.021   3.401   9.778  2.0410 -1.7950  1.9685
   27CHL1   C15 1942   1.190   3.399   9.668  0.0420  0.0571  0.5355
   27CHL1  H15A 1943   1.293   3.441   9.667 -0.2194  0.7016  0.7780
   27CHL1  H15B 1944   1.186   3.290   9.691 -2.1550 -0.3611 -1.5879
   27CHL1   C16 1945   1.114   3.420   9.535  0.5584  0.0927  0.7564
   27CHL1  H16A 1946   1.176   3.465   9.454  1.1753 -2.4391 -0.2286
   27CHL1  H16B 1947   1.075   3.327   9.489  0.6141 -0.6034  2.0816
   27CHL1   C17 1948   0.994   3.522   9.567 -0.0695  0.0671  0.1086
   27CHL1   H17 1949   0.903   3.462   9.589 -0.2283 -0.2303 -1.2517
   27CHL1   C13 1950   1.047   3.590   9.698 -0.3962 -0.3947 -0.5039
   27CHL1   C18 1951   1.153   3.696   9.656  1.0495 -0.2780 -0.4362
   27CHL1  H18A 1952   1.190   3.743   9.749  0.9824 -1.1531  0.0445
   27CHL1  H18B 1953   1.241   3.660   9.597  0.9154 -0.0389 -0.7855
   27CHL1  H18C 1954   1.107   3.779   9.599 -1.2431 -1.9846 -1.1540
   27CHL1   C12 1955   0.934   3.647   9.782  0.7585 -0.0305  0.3297
   27CHL1  H12A 1956   0.901   3.740   9.733  0.1575  0.1503  1.0647
   27CHL1  H12B 1957   0.855   3.572   9.804 -0.7270  0.1965 -3.8070
   27CHL1   C11 1958   0.983   3.681   9.925 -0.0923  0.7955  0.2005
   27CHL1  H11A 1959   1.062   3.759   9.918  3.0713 -2.0138  2.8154
   27CHL1  H11B 1960   0.906   3.717   9.997 -0.1047 -0.2955  0.7366
   27CHL1    C9 1961   1.041   3.558   9.993 -0.1328  0.1838  0.2179
   27CHL1    H9 1962   0.961   3.481   9.996 -0.4169  0.3605 -1.9544
   27CHL1   C10 1963   1.082   3.585  10.142  0.0581  0.1631  0.2116
   27CHL1   C19 1964   1.138   3.723  10.149 -0.4202  0.0870 -0.0677
   27CHL1  H19A 1965   1.064   3.803  10.127  0.8069  1.0083 -0.8890
   27CHL1  H19B 1966   1.177   3.757  10.247 -0.1316  0.6860 -0.3884
   27CHL1  H19C 1967   1.221   3.728  10.076  0.4381  1.2559  0.9730
   27CHL1    C1 1968   0.947   3.582  10.219  0.3997 -0.5827 -0.5633
   27CHL1   H1A 1969   0.891   3.674  10.194 -0.3265 -1.2205 -1.3332
   27CHL1   H1B 1970   0.876   3.496  10.212 -0.0483 -0.4433  1.9084
   27CHL1    C2 1971   0.969   3.590  10.374  0.5871 -0.1226 -0.6584
   27CHL1   H2A 1972   0.869   3.592  10.422  0.1837 -1.1866 -1.4302
   27CHL1   H2B 1973   1.005   3.691  10.402 -2.2328  0.0057  2.8313
   27CHL1   C20 1974   0.959   3.613   9.445 -0.3757 -0.5226 -0.2529
   27CHL1   H20 1975   1.050   3.657   9.400 -1.1168  0.1159 -1.1470
   27CHL1   C21 1976   0.857   3.726   9.486  0.0283 -0.2600  1.0668
   27CHL1  H21A 1977   0.765   3.681   9.529 -1.4422  2.1019  0.5414
   27CHL1  H21B 1978   0.831   3.786   9.396 -0.4989  0.3056  1.5924
   27CHL1  H21C 1979   0.900   3.800   9.557 -1.3530  1.0237  0.5958
   27CHL1   C22 1980   0.900   3.520   9.333 -0.0291  0.0791 -0.0931
   27CHL1  H22A 1981   0.974   3.441   9.308  0.4494 -0.8276  3.9052
   27CHL1  H22B 1982   0.822   3.460   9.385 -0.8842  0.7874 -0.5618
   27CHL1   C23 1983   0.856   3.588   9.199  0.4720  0.1016 -0.0385
   27CHL1  H23A 1984   0.777   3.664   9.221  1.7728  1.8392 -1.2123
   27CHL1  H23B 1985   0.943   3.652   9.172  0.9803  0.2797  1.9465
   27CHL1   C24 1986   0.794   3.499   9.096  0.0145  0.1357  0.1052
   27CHL1  H24A 1987   0.869   3.434   9.047 -1.3816 -2.6741  1.5577
   27CHL1  H24B 1988   0.725   3.440   9.161 -0.6492  1.0538  0.2420
   27CHL1   C25 1989   0.719   3.580   8.990  0.3668 -0.0406  0.2762
   27CHL1   H25 1990   0.778   3.669   8.960  0.4216 -0.3771 -0.6302
   27CHL1   C26 1991   0.686   3.501   8.862 -0.1892 -0.0627  0.5582
   27CHL1  H26A 1992   0.627   3.409   8.882 -1.5982  0.7936  0.4017
   27CHL1  H26B 1993   0.609   3.550   8.798 -0.8191 -2.0169 -0.2108
   27CHL1  H26C 1994   0.779   3.480   8.804 -0.9760 -1.5283 -0.1800
   27CHL1   C27 1995   0.582   3.639   9.033 -0.6130 -0.1422  0.6672
   27CHL1  H27A 1996   0.593   3.701   9.124  0.4350 -1.5547  1.5193
   27CHL1  H27B 1997   0.542   3.703   8.951  1.3354  0.2810  0.0219
   27CHL1  H27C 1998   0.514   3.553   9.051 -1.1179  0.0130 -0.4198
   28CHL1    C3 1999   0.129   1.731  10.087  0.1266  0.7416  0.0165
   28CHL1    H3 2000   0.052   1.655  10.064 -0.7911  1.6537  0.0221
   28CHL1    O3 2001   0.134   1.757  10.225  0.7691  0.1732  0.1439
   28CHL1   H3' 2002   0.041   1.771  10.242  0.8033  0.1285  0.3739
   28CHL1    C4 2003   0.259   1.673  10.038  0.9908 -0.4171 -0.0359
   28CHL1   H4A 2004   0.334   1.753  10.058 -0.4349  0.7924  0.5460
   28CHL1   H4B 2005   0.282   1.590  10.108  0.0083 -0.3522  0.3659
   28CHL1    C5 2006   0.256   1.633   9.890  0.0085  0.2373  0.3228
   28CHL1    C6 2007   0.280   1.515   9.837  0.2335  0.1490  0.5902
   28CHL1    H6 2008   0.306   1.436   9.909 -0.9116  0.2225  1.0881
   28CHL1    C7 2009   0.288   1.475   9.689  0.5420 -0.3935 -0.4572
   28CHL1   H7A 2010   0.390   1.432   9.675 -0.0141 -2.4748  1.5370
   28CHL1   H7B 2011   0.214   1.400   9.655 -1.4440  1.6501 -0.7195
   28CHL1    C8 2012   0.274   1.603   9.598  0.4303  0.3497 -0.0690
   28CHL1    H8 2013   0.375   1.648   9.587  0.8750 -1.2469 -3.2363
   28CHL1   C14 2014   0.231   1.565   9.460  0.2737  0.1894  0.3885
   28CHL1   H14 2015   0.131   1.517   9.461  0.6551 -0.6659 -0.6929
   28CHL1   C15 2016   0.309   1.454   9.388  0.0315  0.2728 -0.1045
   28CHL1  H15A 2017   0.414   1.462   9.423 -0.6551  1.5049  1.7494
   28CHL1  H15B 2018   0.271   1.351   9.406  0.9494  0.0359  0.5030
   28CHL1   C16 2019   0.284   1.490   9.238  1.1480 -0.4282 -0.8485
   28CHL1  H16A 2020   0.388   1.501   9.201  2.0239 -0.7225  1.4375
   28CHL1  H16B 2021   0.230   1.414   9.177  0.6115  0.2049 -1.1710
   28CHL1   C17 2022   0.195   1.622   9.233  0.2379 -0.6685  0.1123
   28CHL1   H17 2023   0.091   1.594   9.262  0.2482  2.0498  2.9414
   28CHL1   C13 2024   0.229   1.689   9.363 -0.1579  0.1869 -0.5843
   28CHL1   C18 2025   0.360   1.763   9.363  0.1392  0.6523  0.4976
   28CHL1  H18A 2026   0.443   1.703   9.320 -0.5076 -0.0101  0.1774
   28CHL1  H18B 2027   0.356   1.847   9.291 -1.2370 -1.0268 -1.4330
   28CHL1  H18C 2028   0.383   1.801   9.465 -2.1200  0.8332  0.9775
   28CHL1   C12 2029   0.113   1.775   9.415 -0.6590 -0.6390  0.4184
   28CHL1  H12A 2030   0.098   1.872   9.363 -1.6568 -1.2853 -0.5296
   28CHL1  H12B 2031   0.020   1.714   9.417  0.7538 -2.7907  1.3410
   28CHL1   C11 2032   0.142   1.825   9.555 -0.4297 -0.2405 -0.9401
   28CHL1  H11A 2033   0.213   1.910   9.544 -0.0530 -0.1935  1.6044
   28CHL1  H11B 2034   0.051   1.874   9.594  1.1387  1.7744  0.2938
   28CHL1    C9 2035   0.178   1.710   9.658 -0.1668  0.3525 -0.5189
   28CHL1    H9 2036   0.079   1.660   9.660 -0.6806  1.2082 -2.4946
   28CHL1   C10 2037   0.211   1.754   9.808  0.4020  0.0258  0.6293
   28CHL1   C19 2038   0.324   1.855   9.801 -0.2077 -0.4467  0.0292
   28CHL1  H19A 2039   0.413   1.808   9.753  1.2812  1.3258  1.0034
   28CHL1  H19B 2040   0.310   1.945   9.738  0.2929  1.2184  2.2465
   28CHL1  H19C 2041   0.358   1.897   9.898  0.2381 -0.9081  0.0784
   28CHL1    C1 2042   0.085   1.826   9.868 -0.2889  0.2823  0.1633
   28CHL1   H1A 2043   0.078   1.926   9.818  2.3110  0.3179 -0.1964
   28CHL1   H1B 2044  -0.004   1.766   9.842  1.6725 -0.7585 -4.7823
   28CHL1    C2 2045   0.090   1.859  10.023 -0.5972 -0.3516  0.3849
   28CHL1   H2A 2046  -0.001   1.907  10.063 -0.4416 -0.1459  0.4937
   28CHL1   H2B 2047   0.166   1.941  10.027 -1.3194  0.2998  0.8510
   28CHL1   C20 2048   0.208   1.707   9.104 -0.8420 -0.1483 -0.1630
   28CHL1   H20 2049   0.311   1.749   9.108 -0.2316 -1.7292  1.2053
   28CHL1   C21 2050   0.104   1.820   9.094 -0.3271  0.2809  0.5342
   28CHL1  H21A 2051  -0.001   1.787   9.106 -0.1567 -0.1567  0.8141
   28CHL1  H21B 2052   0.112   1.851   8.987  2.1834 -0.6908  0.3946
   28CHL1  H21C 2053   0.119   1.906   9.164 -2.0452  1.1870 -0.1822
   28CHL1   C22 2054   0.204   1.624   8.967  0.0918  0.3957 -0.5688
   28CHL1  H22A 2055   0.226   1.693   8.883 -1.7421 -1.2734 -2.4710
   28CHL1  H22B 2056   0.291   1.556   8.962  0.1929  0.6005 -1.6429
   28CHL1   C23 2057   0.067   1.547   8.943  0.2603 -0.8742  0.0562
   28CHL1  H23A 2058   0.032   1.488   9.030  0.2894 -1.8800 -0.5947
   28CHL1  H23B 2059  -0.003   1.633   8.931 -0.4276 -1.4863 -0.3882
   28CHL1   C24 2060   0.075   1.449   8.822  1.4630 -0.2856 -0.1324
   28CHL1  H24A 2061   0.066   1.498   8.723  1.9387  0.4496  0.1897
   28CHL1  H24B 2062   0.179   1.412   8.815  1.0405 -1.3940 -0.7284
   28CHL1   C25 2063  -0.025   1.331   8.825  0.3728  0.2155  0.1655
   28CHL1   H25 2064   0.004   1.263   8.908  0.0046 -0.6019 -0.3706
   28CHL1   C26 2065  -0.168   1.375   8.847 -0.0078  0.6945  0.4503
   28CHL1  H26A 2066  -0.180   1.437   8.939 -1.2725 -1.6246  1.8887
   28CHL1  H26B 2067  -0.191   1.429   8.753 -0.7024  0.5194  0.5118
   28CHL1  H26C 2068  -0.236   1.289   8.863 -1.3265  1.6593  0.1349
   28CHL1   C27 2069  -0.022   1.251   8.687  0.5950 -0.2840  0.7516
   28CHL1  H27A 2070  -0.102   1.178   8.667  2.0671 -1.2093 -2.1105
   28CHL1  H27B 2071  -0.032   1.333   8.613 -1.5972 -0.3068  0.9934
   28CHL1  H27C 2072   0.079   1.207   8.673  0.5582 -0.1879  0.1480
   29CHL1    C3 2073   1.304   0.677   6.522 -0.1037  0.2985  0.5621
   29CHL1    H3 2074   1.412   0.658   6.501 -0.1927  0.2500  0.1452
   29CHL1    O3 2075   1.252   0.701   6.391 -0.4967  0.5437  0.2123
   29CHL1   H3' 2076   1.157   0.704   6.405 -0.2738  2.6714  1.3811
   29CHL1    C4 2077   1.234   0.552   6.583  0.3611 -0.3830 -0.0809
   29CHL1   H4A 2078   1.123   0.557   6.577  0.2824  0.5102  1.7674
   29CHL1   H4B 2079   1.242   0.461   6.519 -0.0354 -0.5873  0.1576
   29CHL1    C5 2080   1.270   0.531   6.725 -0.4289 -0.2952  0.0607
   29CHL1    C6 2081   1.325   0.415   6.762  0.5685  0.1983 -0.2362
   29CHL1    H6 2082   1.341   0.339   6.684  0.2327 -1.3949  1.2121
   29CHL1    C7 2083   1.356   0.383   6.900  0.1209  0.0776  0.2804
   29CHL1   H7A 2084   1.340   0.277   6.930 -1.9984  0.5813  1.0485
   29CHL1   H7B 2085   1.464   0.404   6.915  0.5460 -0.3427 -2.0423
   29CHL1    C8 2086   1.272   0.477   7.001  0.2465 -0.2523 -0.6189
   29CHL1    H8 2087   1.164   0.452   6.990 -0.8462  3.3685  1.0055
   29CHL1   C14 2088   1.331   0.460   7.144  0.2156  0.1993  0.1440
   29CHL1   H14 2089   1.437   0.495   7.138  0.3423 -0.3892 -1.3467
   29CHL1   C15 2090   1.326   0.317   7.193  0.0991 -0.6023  0.4792
   29CHL1  H15A 2091   1.226   0.273   7.173  0.3755 -1.8874  1.8692
   29CHL1  H15B 2092   1.391   0.244   7.142 -0.2752 -0.6347  0.0404
   29CHL1   C16 2093   1.349   0.329   7.342 -0.1366  0.3443  0.3042
   29CHL1  H16A 2094   1.272   0.267   7.393 -0.4971 -0.1306 -0.7980
   29CHL1  H16B 2095   1.453   0.294   7.357 -0.6145 -1.9894 -1.5678
   29CHL1   C17 2096   1.324   0.485   7.368  0.1335  0.0191 -0.2480
   29CHL1   H17 2097   1.427   0.527   7.367 -0.9016  2.6359 -2.1471
   29CHL1   C13 2098   1.260   0.545   7.248 -0.0337  0.7418  0.1595
   29CHL1   C18 2099   1.108   0.506   7.265 -0.4041 -0.5951  0.3876
   29CHL1  H18A 2100   1.054   0.522   7.170  1.7322 -1.0568 -0.9620
   29CHL1  H18B 2101   1.092   0.405   7.308  0.3562 -0.9309 -0.1030
   29CHL1  H18C 2102   1.062   0.573   7.341 -2.5464 -0.7373 -0.7749
   29CHL1   C12 2103   1.282   0.698   7.214 -0.1821  0.3258  0.5997
   29CHL1  H12A 2104   1.220   0.755   7.287  0.0376 -0.5092  1.4624
   29CHL1  H12B 2105   1.390   0.723   7.229  0.6318 -2.8689  0.3832
   29CHL1   C11 2106   1.229   0.724   7.070  0.2563 -0.0309  0.1303
   29CHL1  H11A 2107   1.120   0.705   7.070  0.0949  0.7898  1.3432
   29CHL1  H11B 2108   1.234   0.825   7.025 -0.3961 -0.5030 -1.0163
   29CHL1    C9 2109   1.292   0.620   6.962  0.0461 -0.0154 -0.3711
   29CHL1    H9 2110   1.401   0.639   6.956  0.0895 -0.4721 -1.1318
   29CHL1   C10 2111   1.242   0.648   6.816 -0.1820  0.0147 -0.1490
   29CHL1   C19 2112   1.090   0.659   6.816  0.3609 -0.4425 -0.4080
   29CHL1  H19A 2113   1.043   0.577   6.874  0.0080 -0.4874 -0.7561
   29CHL1  H19B 2114   1.054   0.758   6.853  1.4092  0.7528 -2.4696
   29CHL1  H19C 2115   1.036   0.652   6.719 -0.9635 -1.3434  0.3838
   29CHL1    C1 2116   1.307   0.774   6.761 -0.2615 -0.2895  0.6229
   29CHL1   H1A 2117   1.272   0.863   6.818 -1.6363 -0.9640  0.8519
   29CHL1   H1B 2118   1.416   0.782   6.781  0.2321  1.2940 -2.4023
   29CHL1    C2 2119   1.280   0.802   6.610  0.1804 -0.2710  0.4230
   29CHL1   H2A 2120   1.338   0.890   6.578  1.4726 -0.8932  0.9979
   29CHL1   H2B 2121   1.172   0.819   6.592  0.1324 -1.0123 -0.0130
   29CHL1   C20 2122   1.272   0.519   7.514  0.4565 -0.2331  0.6289
   29CHL1   H20 2123   1.169   0.481   7.529  0.6160 -1.0849 -0.4036
   29CHL1   C21 2124   1.254   0.669   7.519  0.2525 -0.2353 -0.0784
   29CHL1  H21A 2125   1.158   0.696   7.470 -1.0690 -3.5386  0.5183
   29CHL1  H21B 2126   1.334   0.731   7.474 -1.4725 -0.4467 -3.6525
   29CHL1  H21C 2127   1.259   0.702   7.625 -1.3799 -2.3997  0.7223
   29CHL1   C22 2128   1.370   0.471   7.619  0.2273  0.3416  1.2934
   29CHL1  H22A 2129   1.400   0.366   7.598 -2.3038 -0.0474 -0.5086
   29CHL1  H22B 2130   1.460   0.536   7.628  0.0258  0.8717 -0.3854
   29CHL1   C23 2131   1.295   0.466   7.758 -0.3136  0.2547  1.0722
   29CHL1  H23A 2132   1.255   0.568   7.778 -1.1068  0.2259 -0.3141
   29CHL1  H23B 2133   1.203   0.403   7.762  0.6077 -1.3058 -1.5990
   29CHL1   C24 2134   1.394   0.427   7.868 -0.0292  0.5666 -0.1826
   29CHL1  H24A 2135   1.448   0.336   7.835 -2.4330 -1.2419  0.7304
   29CHL1  H24B 2136   1.478   0.499   7.874  0.7691 -0.4253  0.6009
   29CHL1   C25 2137   1.321   0.402   7.996  0.4523  0.2324 -0.3587
   29CHL1   H25 2138   1.254   0.314   7.992 -1.0381  1.2630  0.9567
   29CHL1   C26 2139   1.438   0.362   8.088 -0.7411 -0.1580  0.6835
   29CHL1  H26A 2140   1.517   0.440   8.093 -2.2947  1.6131 -1.3270
   29CHL1  H26B 2141   1.399   0.353   8.191  1.3728 -0.2183  1.5018
   29CHL1  H26C 2142   1.496   0.272   8.059 -0.4727  0.0006  0.7270
   29CHL1   C27 2143   1.245   0.519   8.054  0.0031 -0.1428 -0.6157
   29CHL1  H27A 2144   1.316   0.596   8.090  0.4351 -0.5768 -0.5320
   29CHL1  H27B 2145   1.169   0.570   7.991 -0.1420  0.3259 -0.0604
   29CHL1  H27C 2146   1.189   0.487   8.144  0.4747  1.0363  0.1072
   30CHL1    C3 2147   5.883   5.655   7.193 -0.4289 -0.2548  0.0421
   30CHL1    H3 2148   5.797   5.716   7.228 -0.3016 -0.2672  0.3772
   30CHL1    O3 2149   5.842   5.602   7.069 -0.1005  0.3709 -0.2424
   30CHL1   H3' 2150   5.912   5.538   7.051  0.3853  0.5566  0.9069
   30CHL1    C4 2151   5.990   5.762   7.175 -0.1295  0.5323 -0.0189
   30CHL1   H4A 2152   6.068   5.707   7.120 -0.0092 -0.2578  0.9280
   30CHL1   H4B 2153   5.951   5.848   7.116  1.5421  1.3599  0.0485
   30CHL1    C5 2154   6.046   5.815   7.309  0.6014 -0.1574 -0.4863
   30CHL1    C6 2155   6.054   5.948   7.341  0.0374  1.1065  0.0324
   30CHL1    H6 2156   6.016   6.025   7.272  1.8580  1.1591 -0.9391
   30CHL1    C7 2157   6.106   6.003   7.465 -0.5179  0.0795  0.4732
   30CHL1   H7A 2158   6.173   6.091   7.451  0.5533 -0.7975  0.0158
   30CHL1   H7B 2159   6.015   6.044   7.514  0.0435  1.4026  0.4366
   30CHL1    C8 2160   6.178   5.904   7.556  0.1024  0.0096  0.6028
   30CHL1    H8 2161   6.282   5.889   7.518 -0.0458 -0.7436  0.5041
   30CHL1   C14 2162   6.187   5.957   7.702 -0.5003 -0.0433  0.7384
   30CHL1   H14 2163   6.080   5.966   7.732 -1.1521 -0.5017 -1.3862
   30CHL1   C15 2164   6.255   6.093   7.721  0.0185  0.9568 -0.1976
   30CHL1  H15A 2165   6.339   6.107   7.650  0.7245  0.0052  0.4491
   30CHL1  H15B 2166   6.177   6.170   7.705  1.8756  3.7662  3.4281
   30CHL1   C16 2167   6.297   6.092   7.874  0.0464 -0.5134  0.4578
   30CHL1  H16A 2168   6.408   6.103   7.875  0.3493 -3.3795  1.2421
   30CHL1  H16B 2169   6.256   6.174   7.937 -0.6280  1.1998 -2.1405
   30CHL1   C17 2170   6.271   5.948   7.929 -0.4291 -0.5172 -0.2247
   30CHL1   H17 2171   6.166   5.956   7.963 -0.2788  2.9285 -0.3852
   30CHL1   C13 2172   6.263   5.859   7.804  0.2313 -0.1463 -0.1235
   30CHL1   C18 2173   6.405   5.832   7.765  0.9358  0.5409 -0.0971
   30CHL1  H18A 2174   6.468   5.922   7.783 -2.5666  3.2199 -0.6282
   30CHL1  H18B 2175   6.449   5.745   7.817  1.2269 -0.1192 -1.4395
   30CHL1  H18C 2176   6.417   5.814   7.656 -1.8652 -0.1164 -0.3354
   30CHL1   C12 2177   6.185   5.726   7.807 -0.1591 -0.8518 -0.0132
   30CHL1  H12A 2178   6.229   5.653   7.878  1.1580 -1.7156 -1.6686
   30CHL1  H12B 2179   6.084   5.745   7.848 -1.0408  0.5041 -2.6747
   30CHL1   C11 2180   6.173   5.672   7.666  0.7414 -0.5069  0.4555
   30CHL1  H11A 2181   6.272   5.652   7.618  0.7860  1.2319 -0.2036
   30CHL1  H11B 2182   6.118   5.576   7.658 -0.6157  0.4337 -2.2794
   30CHL1    C9 2183   6.106   5.769   7.559 -0.4884 -0.7333 -0.9968
   30CHL1    H9 2184   6.004   5.795   7.594  0.1990  0.2526  0.3171
   30CHL1   C10 2185   6.087   5.707   7.411 -0.0270 -0.1798 -0.0565
   30CHL1   C19 2186   6.222   5.654   7.369 -0.5444 -0.7754  0.1280
   30CHL1  H19A 2187   6.220   5.638   7.259  3.2047  0.5812 -0.2160
   30CHL1  H19B 2188   6.316   5.705   7.400 -1.1500 -0.6798  1.8348
   30CHL1  H19C 2189   6.232   5.555   7.419  1.6123  0.5365  2.3511
   30CHL1    C1 2190   5.978   5.601   7.415  0.1565 -0.0137  0.3837
   30CHL1   H1A 2191   6.002   5.520   7.487  0.0356 -1.5673 -1.3015
   30CHL1   H1B 2192   5.883   5.638   7.459 -1.7067 -0.5006 -3.0983
   30CHL1    C2 2193   5.923   5.541   7.290  0.5431  0.0149  1.1807
   30CHL1   H2A 2194   5.837   5.473   7.310 -1.6555  1.8414 -1.6249
   30CHL1   H2B 2195   6.001   5.479   7.240  1.1737  0.5111  1.5502
   30CHL1   C20 2196   6.355   5.910   8.052  0.6715 -0.0149  0.8313
   30CHL1   H20 2197   6.461   5.898   8.020 -0.2509 -0.6776 -2.1542
   30CHL1   C21 2198   6.317   5.776   8.110  0.1521  0.1377  0.0469
   30CHL1  H21A 2199   6.377   5.749   8.200 -2.2671 -2.2429  1.0227
   30CHL1  H21B 2200   6.322   5.696   8.034 -2.3394 -1.1569  1.1971
   30CHL1  H21C 2201   6.214   5.791   8.149  0.5837  0.9868  0.9055
   30CHL1   C22 2202   6.366   6.027   8.160  0.5435  0.8796  0.4774
   30CHL1  H22A 2203   6.393   6.116   8.099 -0.9623  0.2587 -1.1088
   30CHL1  H22B 2204   6.266   6.042   8.205  0.7656 -0.1143  1.3349
   30CHL1   C23 2205   6.483   6.010   8.270 -0.3325 -0.0514  0.3364
   30CHL1  H23A 2206   6.475   6.087   8.350  1.1688 -1.4937  1.9096
   30CHL1  H23B 2207   6.462   5.912   8.319  0.0086 -0.8028 -1.0161
   30CHL1   C24 2208   6.631   6.008   8.223 -0.9472 -0.1641  0.1752
   30CHL1  H24A 2209   6.684   5.982   8.317 -0.1306  3.5114  0.8410
   30CHL1  H24B 2210   6.655   5.931   8.147  1.4311  0.1753  0.5434
   30CHL1   C25 2211   6.685   6.145   8.171  0.1863 -0.6573  0.0731
   30CHL1   H25 2212   6.628   6.181   8.082  0.0530  0.3162  0.5463
   30CHL1   C26 2213   6.667   6.250   8.283 -0.2239  0.5925  0.5616
   30CHL1  H26A 2214   6.705   6.214   8.381  1.2881  0.5136 -0.0359
   30CHL1  H26B 2215   6.717   6.343   8.250  0.7203 -0.6100 -1.5114
   30CHL1  H26C 2216   6.560   6.275   8.297 -1.0977 -0.9081 -2.9790
   30CHL1   C27 2217   6.828   6.151   8.134  0.2956  0.1354 -0.3530
   30CHL1  H27A 2218   6.842   6.243   8.073 -0.8433 -0.5342 -1.6680
   30CHL1  H27B 2219   6.893   6.151   8.224 -1.5321  0.6153  1.0032
   30CHL1  H27C 2220   6.857   6.071   8.062 -2.1199 -0.9769 -0.1686
   31CHL1    C3 2221   5.977   0.758   6.792  0.1690 -0.1897 -0.6794
   31CHL1    H3 2222   6.059   0.826   6.822 -0.1737  0.8065 -1.9604
   31CHL1    O3 2223   5.993   0.722   6.656 -0.8121 -0.0686  0.1842
   31CHL1   H3' 2224   5.907   0.694   6.625 -0.8742  0.2424  0.0755
   31CHL1    C4 2225   5.969   0.627   6.871 -0.7051  0.2227  0.1073
   31CHL1   H4A 2226   5.892   0.553   6.841 -0.5262  0.2277 -0.3659
   31CHL1   H4B 2227   6.067   0.577   6.852 -0.3111  1.1716 -0.3877
   31CHL1    C5 2228   5.966   0.648   7.017 -0.3026 -0.7151 -0.3197
   31CHL1    C6 2229   6.062   0.606   7.102 -0.3078  0.4473  0.8118
   31CHL1    H6 2230   6.142   0.535   7.074  0.2625  0.6793  1.8196
   31CHL1    C7 2231   6.055   0.616   7.248  0.7100  1.3004  0.3503
   31CHL1   H7A 2232   6.051   0.517   7.298 -0.3177  1.2563  0.2045
   31CHL1   H7B 2233   6.137   0.679   7.289  0.1115  1.3518  1.4782
   31CHL1    C8 2234   5.919   0.680   7.299  0.1601 -0.7620 -0.3469
   31CHL1    H8 2235   5.837   0.606   7.292 -1.5619  1.1244 -0.3002
   31CHL1   C14 2236   5.943   0.730   7.443 -0.1285  0.4718 -0.1382
   31CHL1   H14 2237   6.014   0.816   7.445 -1.5802  1.6759  1.4894
   31CHL1   C15 2238   6.010   0.632   7.546 -0.5322  0.8722 -0.3345
   31CHL1  H15A 2239   5.977   0.527   7.536  1.0325  0.4007 -0.6489
   31CHL1  H15B 2240   6.120   0.640   7.545 -0.4846  0.1589 -1.0055
   31CHL1   C16 2241   5.965   0.689   7.678  0.8780 -0.2703 -0.2236
   31CHL1  H16A 2242   5.902   0.620   7.738 -1.0379  0.7980 -0.9871
   31CHL1  H16B 2243   6.051   0.719   7.742  0.2181  0.6782  0.2316
   31CHL1   C17 2244   5.881   0.819   7.652  0.0224  0.3952  0.6504
   31CHL1   H17 2245   5.953   0.903   7.642 -0.7620  1.1650  1.3239
   31CHL1   C13 2246   5.823   0.790   7.508 -0.1852  0.0844  0.0565
   31CHL1   C18 2247   5.709   0.695   7.523 -0.0806 -0.3449 -0.6538
   31CHL1  H18A 2248   5.672   0.664   7.423  2.0088 -0.4330 -1.4296
   31CHL1  H18B 2249   5.730   0.606   7.585  2.0508 -0.9952 -2.2471
   31CHL1  H18C 2250   5.631   0.745   7.584  0.2034  0.7678 -1.1887
   31CHL1   C12 2251   5.783   0.914   7.419 -0.0407 -0.3386 -0.0950
   31CHL1  H12A 2252   5.706   0.981   7.465  2.1621  2.6869 -0.6476
   31CHL1  H12B 2253   5.877   0.973   7.411 -1.2172  1.3596 -1.8509
   31CHL1   C11 2254   5.763   0.876   7.270  0.5449  0.7604  0.2923
   31CHL1  H11A 2255   5.676   0.809   7.254 -0.0424  2.0253 -1.9112
   31CHL1  H11B 2256   5.759   0.977   7.223  0.7080  0.7682  0.2920
   31CHL1    C9 2257   5.883   0.793   7.203  0.5932 -0.5289 -0.2484
   31CHL1    H9 2258   5.969   0.864   7.205 -0.5945  0.9222 -0.2672
   31CHL1   C10 2259   5.844   0.738   7.067  0.1820 -0.0821 -0.4723
   31CHL1   C19 2260   5.723   0.638   7.063  0.4411  0.2779 -0.3657
   31CHL1  H19A 2261   5.760   0.540   7.099  2.1648  1.5215  1.3437
   31CHL1  H19B 2262   5.641   0.676   7.127  0.7454  1.0778 -0.4518
   31CHL1  H19C 2263   5.689   0.641   6.957 -0.1048 -0.2148 -0.2094
   31CHL1    C1 2264   5.828   0.857   6.967  0.1369 -0.5146  0.2960
   31CHL1   H1A 2265   5.728   0.901   6.988 -0.6363  0.1048 -4.1880
   31CHL1   H1B 2266   5.910   0.929   6.989 -0.2571 -0.3594  1.3046
   31CHL1    C2 2267   5.846   0.832   6.815 -0.0387  0.1345 -0.7303
   31CHL1   H2A 2268   5.839   0.935   6.774 -0.6670 -0.4504 -2.1183
   31CHL1   H2B 2269   5.754   0.777   6.786 -1.5255  1.1768  1.7640
   31CHL1   C20 2270   5.792   0.851   7.773  0.6066  0.1237  0.1336
   31CHL1   H20 2271   5.729   0.763   7.798  0.1154  1.1890  2.8348
   31CHL1   C21 2272   5.695   0.971   7.742 -0.6665 -0.3502  0.3094
   31CHL1  H21A 2273   5.631   1.000   7.829 -1.2009 -2.1997  0.5432
   31CHL1  H21B 2274   5.620   0.951   7.662 -0.0176 -1.1681 -0.0959
   31CHL1  H21C 2275   5.758   1.054   7.704  1.9380 -1.2849  2.4464
   31CHL1   C22 2276   5.877   0.877   7.898 -0.1679  0.3742 -0.2416
   31CHL1  H22A 2277   5.928   0.780   7.919  0.5821  0.9167  0.4860
   31CHL1  H22B 2278   5.963   0.939   7.866  1.8401 -0.9486  2.3774
   31CHL1   C23 2279   5.817   0.941   8.021  0.0741  0.4958 -0.1590
   31CHL1  H23A 2280   5.808   1.051   8.004 -0.6399  0.2422 -1.4861
   31CHL1  H23B 2281   5.724   0.888   8.048  2.4912 -3.1838  1.2787
   31CHL1   C24 2282   5.904   0.900   8.140  0.0390  0.7389 -0.3187
   31CHL1  H24A 2283   5.863   0.803   8.176  2.6657  0.6902  2.7279
   31CHL1  H24B 2284   6.006   0.881   8.102 -0.5594 -0.8797 -1.1335
   31CHL1   C25 2285   5.900   1.012   8.248  0.2984 -0.2923  0.0562
   31CHL1   H25 2286   5.797   1.054   8.254  0.6155  0.4781  0.1883
   31CHL1   C26 2287   5.940   0.957   8.381  0.1181 -0.3771  0.0529
   31CHL1  H26A 2288   6.045   0.924   8.378  0.4517  0.7179 -0.6632
   31CHL1  H26B 2289   5.920   1.024   8.468 -0.1844  2.0852 -1.8317
   31CHL1  H26C 2290   5.883   0.864   8.403 -0.8561 -0.1815 -1.4931
   31CHL1   C27 2291   5.990   1.129   8.207 -0.2412  0.0076  0.3259
   31CHL1  H27A 2292   5.982   1.212   8.280 -1.2673 -0.1283  0.3777
   31CHL1  H27B 2293   5.960   1.177   8.111 -0.4663 -0.7670 -0.0009
   31CHL1  H27C 2294   6.098   1.110   8.194 -0.0363  1.9992 -1.1349
   32CHL1    C3 2295   0.104   5.732   6.871 -0.2004 -0.4881 -0.0638
   32CHL1    H3 2296   0.027   5.659   6.906  0.6866 -1.8460 -0.8960
   32CHL1    O3 2297   0.095   5.748   6.729  0.3907 -0.0338 -0.3943
   32CHL1   H3' 2298   0.122   5.840   6.720  1.1324 -0.1442  0.6010
   32CHL1    C4 2299   0.072   5.869   6.935 -0.2041  0.2912  0.0610
   32CHL1   H4A 2300   0.137   5.954   6.906  0.9602 -0.6657 -0.2077
   32CHL1   H4B 2301  -0.034   5.892   6.911 -0.6729 -0.9278  0.9149
   32CHL1    C5 2302   0.076   5.860   7.088 -0.3676 -0.0322 -0.4426
   32CHL1    C6 2303  -0.019   5.901   7.171  0.1459 -0.7984 -0.2414
   32CHL1    H6 2304  -0.110   5.941   7.122  2.0619  0.8893 -2.5285
   32CHL1    C7 2305  -0.012   5.914   7.315 -0.8766 -0.3934  0.1634
   32CHL1   H7A 2306  -0.053   6.010   7.353  0.1929 -1.2044  3.4706
   32CHL1   H7B 2307  -0.081   5.835   7.351 -4.2418  2.0989 -0.4896
   32CHL1    C8 2308   0.126   5.888   7.375 -0.0859 -0.4139 -0.4397
   32CHL1    H8 2309   0.186   5.981   7.362  0.7985 -0.7889  0.7791
   32CHL1   C14 2310   0.116   5.838   7.516  0.0407  0.0217 -0.7050
   32CHL1   H14 2311   0.065   5.739   7.521  2.3117 -1.4047 -3.8149
   32CHL1   C15 2312   0.048   5.934   7.624 -0.4772  0.0418  0.2361
   32CHL1  H15A 2313   0.075   6.041   7.610 -5.0863  1.0708 -1.4731
   32CHL1  H15B 2314  -0.063   5.931   7.629 -0.5199  2.4399  1.4296
   32CHL1   C16 2315   0.105   5.888   7.759 -0.8749  0.2329 -0.4981
   32CHL1  H16A 2316   0.151   5.975   7.809  0.8336 -0.4041 -0.9230
   32CHL1  H16B 2317   0.018   5.856   7.820 -1.5569  1.3389 -0.8754
   32CHL1   C17 2318   0.212   5.777   7.726  0.3534 -0.3099  0.3356
   32CHL1   H17 2319   0.148   5.687   7.735 -0.7606  0.2711 -1.4922
   32CHL1   C13 2320   0.254   5.796   7.583  0.0196  0.1335  0.0657
   32CHL1   C18 2321   0.349   5.920   7.564  0.0387 -0.5595  0.2109
   32CHL1  H18A 2322   0.448   5.907   7.614  1.4874  1.8564 -1.9427
   32CHL1  H18B 2323   0.371   5.936   7.457  0.3856 -2.3786  0.0018
   32CHL1  H18C 2324   0.311   6.015   7.608  2.3403  1.6220 -2.3289
   32CHL1   C12 2325   0.320   5.687   7.506 -0.6940  0.2108  0.5225
   32CHL1  H12A 2326   0.421   5.669   7.549 -0.3892  0.2397 -0.1774
   32CHL1  H12B 2327   0.264   5.591   7.509  1.5234 -1.1861 -1.4897
   32CHL1   C11 2328   0.322   5.711   7.355  0.1674 -0.0422  0.2788
   32CHL1  H11A 2329   0.413   5.765   7.319 -1.1167  0.3090 -2.5412
   32CHL1  H11B 2330   0.328   5.614   7.301  2.0693  1.4583 -2.3261
   32CHL1    C9 2331   0.196   5.775   7.291  0.0853  0.1304  0.7297
   32CHL1    H9 2332   0.120   5.695   7.305 -0.2756  0.7064  2.1925
   32CHL1   C10 2333   0.211   5.803   7.135 -0.2540 -0.3777  0.0349
   32CHL1   C19 2334   0.325   5.914   7.108 -0.4630 -0.2986 -0.2519
   32CHL1  H19A 2335   0.426   5.872   7.126  0.5707  0.8741 -3.1328
   32CHL1  H19B 2336   0.316   5.940   7.001 -0.8661 -1.1056 -0.4154
   32CHL1  H19C 2337   0.317   6.005   7.173  1.3614 -0.4181  0.1555
   32CHL1    C1 2338   0.248   5.670   7.066  0.1685  0.4959 -0.1196
   32CHL1   H1A 2339   0.354   5.645   7.088 -0.5009 -1.9896  0.4651
   32CHL1   H1B 2340   0.184   5.589   7.108 -0.1465  1.1910  0.7488
   32CHL1    C2 2341   0.238   5.675   6.909  0.2811  0.3914 -0.2108
   32CHL1   H2A 2342   0.256   5.573   6.869  1.0140 -0.1010  1.3178
   32CHL1   H2B 2343   0.319   5.730   6.855  0.7487  2.3151  2.3652
   32CHL1   C20 2344   0.322   5.784   7.831 -0.8950 -0.2841  0.1828
   32CHL1   H20 2345   0.375   5.880   7.815  0.4067 -1.3277 -2.0737
   32CHL1   C21 2346   0.419   5.666   7.810 -0.6068 -0.5351 -0.0414
   32CHL1  H21A 2347   0.362   5.572   7.798  0.1891 -1.4469  2.9542
   32CHL1  H21B 2348   0.485   5.641   7.896  0.0431 -0.4080 -0.4972
   32CHL1  H21C 2349   0.487   5.691   7.726 -0.1995 -1.8002 -0.0932
   32CHL1   C22 2350   0.272   5.763   7.975  0.5257  0.2536 -0.3476
   32CHL1  H22A 2351   0.186   5.831   7.990 -0.4708 -1.3777  1.6140
   32CHL1  H22B 2352   0.234   5.658   7.980 -2.1082  1.2268  1.2509
   32CHL1   C23 2353   0.367   5.805   8.080  0.0321  0.1724 -0.0166
   32CHL1  H23A 2354   0.454   5.736   8.089  0.7294  0.7567 -2.0685
   32CHL1  H23B 2355   0.406   5.905   8.051  1.4450  0.0147  1.2430
   32CHL1   C24 2356   0.302   5.814   8.223 -0.0122  0.0073 -0.0377
   32CHL1  H24A 2357   0.380   5.856   8.290  0.2744 -1.4663  0.5715
   32CHL1  H24B 2358   0.210   5.878   8.222 -1.1000 -1.5095  0.5919
   32CHL1   C25 2359   0.249   5.680   8.263  0.1528 -0.9015 -0.0010
   32CHL1   H25 2360   0.163   5.652   8.200  0.4360 -0.2287 -0.6890
   32CHL1   C26 2361   0.343   5.561   8.264 -0.1130 -0.0512  0.3419
   32CHL1  H26A 2362   0.295   5.462   8.283 -1.0020  0.5591  1.2838
   32CHL1  H26B 2363   0.381   5.544   8.161  0.6046  2.3545  0.1965
   32CHL1  H26C 2364   0.432   5.592   8.323 -0.5575 -1.9522  2.0761
   32CHL1   C27 2365   0.188   5.704   8.404 -0.3835  0.4055 -0.6251
   32CHL1  H27A 2366   0.271   5.738   8.470  0.0692  1.3456 -1.6583
   32CHL1  H27B 2367   0.105   5.776   8.391 -1.1955 -0.5185 -0.5643
   32CHL1  H27C 2368   0.149   5.609   8.446 -0.2687  0.5071 -0.2901
   33CHL1    C3 2369   1.400   6.614   6.751 -0.2853  0.6017  0.2157
   33CHL1    H3 2370   1.495   6.612   6.808  0.0993  1.6421 -0.3802
   33CHL1    O3 2371   1.449   6.602   6.618 -0.4288  0.3270  0.0996
   33CHL1   H3' 2372   1.515   6.670   6.601 -0.8543  0.8258  0.4401
   33CHL1    C4 2373   1.303   6.497   6.785 -0.4662 -0.7299 -1.0868
   33CHL1   H4A 2374   1.214   6.508   6.718 -0.1726 -0.1903 -1.3896
   33CHL1   H4B 2375   1.358   6.403   6.762 -0.1669 -0.5249 -1.2088
   33CHL1    C5 2376   1.257   6.493   6.928 -0.2168  0.0857 -0.1142
   33CHL1    C6 2377   1.274   6.391   7.019 -0.3377 -0.3817  0.6974
   33CHL1    H6 2378   1.321   6.296   6.989  0.8207  0.2577  0.4388
   33CHL1    C7 2379   1.217   6.389   7.151  0.4545 -0.0923 -0.8632
   33CHL1   H7A 2380   1.173   6.288   7.167  0.1742  0.3805  1.5264
   33CHL1   H7B 2381   1.305   6.386   7.218  1.1287  1.3991 -1.6731
   33CHL1    C8 2382   1.129   6.508   7.189  0.4932  0.1594 -0.4629
   33CHL1    H8 2383   1.029   6.496   7.142 -0.4240  1.0854  1.2162
   33CHL1   C14 2384   1.135   6.528   7.339  0.0932 -0.7822 -0.1672
   33CHL1   H14 2385   1.237   6.557   7.371 -0.8358  1.2074  1.0990
   33CHL1   C15 2386   1.097   6.396   7.418  0.2492 -0.3340 -0.7922
   33CHL1  H15A 2387   1.015   6.349   7.360 -0.4841 -0.6340  0.4724
   33CHL1  H15B 2388   1.176   6.322   7.442 -0.5456  0.0154  3.2822
   33CHL1   C16 2389   1.030   6.449   7.547 -0.4071  0.3955 -0.3048
   33CHL1  H16A 2390   0.921   6.430   7.551 -0.1250 -1.1805  0.2675
   33CHL1  H16B 2391   1.076   6.396   7.633 -0.8474 -0.9803 -0.9141
   33CHL1   C17 2392   1.038   6.603   7.540 -0.0137  0.0484  0.2666
   33CHL1   H17 2393   1.142   6.619   7.574 -0.3303  4.1020 -0.4218
   33CHL1   C13 2394   1.039   6.636   7.390 -0.5249  0.3446 -0.3349
   33CHL1   C18 2395   0.896   6.611   7.341 -0.2419  0.1167 -0.2639
   33CHL1  H18A 2396   0.838   6.536   7.400 -0.3058  1.2554  1.1525
   33CHL1  H18B 2397   0.834   6.703   7.334 -0.4963 -0.1827 -2.3266
   33CHL1  H18C 2398   0.880   6.571   7.239  0.5236 -0.7861 -0.0377
   33CHL1   C12 2399   1.096   6.766   7.339  1.2791 -0.5109  0.0190
   33CHL1  H12A 2400   1.041   6.856   7.374  1.5604  0.3730 -1.7859
   33CHL1  H12B 2401   1.200   6.769   7.379  1.3894 -0.9332 -0.2427
   33CHL1   C11 2402   1.114   6.764   7.187  0.4906 -0.4922  0.0475
   33CHL1  H11A 2403   1.017   6.776   7.134 -0.5162  0.2616  2.0432
   33CHL1  H11B 2404   1.177   6.849   7.151 -1.0012 -0.0116 -1.5193
   33CHL1    C9 2405   1.184   6.632   7.129  0.0361  0.2157  0.0902
   33CHL1    H9 2406   1.288   6.637   7.168  0.4483 -0.9860 -0.8180
   33CHL1   C10 2407   1.192   6.630   6.973  0.2013  1.1864  0.6434
   33CHL1   C19 2408   1.048   6.635   6.913 -0.6110 -0.0836  0.0887
   33CHL1  H19A 2409   1.038   6.621   6.803 -0.0817  0.0072  0.0301
   33CHL1  H19B 2410   0.980   6.555   6.949 -0.4508  0.0774  0.7641
   33CHL1  H19C 2411   0.996   6.731   6.935 -0.3073 -0.1147  0.9620
   33CHL1    C1 2412   1.284   6.746   6.922 -0.3345  0.1010 -0.3789
   33CHL1   H1A 2413   1.233   6.844   6.938  0.8583  0.6952 -0.1568
   33CHL1   H1B 2414   1.372   6.772   6.985  1.4243 -2.2891 -1.8054
   33CHL1    C2 2415   1.324   6.746   6.775  0.2581 -0.0443 -0.5423
   33CHL1   H2A 2416   1.388   6.831   6.743  1.6194 -0.6894  0.4407
   33CHL1   H2B 2417   1.225   6.744   6.724 -0.8140  1.9807  1.4167
   33CHL1   C20 2418   0.950   6.677   7.636  0.1782 -0.0830  0.1258
   33CHL1   H20 2419   0.850   6.696   7.590  0.5578  2.2903  0.2265
   33CHL1   C21 2420   1.001   6.822   7.662  0.1267  0.1955  0.3111
   33CHL1  H21A 2421   0.962   6.875   7.751 -0.6746  0.0592  0.0462
   33CHL1  H21B 2422   0.993   6.882   7.569  0.7355  0.6637  0.5612
   33CHL1  H21C 2423   1.112   6.817   7.676  0.0702 -0.0115  0.7029
   33CHL1   C22 2424   0.931   6.604   7.775 -0.0378  0.2301  0.0189
   33CHL1  H22A 2425   0.859   6.655   7.842  1.6288  1.2895  1.0254
   33CHL1  H22B 2426   0.877   6.508   7.759 -2.2463  1.7275 -1.9294
   33CHL1   C23 2427   1.058   6.569   7.863  0.1988 -0.1788  0.0931
   33CHL1  H23A 2428   1.131   6.526   7.792  0.7849 -1.2210  1.3011
   33CHL1  H23B 2429   1.100   6.664   7.903 -1.1756  0.2014  0.6749
   33CHL1   C24 2430   1.026   6.478   7.978  0.6197 -0.2009 -0.2941
   33CHL1  H24A 2431   1.117   6.472   8.042 -0.2398 -1.4690  0.8649
   33CHL1  H24B 2432   0.943   6.531   8.030  0.1480 -0.4385 -0.8049
   33CHL1   C25 2433   0.969   6.338   7.951  0.5823  0.4299  0.2180
   33CHL1   H25 2434   0.882   6.350   7.884 -0.4699  0.8820  1.6466
   33CHL1   C26 2435   1.073   6.239   7.905 -0.3818  0.2687  0.5661
   33CHL1  H26A 2436   1.050   6.131   7.917  1.2232 -0.2099 -0.4400
   33CHL1  H26B 2437   1.111   6.255   7.801  0.2557 -1.8207  0.4552
   33CHL1  H26C 2438   1.167   6.250   7.963  0.2456 -1.4980 -0.0711
   33CHL1   C27 2439   0.899   6.287   8.078 -0.1465  0.1878 -0.2109
   33CHL1  H27A 2440   0.977   6.266   8.154 -1.5752  0.0369  1.2269
   33CHL1  H27B 2441   0.830   6.365   8.115  2.0606  1.8907  0.3997
   33CHL1  H27C 2442   0.845   6.192   8.059  1.3202  0.0143 -4.0710
   34CHL1    C3 2443   1.734   4.397   7.200 -0.8604 -0.3233  0.5051
   34CHL1    H3 2444   1.845   4.400   7.210 -0.6656 -0.7428 -1.2678
   34CHL1    O3 2445   1.710   4.392   7.060  0.4568 -0.0470 -0.3400
   34CHL1   H3' 2446   1.720   4.301   7.031  2.2599 -0.1772  0.6697
   34CHL1    C4 2447   1.672   4.279   7.270  0.3148 -0.2573  0.4215
   34CHL1   H4A 2448   1.574   4.260   7.221 -0.0695 -0.5874  1.3178
   34CHL1   H4B 2449   1.725   4.191   7.229  0.0085 -1.4632  2.5556
   34CHL1    C5 2450   1.664   4.278   7.421 -0.1112  0.0836  0.1911
   34CHL1    C6 2451   1.722   4.186   7.493  0.1057 -0.7078  0.4035
   34CHL1    H6 2452   1.769   4.102   7.440 -2.4497 -1.6054 -0.5101
   34CHL1    C7 2453   1.715   4.171   7.645  0.9966  0.3128  0.8493
   34CHL1   H7A 2454   1.706   4.065   7.678 -3.0875 -0.1103 -1.2616
   34CHL1   H7B 2455   1.808   4.214   7.688 -0.1909  3.9581 -0.0599
   34CHL1    C8 2456   1.602   4.264   7.704 -0.3672 -0.2775 -0.5571
   34CHL1    H8 2457   1.506   4.215   7.676  0.3118 -1.0733 -1.5434
   34CHL1   C14 2458   1.623   4.279   7.852 -0.1428 -0.1020  1.3579
   34CHL1   H14 2459   1.721   4.326   7.872  0.3483  0.2899 -1.6580
   34CHL1   C15 2460   1.633   4.155   7.939 -0.4960 -0.2277 -0.1700
   34CHL1  H15A 2461   1.557   4.080   7.908 -1.1636 -0.3255  1.6401
   34CHL1  H15B 2462   1.731   4.103   7.939 -0.4497 -0.1447  0.3940
   34CHL1   C16 2463   1.601   4.205   8.080  0.6959 -0.5328  0.1138
   34CHL1  H16A 2464   1.522   4.137   8.119 -0.8002  1.3594  0.4342
   34CHL1  H16B 2465   1.689   4.205   8.147  1.5481  2.0305 -0.9330
   34CHL1   C17 2466   1.562   4.366   8.068 -0.0306 -0.5090  0.8912
   34CHL1   H17 2467   1.652   4.428   8.084  1.1627 -1.7053 -0.9789
   34CHL1   C13 2468   1.526   4.375   7.916  0.6234 -0.3097  0.0178
   34CHL1   C18 2469   1.383   4.313   7.901 -0.9649 -0.4602  0.1915
   34CHL1  H18A 2470   1.367   4.216   7.954  1.4572 -1.1221 -0.2301
   34CHL1  H18B 2471   1.307   4.384   7.939  0.2462  1.0428 -0.1371
   34CHL1  H18C 2472   1.360   4.306   7.792 -0.3156  0.6993 -0.0288
   34CHL1   C12 2473   1.537   4.516   7.854  0.0576 -0.1383  0.0892
   34CHL1  H12A 2474   1.459   4.586   7.890  1.8101  1.4920  0.7747
   34CHL1  H12B 2475   1.636   4.563   7.871  0.2723 -0.5823  0.0828
   34CHL1   C11 2476   1.517   4.507   7.699 -0.1670 -0.0188  0.1743
   34CHL1  H11A 2477   1.411   4.477   7.686 -0.0030  0.0388 -1.4453
   34CHL1  H11B 2478   1.512   4.610   7.657 -1.5242 -0.7517 -1.5367
   34CHL1    C9 2479   1.612   4.406   7.634 -0.8529 -0.8487  0.2692
   34CHL1    H9 2480   1.713   4.448   7.649 -1.4821  0.6742  0.3758
   34CHL1   C10 2481   1.597   4.403   7.477 -0.3357  0.8273 -0.0323
   34CHL1   C19 2482   1.443   4.398   7.436  0.1922 -0.6245  0.0749
   34CHL1  H19A 2483   1.378   4.470   7.491 -0.0532 -1.4950  0.9369
   34CHL1  H19B 2484   1.420   4.426   7.331 -0.7865  0.5633  0.5873
   34CHL1  H19C 2485   1.409   4.293   7.449  1.3495 -0.8356  1.6059
   34CHL1    C1 2486   1.649   4.533   7.410 -0.1087  0.0040 -0.5307
   34CHL1   H1A 2487   1.589   4.622   7.437  0.9762  0.3742  0.7681
   34CHL1   H1B 2488   1.743   4.554   7.467 -0.7244  4.4819 -0.9841
   34CHL1    C2 2489   1.668   4.524   7.253 -0.1332 -0.5291 -0.4527
   34CHL1   H2A 2490   1.733   4.612   7.232  1.8922 -2.1753 -1.3313
   34CHL1   H2B 2491   1.572   4.530   7.198  0.1967  1.0773 -0.8776
   34CHL1   C20 2492   1.457   4.403   8.175  0.4724 -0.4414 -0.3649
   34CHL1   H20 2493   1.362   4.345   8.174  0.6712 -0.9019  2.4518
   34CHL1   C21 2494   1.430   4.552   8.164  0.0055 -0.3537  0.6687
   34CHL1  H21A 2495   1.523   4.613   8.156 -0.0842 -0.0939  1.4571
   34CHL1  H21B 2496   1.386   4.598   8.256 -1.1325 -0.3689  0.1379
   34CHL1  H21C 2497   1.357   4.580   8.085 -0.7745  0.1971  1.5640
   34CHL1   C22 2498   1.517   4.357   8.309  0.2593 -1.0960  0.1326
   34CHL1  H22A 2499   1.538   4.249   8.324  1.3434 -0.8848  0.1731
   34CHL1  H22B 2500   1.611   4.416   8.321  0.1599 -0.9509  0.1978
   34CHL1   C23 2501   1.435   4.385   8.436  0.6031 -0.4972 -0.0455
   34CHL1  H23A 2502   1.513   4.412   8.510 -1.9159  0.8266  2.1951
   34CHL1  H23B 2503   1.368   4.473   8.438  0.8979 -0.2510 -0.8225
   34CHL1   C24 2504   1.350   4.262   8.491  0.4164 -0.3280  0.3252
   34CHL1  H24A 2505   1.280   4.231   8.411  0.3617 -0.5457  0.4572
   34CHL1  H24B 2506   1.420   4.181   8.520 -2.1900 -2.6239  0.3101
   34CHL1   C25 2507   1.277   4.310   8.623  0.4847  0.4812 -0.2179
   34CHL1   H25 2508   1.214   4.398   8.599  0.7190  1.1768  1.6775
   34CHL1   C26 2509   1.184   4.193   8.670  0.6281  0.3897 -0.3362
   34CHL1  H26A 2510   1.101   4.177   8.598  1.6686  0.4457 -1.5748
   34CHL1  H26B 2511   1.240   4.103   8.702 -0.0129 -1.0967 -3.1829
   34CHL1  H26C 2512   1.123   4.209   8.761 -0.9363 -0.2380 -1.2499
   34CHL1   C27 2513   1.364   4.342   8.738 -0.4870 -0.2334  0.3363
   34CHL1  H27A 2514   1.426   4.253   8.760  0.9527  0.5039 -0.6208
   34CHL1  H27B 2515   1.435   4.426   8.720 -1.3701  1.1096  2.8597
   34CHL1  H27C 2516   1.306   4.353   8.832  1.4678  0.1669  1.5323
   35CHL1    C3 2517   4.863   5.718   7.171  0.6519  0.2291  0.3728
   35CHL1    H3 2518   4.844   5.828   7.171  0.3447  0.1915  2.4255
   35CHL1    O3 2519   4.830   5.679   7.042  0.1329  0.7343  0.2667
   35CHL1   H3' 2520   4.823   5.583   7.039  1.1212  0.7018 -1.9704
   35CHL1    C4 2521   5.007   5.691   7.196 -0.2490  0.6987 -0.1579
   35CHL1   H4A 2522   5.033   5.585   7.177 -0.0105  0.3485  2.0453
   35CHL1   H4B 2523   5.070   5.743   7.120  1.3927  0.9676  1.3522
   35CHL1    C5 2524   5.052   5.727   7.336 -0.1386 -0.1729 -0.0257
   35CHL1    C6 2525   5.145   5.818   7.358  0.4783 -0.1146 -0.3992
   35CHL1    H6 2526   5.191   5.869   7.273  0.4232  1.6856  0.6331
   35CHL1    C7 2527   5.195   5.841   7.500 -0.1294 -0.4600  0.3422
   35CHL1   H7A 2528   5.305   5.837   7.507  0.1552  2.5800 -1.6440
   35CHL1   H7B 2529   5.174   5.949   7.517  2.6112  0.0365  0.7635
   35CHL1    C8 2530   5.159   5.732   7.605 -0.4419 -0.1413 -0.1800
   35CHL1    H8 2531   5.225   5.643   7.591 -1.2201 -1.2016  2.5356
   35CHL1   C14 2532   5.181   5.792   7.745  0.1537 -0.1556 -0.2993
   35CHL1   H14 2533   5.119   5.885   7.745  0.5824  0.1347 -1.1348
   35CHL1   C15 2534   5.320   5.852   7.777 -0.0853 -0.2049  0.1842
   35CHL1  H15A 2535   5.389   5.775   7.735 -0.0628  0.0811 -0.2971
   35CHL1  H15B 2536   5.343   5.952   7.735  1.3128 -0.5288  0.1506
   35CHL1   C16 2537   5.318   5.853   7.930 -0.0206  0.3874 -0.2358
   35CHL1  H16A 2538   5.403   5.787   7.958  0.9666  1.7766  0.1034
   35CHL1  H16B 2539   5.342   5.953   7.973 -1.8128  0.5982  0.3028
   35CHL1   C17 2540   5.182   5.805   7.977  0.7037 -0.1398  1.2772
   35CHL1   H17 2541   5.115   5.892   7.960  2.0195  0.7159  0.3636
   35CHL1   C13 2542   5.143   5.703   7.862 -0.2996 -0.2557 -0.0821
   35CHL1   C18 2543   5.236   5.576   7.878 -0.0583 -0.4047 -0.0464
   35CHL1  H18A 2544   5.201   5.516   7.965  0.9300  0.4939  0.9974
   35CHL1  H18B 2545   5.233   5.515   7.786 -1.3710 -3.4906  1.9905
   35CHL1  H18C 2546   5.342   5.599   7.905 -1.3861  2.8327  2.8297
   35CHL1   C12 2547   4.993   5.659   7.852 -0.1514  0.1515 -0.1328
   35CHL1  H12A 2548   4.973   5.583   7.930  1.2537 -1.6124 -1.4571
   35CHL1  H12B 2549   4.923   5.745   7.865 -1.7473 -1.1918  0.4203
   35CHL1   C11 2550   4.968   5.600   7.707  0.8374 -0.1851  0.3588
   35CHL1  H11A 2551   5.025   5.505   7.698 -0.5189 -1.0273  0.4461
   35CHL1  H11B 2552   4.859   5.592   7.683  1.0329  0.2676 -0.7432
   35CHL1    C9 2553   5.014   5.691   7.590 -1.0683  0.8379  0.9295
   35CHL1    H9 2554   4.949   5.780   7.605  0.1665  2.4250 -2.6454
   35CHL1   C10 2555   4.976   5.642   7.448  0.4814 -0.3823  0.2544
   35CHL1   C19 2556   5.019   5.491   7.440  0.1442  0.5737 -0.4769
   35CHL1  H19A 2557   4.960   5.425   7.507  0.4855  1.4002  0.6514
   35CHL1  H19B 2558   5.010   5.457   7.334  4.1563 -0.6330 -0.5072
   35CHL1  H19C 2559   5.123   5.482   7.478  0.1209 -1.3915 -0.8081
   35CHL1    C1 2560   4.822   5.650   7.416  0.0093  0.8906 -0.1797
   35CHL1   H1A 2561   4.759   5.589   7.484  1.5141 -0.7005 -0.1483
   35CHL1   H1B 2562   4.795   5.753   7.445 -2.4525  0.1007  0.4713
   35CHL1    C2 2563   4.779   5.631   7.269  0.8183 -0.5080  0.3750
   35CHL1   H2A 2564   4.671   5.658   7.263  1.0564  0.4236  0.2370
   35CHL1   H2B 2565   4.796   5.521   7.258  1.5085 -0.2441 -1.2918
   35CHL1   C20 2566   5.168   5.768   8.126 -0.4550 -0.0097  1.0611
   35CHL1   H20 2567   5.204   5.664   8.142 -3.2823 -1.0808  0.7992
   35CHL1   C21 2568   5.018   5.767   8.175  0.4497 -0.1260  0.0076
   35CHL1  H21A 2569   4.972   5.694   8.106  1.6922 -0.0805 -0.8973
   35CHL1  H21B 2570   4.981   5.865   8.140 -1.8800 -1.4179 -1.2599
   35CHL1  H21C 2571   5.009   5.743   8.283 -1.2521 -1.7696 -0.4864
   35CHL1   C22 2572   5.256   5.867   8.209 -0.2432  0.1242  0.3667
   35CHL1  H22A 2573   5.363   5.873   8.179 -0.1328  0.1749  0.7634
   35CHL1  H22B 2574   5.218   5.970   8.192 -0.8325 -0.2237 -0.4136
   35CHL1   C23 2575   5.257   5.842   8.359 -0.1530  0.0396  0.8374
   35CHL1  H23A 2576   5.154   5.856   8.396 -0.1632 -1.6218  1.4806
   35CHL1  H23B 2577   5.287   5.740   8.391  0.2980  0.4197  1.6456
   35CHL1   C24 2578   5.363   5.932   8.428 -0.2033  0.0632 -0.1226
   35CHL1  H24A 2579   5.383   5.898   8.532 -0.7941  1.4887  0.4654
   35CHL1  H24B 2580   5.458   5.931   8.371  0.3219  0.3114  0.7432
   35CHL1   C25 2581   5.322   6.084   8.432 -0.4401 -0.4007 -1.1333
   35CHL1   H25 2582   5.349   6.126   8.333  0.2016 -2.1841 -1.7365
   35CHL1   C26 2583   5.169   6.106   8.453  0.2739 -0.2864 -0.0472
   35CHL1  H26A 2584   5.112   6.074   8.364  1.3190  0.2904 -0.9274
   35CHL1  H26B 2585   5.137   6.052   8.545  2.2891 -0.6142  0.4879
   35CHL1  H26C 2586   5.153   6.213   8.477 -1.3996 -0.3294 -0.9470
   35CHL1   C27 2587   5.400   6.159   8.550  0.7276 -0.3651  0.6120
   35CHL1  H27A 2588   5.403   6.116   8.653 -0.2269 -2.6255 -0.2690
   35CHL1  H27B 2589   5.360   6.262   8.555  0.9696 -0.3308  2.1118
   35CHL1  H27C 2590   5.504   6.157   8.509  0.7899  1.5449  0.6229
   36CHL1    C3 2591   5.899   4.875   7.028 -0.6671 -0.0463 -0.0459
   36CHL1    H3 2592   5.857   4.774   7.047 -1.2544  0.3463  0.7784
   36CHL1    O3 2593   5.915   4.897   6.889  0.1985  0.4000 -0.2415
   36CHL1   H3' 2594   5.849   4.845   6.843 -0.4297 -0.0078  1.0930
   36CHL1    C4 2595   5.799   4.974   7.078 -0.4814 -0.4129  0.4634
   36CHL1   H4A 2596   5.835   5.077   7.059 -0.6158 -0.2111  1.2608
   36CHL1   H4B 2597   5.704   4.954   7.023 -0.8217 -0.9930  1.2521
   36CHL1    C5 2598   5.777   4.968   7.228  0.1763  0.8037 -0.2362
   36CHL1    C6 2599   5.659   4.953   7.285  0.5134 -0.0113 -0.3287
   36CHL1    H6 2600   5.572   4.944   7.220 -0.6488  1.9139  0.9268
   36CHL1    C7 2601   5.627   4.935   7.437  0.2436 -0.4166  0.9169
   36CHL1   H7A 2602   5.542   4.998   7.471 -0.3220  0.0283 -1.2671
   36CHL1   H7B 2603   5.611   4.828   7.462  1.2851 -0.1594  2.7663
   36CHL1    C8 2604   5.751   4.981   7.520  0.1234  0.0240 -0.9132
   36CHL1    H8 2605   5.754   5.092   7.506  0.4967  0.2422  0.8239
   36CHL1   C14 2606   5.740   4.953   7.670  0.1608 -0.0368 -0.6998
   36CHL1   H14 2607   5.730   4.842   7.678  2.8672 -0.2966 -0.3239
   36CHL1   C15 2608   5.610   4.995   7.742 -0.3825  0.0336  0.4393
   36CHL1  H15A 2609   5.590   5.102   7.725  0.6592  0.2146  0.3364
   36CHL1  H15B 2610   5.522   4.941   7.700 -2.3841  2.1610  1.8051
   36CHL1   C16 2611   5.638   4.975   7.895 -0.4212 -0.7055  0.0969
   36CHL1  H16A 2612   5.613   5.073   7.941  0.1408  0.3950 -1.9365
   36CHL1  H16B 2613   5.589   4.886   7.941  0.0642 -0.9238  0.1906
   36CHL1   C17 2614   5.797   4.958   7.897 -0.5006  0.1738 -0.0036
   36CHL1   H17 2615   5.813   4.848   7.900  0.5281  0.3299  0.1622
   36CHL1   C13 2616   5.848   5.004   7.764 -0.7549  0.0900 -0.3559
   36CHL1   C18 2617   5.857   5.157   7.759 -0.2993 -0.0888  0.2387
   36CHL1  H18A 2618   5.777   5.215   7.808 -0.4330 -0.7923  0.8574
   36CHL1  H18B 2619   5.954   5.185   7.806 -1.0377 -0.2164  1.8606
   36CHL1  H18C 2620   5.869   5.198   7.656 -1.5677 -0.6214 -0.1319
   36CHL1   C12 2621   5.984   4.945   7.713 -0.5113  0.8109 -0.0762
   36CHL1  H12A 2622   6.068   4.995   7.766 -1.1579  1.0873  0.7000
   36CHL1  H12B 2623   5.990   4.837   7.737  0.3319  0.9665  0.4444
   36CHL1   C11 2624   6.010   4.989   7.565 -0.8751 -0.4725  0.4049
   36CHL1  H11A 2625   6.026   5.099   7.561 -0.9300 -0.4333  1.1637
   36CHL1  H11B 2626   6.108   4.945   7.537  0.2508  1.7065  0.7623
   36CHL1    C9 2627   5.890   4.942   7.466  0.4905  0.7079 -0.5957
   36CHL1    H9 2628   5.894   4.831   7.472  1.3898  0.5891 -2.9273
   36CHL1   C10 2629   5.908   4.978   7.316 -0.1867  0.6790 -0.0127
   36CHL1   C19 2630   5.967   5.125   7.312 -0.4439  0.2787  0.3545
   36CHL1  H19A 2631   6.070   5.122   7.353  0.3966  1.1388 -1.6283
   36CHL1  H19B 2632   5.973   5.167   7.210 -0.9310  1.5267  0.8233
   36CHL1  H19C 2633   5.898   5.195   7.364 -0.9175 -0.8414  1.2652
   36CHL1    C1 2634   6.025   4.897   7.253  0.3401  0.5557  0.1649
   36CHL1   H1A 2635   6.125   4.938   7.277  0.6610  1.5757 -2.6440
   36CHL1   H1B 2636   6.024   4.790   7.279  0.8086 -0.0921 -2.3268
   36CHL1    C2 2637   6.035   4.901   7.099  0.9413  0.0725 -0.3414
   36CHL1   H2A 2638   6.104   4.822   7.061  0.5819 -0.7238  0.6253
   36CHL1   H2B 2639   6.065   5.002   7.064  0.7062 -0.8455 -3.3159
   36CHL1   C20 2640   5.856   5.009   8.029 -0.0625 -0.2732 -0.3829
   36CHL1   H20 2641   5.832   5.116   8.048  1.1835  0.1582 -1.1915
   36CHL1   C21 2642   6.012   5.006   8.026 -0.0356  0.1333  0.3784
   36CHL1  H21A 2643   6.035   4.897   8.022  0.6309  0.3303 -2.0824
   36CHL1  H21B 2644   6.054   5.045   8.121 -0.5712  1.6260  0.0106
   36CHL1  H21C 2645   6.059   5.067   7.946 -0.1503  1.0842  1.0308
   36CHL1   C22 2646   5.807   4.925   8.148  0.0262  0.0748  0.2283
   36CHL1  H22A 2647   5.696   4.918   8.147  0.0922 -1.8590  1.7582
   36CHL1  H22B 2648   5.848   4.821   8.140 -1.9227 -0.6823 -0.1285
   36CHL1   C23 2649   5.845   4.991   8.287 -0.1543 -0.1536  0.3775
   36CHL1  H23A 2650   5.954   4.988   8.305 -0.2433 -0.3324  0.8824
   36CHL1  H23B 2651   5.818   5.099   8.286 -2.8543 -0.7781 -0.3889
   36CHL1   C24 2652   5.778   4.923   8.410 -0.0312  0.2154  0.3169
   36CHL1  H24A 2653   5.674   4.962   8.418 -0.3075 -0.5767  0.5886
   36CHL1  H24B 2654   5.760   4.814   8.397  0.4466  0.1327  0.3571
   36CHL1   C25 2655   5.857   4.953   8.540  0.5669  0.2417  0.2103
   36CHL1   H25 2656   5.962   4.930   8.516 -0.1758 -2.4162 -0.5907
   36CHL1   C26 2657   5.843   5.097   8.578  0.3831  0.1148 -0.0551
   36CHL1  H26A 2658   5.735   5.120   8.580  0.3492  0.4566 -3.4289
   36CHL1  H26B 2659   5.872   5.108   8.685  1.6254  0.0438 -0.3807
   36CHL1  H26C 2660   5.896   5.161   8.505  0.2425 -0.5766 -0.7680
   36CHL1   C27 2661   5.800   4.861   8.649 -0.0494  0.1110  0.1253
   36CHL1  H27A 2662   5.693   4.873   8.676  0.1875  2.9190 -0.0259
   36CHL1  H27B 2663   5.816   4.756   8.618  0.5253  0.2140  0.0569
   36CHL1  H27C 2664   5.852   4.872   8.746 -1.7677  0.7670  0.9958
   37CHL1    C3 2665   2.333   0.502   7.049 -0.1734  0.4493 -0.2847
   37CHL1    H3 2666   2.405   0.586   7.038 -0.5031  0.5473 -1.7748
   37CHL1    O3 2667   2.278   0.480   6.927 -0.1165  0.8103 -0.0140
   37CHL1   H3' 2668   2.211   0.414   6.947 -2.0352  2.4742 -0.6800
   37CHL1    C4 2669   2.412   0.376   7.088  0.7899  0.0925 -0.3146
   37CHL1   H4A 2670   2.344   0.291   7.070 -0.2945  0.7293  0.7091
   37CHL1   H4B 2671   2.495   0.363   7.015  0.7436  0.6473 -0.4726
   37CHL1    C5 2672   2.453   0.372   7.234  0.4088 -0.3413  0.2592
   37CHL1    C6 2673   2.580   0.354   7.266 -0.0986 -0.0700  0.6202
   37CHL1    H6 2674   2.645   0.324   7.182 -0.7232 -0.1706  0.1720
   37CHL1    C7 2675   2.633   0.356   7.407 -0.4014  0.0720  0.0827
   37CHL1   H7A 2676   2.707   0.274   7.410 -0.2976  0.0608 -2.1038
   37CHL1   H7B 2677   2.685   0.452   7.432 -1.9789  0.8285  0.4989
   37CHL1    C8 2678   2.511   0.336   7.504  0.0773 -0.1185 -0.6070
   37CHL1    H8 2679   2.472   0.233   7.486 -1.6339  0.5084 -0.5189
   37CHL1   C14 2680   2.553   0.345   7.646  0.0128  0.2707  0.4424
   37CHL1   H14 2681   2.596   0.447   7.655  1.3358  0.0870 -3.0343
   37CHL1   C15 2682   2.653   0.228   7.686  0.6206 -0.4739 -0.0112
   37CHL1  H15A 2683   2.636   0.129   7.639 -0.7888  0.1270 -0.7976
   37CHL1  H15B 2684   2.747   0.264   7.639  1.0784  0.2037  1.3989
   37CHL1   C16 2685   2.655   0.237   7.840 -0.5250  0.3140 -0.3817
   37CHL1  H16A 2686   2.659   0.138   7.889 -1.3387  1.6894  2.6104
   37CHL1  H16B 2687   2.746   0.294   7.870  0.1005 -1.0102  0.2701
   37CHL1   C17 2688   2.527   0.320   7.887  0.0187  0.0688  0.3031
   37CHL1   H17 2689   2.562   0.423   7.908  1.6538 -0.4767  0.2788
   37CHL1   C13 2690   2.441   0.325   7.757 -0.5459 -0.1325 -0.4002
   37CHL1   C18 2691   2.372   0.185   7.737 -0.1916  0.0484 -0.0071
   37CHL1  H18A 2692   2.347   0.167   7.630 -1.8816  2.8096 -0.1320
   37CHL1  H18B 2693   2.437   0.103   7.774 -1.5769 -1.1874 -0.2854
   37CHL1  H18C 2694   2.275   0.188   7.791  0.2013 -2.5013  0.9123
   37CHL1   C12 2695   2.351   0.447   7.739  0.0094 -0.1516  0.5609
   37CHL1  H12A 2696   2.270   0.465   7.813  0.9136  2.5740  0.9434
   37CHL1  H12B 2697   2.417   0.537   7.746  0.8252 -0.5839 -1.2891
   37CHL1   C11 2698   2.293   0.444   7.595  0.7309  0.0290  0.6404
   37CHL1  H11A 2699   2.215   0.364   7.596  0.5459  0.1747 -0.7858
   37CHL1  H11B 2700   2.240   0.538   7.570  1.3942 -0.0358 -1.1244
   37CHL1    C9 2701   2.396   0.434   7.472 -0.3157 -0.7041 -0.5907
   37CHL1    H9 2702   2.437   0.537   7.474 -1.4773 -0.2385  0.9326
   37CHL1   C10 2703   2.341   0.413   7.328 -0.3437 -0.1024 -0.0099
   37CHL1   C19 2704   2.240   0.298   7.340 -0.6011  1.0017 -0.0180
   37CHL1  H19A 2705   2.152   0.344   7.389 -0.5099  1.3925 -0.2225
   37CHL1  H19B 2706   2.208   0.265   7.239  1.2047  1.0076 -0.6026
   37CHL1  H19C 2707   2.278   0.216   7.404 -0.7621  0.0735 -1.0909
   37CHL1    C1 2708   2.278   0.547   7.280 -0.5956  0.2857  0.8198
   37CHL1   H1A 2709   2.198   0.577   7.351 -0.8645  0.8103  0.2911
   37CHL1   H1B 2710   2.355   0.627   7.285 -1.3920  1.2794 -1.8279
   37CHL1    C2 2711   2.221   0.538   7.144  0.6582 -0.1039 -0.4687
   37CHL1   H2A 2712   2.159   0.625   7.114 -1.6102 -1.8616 -1.0746
   37CHL1   H2B 2713   2.148   0.454   7.137  1.7013 -0.8364 -3.5147
   37CHL1   C20 2714   2.468   0.264   8.020 -0.1674 -0.7701 -0.0753
   37CHL1   H20 2715   2.447   0.157   7.999  0.1821 -1.0830  1.1156
   37CHL1   C21 2716   2.341   0.332   8.066  0.1417 -0.5463 -0.0835
   37CHL1  H21A 2717   2.355   0.439   8.095  0.0350 -0.4053 -0.5330
   37CHL1  H21B 2718   2.304   0.294   8.163  0.7901  0.2136  0.4786
   37CHL1  H21C 2719   2.263   0.329   7.987 -0.5041 -0.5054  0.5580
   37CHL1   C22 2720   2.574   0.270   8.139  0.1302  0.2600  0.6364
   37CHL1  H22A 2721   2.678   0.287   8.102 -0.4911 -2.1538 -2.4617
   37CHL1  H22B 2722   2.569   0.367   8.192 -0.1618  0.7429 -0.2811
   37CHL1   C23 2723   2.578   0.150   8.232  0.5139  0.0612 -0.2572
   37CHL1  H23A 2724   2.475   0.135   8.271  1.1720 -0.4190  1.3510
   37CHL1  H23B 2725   2.606   0.070   8.160 -1.4156 -1.5372  0.7211
   37CHL1   C24 2726   2.683   0.161   8.347  0.0200 -0.1118  0.2666
   37CHL1  H24A 2727   2.705   0.057   8.379 -0.7521  0.2411  2.0271
   37CHL1  H24B 2728   2.776   0.200   8.302 -0.6306  1.0145 -0.1153
   37CHL1   C25 2729   2.638   0.261   8.458  0.2569 -0.7715 -0.8848
   37CHL1   H25 2730   2.618   0.358   8.406 -1.5614 -0.9477 -0.5380
   37CHL1   C26 2731   2.507   0.236   8.533  0.5964  0.6210 -1.0343
   37CHL1  H26A 2732   2.475   0.313   8.606 -1.3921 -0.9111 -0.2373
   37CHL1  H26B 2733   2.427   0.208   8.461  0.3684 -3.8358  0.7870
   37CHL1  H26C 2734   2.509   0.140   8.590  0.3462  1.4242  0.3373
   37CHL1   C27 2735   2.756   0.287   8.553  0.0002 -0.3621  0.2292
   37CHL1  H27A 2736   2.773   0.193   8.610  1.4773  0.3317  0.9751
   37CHL1  H27B 2737   2.846   0.307   8.491 -1.3418  2.1685 -0.9709
   37CHL1  H27C 2738   2.742   0.366   8.629  0.5728 -0.4880  0.4699
   38CHL1    C3 2739   5.666   1.480   6.639 -0.4930  0.8489 -0.4034
   38CHL1    H3 2740   5.773   1.509   6.641  0.2729 -1.8371 -0.1158
   38CHL1    O3 2741   5.627   1.466   6.505 -0.0932  0.1885 -0.7416
   38CHL1   H3' 2742   5.538   1.431   6.496  0.7091 -1.8221 -1.1238
   38CHL1    C4 2743   5.648   1.343   6.708 -0.3105  0.0391 -0.2928
   38CHL1   H4A 2744   5.544   1.303   6.700  0.4093 -1.9490 -0.0264
   38CHL1   H4B 2745   5.702   1.266   6.650 -0.2466 -0.7253  0.7696
   38CHL1    C5 2746   5.692   1.352   6.851 -0.2029  0.4054  0.0532
   38CHL1    C6 2747   5.786   1.271   6.894 -0.1363  0.1902  0.4424
   38CHL1    H6 2748   5.826   1.188   6.834  1.2693  1.6410 -0.6786
   38CHL1    C7 2749   5.828   1.269   7.038  0.0505 -0.3604  0.1283
   38CHL1   H7A 2750   5.827   1.162   7.068 -0.6925  0.1264  1.9028
   38CHL1   H7B 2751   5.934   1.304   7.043  0.2290 -0.8244 -0.3309
   38CHL1    C8 2752   5.733   1.352   7.135 -0.6280 -0.9634  0.4410
   38CHL1    H8 2753   5.645   1.292   7.167 -1.0353 -1.4929 -1.5912
   38CHL1   C14 2754   5.809   1.384   7.263 -0.4186  0.0233  0.5290
   38CHL1   H14 2755   5.904   1.429   7.230  0.0263  1.3325  3.4473
   38CHL1   C15 2756   5.867   1.271   7.351 -0.0527 -0.3436 -0.2899
   38CHL1  H15A 2757   5.804   1.180   7.347 -1.2117  0.4924 -1.1727
   38CHL1  H15B 2758   5.967   1.229   7.322  0.4426  1.6529 -1.5943
   38CHL1   C16 2759   5.884   1.325   7.499  0.4152 -0.3831  0.5171
   38CHL1  H16A 2760   5.832   1.266   7.578  0.0869  1.5011  1.7270
   38CHL1  H16B 2761   5.992   1.337   7.519  1.0163 -1.7080 -1.6962
   38CHL1   C17 2762   5.833   1.473   7.491 -0.9676 -0.3414  0.0278
   38CHL1   H17 2763   5.921   1.535   7.464  0.4060 -1.9045  0.7813
   38CHL1   C13 2764   5.739   1.487   7.361 -0.2199 -0.6765 -0.2614
   38CHL1   C18 2765   5.600   1.438   7.404  0.2891 -0.2606  0.9001
   38CHL1  H18A 2766   5.536   1.516   7.450 -0.1904  0.3982 -0.8639
   38CHL1  H18B 2767   5.546   1.403   7.314 -1.3290  1.4868  1.1710
   38CHL1  H18C 2768   5.618   1.350   7.470  3.0248 -1.3260 -1.1836
   38CHL1   C12 2769   5.724   1.623   7.285 -0.4208  0.6858 -0.2517
   38CHL1  H12A 2770   5.661   1.689   7.348  0.4199 -1.1941  2.6949
   38CHL1  H12B 2771   5.829   1.659   7.284  0.6703 -2.2985 -0.0091
   38CHL1   C11 2772   5.654   1.604   7.150  0.7037  0.2831  0.3205
   38CHL1  H11A 2773   5.545   1.584   7.156  0.8850 -1.1244 -0.7161
   38CHL1  H11B 2774   5.669   1.700   7.096  2.1100  0.8691  1.7187
   38CHL1    C9 2775   5.710   1.488   7.063 -0.1879  0.1749  0.1374
   38CHL1    H9 2776   5.811   1.517   7.029 -1.3948  2.0408 -1.9157
   38CHL1   C10 2777   5.624   1.460   6.935  0.6707  0.3140 -0.1954
   38CHL1   C19 2778   5.472   1.425   6.958  0.0466  0.1205  0.5889
   38CHL1  H19A 2779   5.463   1.348   7.037 -1.8475  0.9635  1.2262
   38CHL1  H19B 2780   5.415   1.518   6.980  1.2793  1.2700 -0.9481
   38CHL1  H19C 2781   5.436   1.387   6.860  3.5781 -2.3770  0.1771
   38CHL1    C1 2782   5.627   1.600   6.851  0.4664 -0.5241 -0.2903
   38CHL1   H1A 2783   5.558   1.673   6.898  1.5217  0.0731  0.3634
   38CHL1   H1B 2784   5.733   1.630   6.862 -0.0528  1.3672 -0.2450
   38CHL1    C2 2785   5.575   1.582   6.712 -0.7815 -0.1074  0.2064
   38CHL1   H2A 2786   5.567   1.680   6.661 -0.6836  0.7663  1.8164
   38CHL1   H2B 2787   5.467   1.557   6.703 -0.4819 -0.9340 -1.2035
   38CHL1   C20 2788   5.786   1.523   7.624  0.6134  0.3093  0.3767
   38CHL1   H20 2789   5.703   1.457   7.659  0.1261  0.5061 -0.3950
   38CHL1   C21 2790   5.734   1.665   7.621  0.0234  0.2472 -0.9321
   38CHL1  H21A 2791   5.657   1.692   7.546 -0.5659  1.0515 -0.0418
   38CHL1  H21B 2792   5.821   1.735   7.611 -1.8030  2.9593  1.2419
   38CHL1  H21C 2793   5.687   1.694   7.718  1.9760 -0.8821  0.3785
   38CHL1   C22 2794   5.898   1.506   7.732  0.5441  0.2530 -0.1745
   38CHL1  H22A 2795   5.922   1.397   7.735  1.5165  0.4787  0.2650
   38CHL1  H22B 2796   5.981   1.566   7.688 -0.1249  0.1092 -1.6920
   38CHL1   C23 2797   5.868   1.548   7.872  0.6075 -0.2203  0.8476
   38CHL1  H23A 2798   5.814   1.644   7.887 -1.2821 -1.3110  1.2921
   38CHL1  H23B 2799   5.800   1.468   7.910  0.7043 -0.3240  0.7996
   38CHL1   C24 2800   5.991   1.560   7.959 -0.2098  0.6758  0.2415
   38CHL1  H24A 2801   6.055   1.470   7.953  0.7157  1.3143  0.4159
   38CHL1  H24B 2802   6.062   1.635   7.918  0.9014 -0.0064  0.8862
   38CHL1   C25 2803   5.957   1.591   8.109  0.5380 -0.0045  0.2321
   38CHL1   H25 2804   5.899   1.502   8.140  0.6647  0.7037  2.6485
   38CHL1   C26 2805   6.086   1.584   8.197  0.2194 -1.6536  0.1955
   38CHL1  H26A 2806   6.065   1.607   8.303  1.4385  3.2399 -0.5041
   38CHL1  H26B 2807   6.123   1.479   8.191 -2.1403 -2.6320  2.0760
   38CHL1  H26C 2808   6.167   1.655   8.167 -2.0625  0.3949 -1.3690
   38CHL1   C27 2809   5.885   1.715   8.141  0.2506 -0.1021  0.7525
   38CHL1  H27A 2810   5.858   1.723   8.248 -1.6457 -2.8193  0.5324
   38CHL1  H27B 2811   5.958   1.796   8.120 -0.4134  0.6279  1.2335
   38CHL1  H27C 2812   5.797   1.742   8.078  1.8935  0.3960 -1.3932
   39CHL1    C3 2813   5.239   0.447   6.807  0.4318 -0.2290 -0.3343
   39CHL1    H3 2814   5.258   0.554   6.827  0.0580 -0.1024 -0.6524
   39CHL1    O3 2815   5.233   0.428   6.668 -0.1662  0.2737  0.1523
   39CHL1   H3' 2816   5.163   0.480   6.629 -1.9730 -2.1450  0.0566
   39CHL1    C4 2817   5.338   0.351   6.870 -1.1496  0.2810 -0.0376
   39CHL1   H4A 2818   5.324   0.245   6.839  1.2519 -0.4331  1.1645
   39CHL1   H4B 2819   5.443   0.372   6.839 -0.6062 -2.1596  0.0495
   39CHL1    C5 2820   5.339   0.348   7.022 -0.2431 -0.5800 -0.5046
   39CHL1    C6 2821   5.454   0.369   7.088 -0.6856  0.0149  0.2303
   39CHL1    H6 2822   5.547   0.393   7.035 -0.0103 -2.2517  0.3057
   39CHL1    C7 2823   5.454   0.366   7.241 -0.1772 -0.3710  0.3790
   39CHL1   H7A 2824   5.517   0.283   7.281 -0.4646  0.1200  1.8711
   39CHL1   H7B 2825   5.489   0.465   7.279  2.2663 -1.5745  1.3472
   39CHL1    C8 2826   5.317   0.326   7.307 -0.1757  0.0174  0.5782
   39CHL1    H8 2827   5.299   0.217   7.304  0.3824 -0.0652  0.0024
   39CHL1   C14 2828   5.310   0.382   7.447  0.1516 -0.3272 -0.3366
   39CHL1   H14 2829   5.333   0.491   7.450 -0.4974 -0.2323  2.1044
   39CHL1   C15 2830   5.418   0.337   7.547  0.0963 -0.5247  0.5056
   39CHL1  H15A 2831   5.416   0.227   7.533 -2.8481 -0.5319  0.6991
   39CHL1  H15B 2832   5.515   0.385   7.522 -0.7548  1.5646  1.1727
   39CHL1   C16 2833   5.374   0.379   7.689 -0.0170  0.4429  0.2100
   39CHL1  H16A 2834   5.375   0.286   7.750 -0.2366 -0.9805 -1.9470
   39CHL1  H16B 2835   5.443   0.450   7.741  1.0956 -1.5177  1.4559
   39CHL1   C17 2836   5.224   0.422   7.665 -0.1767 -0.0000 -0.2013
   39CHL1   H17 2837   5.236   0.532   7.653 -2.0970  0.1383 -1.0958
   39CHL1   C13 2838   5.182   0.360   7.528 -0.3058 -0.1768 -0.0371
   39CHL1   C18 2839   5.154   0.204   7.543 -0.6810  0.7806 -0.7347
   39CHL1  H18A 2840   5.242   0.150   7.585  0.8807  2.9751 -1.1067
   39CHL1  H18B 2841   5.064   0.183   7.604  0.5959  0.5981  1.1037
   39CHL1  H18C 2842   5.139   0.157   7.443 -0.9682  0.0237 -0.3471
   39CHL1   C12 2843   5.068   0.426   7.460  0.0854  0.3985  0.1636
   39CHL1  H12A 2844   4.976   0.403   7.519  0.2885 -1.6182 -0.2702
   39CHL1  H12B 2845   5.091   0.535   7.453 -0.8189  0.5626 -0.3127
   39CHL1   C11 2846   5.061   0.378   7.316 -0.2709 -0.3948  0.2355
   39CHL1  H11A 2847   5.024   0.273   7.314  0.3071 -0.5916 -0.7526
   39CHL1  H11B 2848   4.985   0.437   7.262 -0.1576 -0.0573  0.4446
   39CHL1    C9 2849   5.198   0.391   7.236 -0.1514  0.4542  0.1763
   39CHL1    H9 2850   5.209   0.501   7.226 -4.5374  1.1400  1.7002
   39CHL1   C10 2851   5.198   0.348   7.085 -0.3267 -0.2671  0.2820
   39CHL1   C19 2852   5.154   0.207   7.072  0.4599  0.0406  0.4961
   39CHL1  H19A 2853   5.050   0.210   7.110 -0.1223  3.1771 -1.1605
   39CHL1  H19B 2854   5.156   0.152   6.976  0.4576 -0.7822  0.9625
   39CHL1  H19C 2855   5.208   0.133   7.135 -1.8028 -2.2395 -0.1750
   39CHL1    C1 2856   5.095   0.438   7.011 -0.0430 -0.1466 -0.0919
   39CHL1   H1A 2857   4.991   0.414   7.042 -1.3917  2.2982 -2.5279
   39CHL1   H1B 2858   5.108   0.547   7.028 -2.6094  0.5572 -2.2396
   39CHL1    C2 2859   5.104   0.416   6.861 -0.1678 -0.1919  0.4562
   39CHL1   H2A 2860   5.025   0.477   6.812  1.7229  0.7659 -1.5125
   39CHL1   H2B 2861   5.087   0.312   6.826  0.6083 -0.8735  2.0915
   39CHL1   C20 2862   5.123   0.402   7.781 -0.4666  0.2299  0.0705
   39CHL1   H20 2863   5.066   0.310   7.758 -0.3706  0.5337 -1.4463
   39CHL1   C21 2864   5.011   0.515   7.785  0.0193  0.7600  0.0432
   39CHL1  H21A 2865   5.050   0.599   7.845 -1.0576  0.8731  0.5975
   39CHL1  H21B 2866   4.923   0.478   7.841  0.7022 -2.4923 -0.9031
   39CHL1  H21C 2867   4.980   0.542   7.682 -0.3945 -1.8680 -0.5730
   39CHL1   C22 2868   5.184   0.383   7.923 -0.3292 -0.3318 -0.2867
   39CHL1  H22A 2869   5.235   0.284   7.917  1.7128  0.7252 -0.7468
   39CHL1  H22B 2870   5.261   0.463   7.928  0.8692 -1.4949  0.2206
   39CHL1   C23 2871   5.091   0.377   8.046  0.3077  0.1754  0.3311
   39CHL1  H23A 2872   5.056   0.482   8.055 -0.4780 -0.0634  0.1739
   39CHL1  H23B 2873   4.999   0.315   8.033  0.1869  0.5700 -0.7969
   39CHL1   C24 2874   5.171   0.323   8.173 -1.6316 -0.2796 -0.1712
   39CHL1  H24A 2875   5.195   0.218   8.147 -1.0371 -0.1976  0.0532
   39CHL1  H24B 2876   5.268   0.375   8.183 -1.3153 -1.1248  1.2863
   39CHL1   C25 2877   5.094   0.328   8.305 -0.2976  0.5866 -0.0796
   39CHL1   H25 2878   4.997   0.279   8.282  1.0873 -1.2900 -2.1194
   39CHL1   C26 2879   5.169   0.246   8.411  0.0861  0.3131 -0.3097
   39CHL1  H26A 2880   5.266   0.292   8.439  0.6950 -1.5652  0.7191
   39CHL1  H26B 2881   5.110   0.241   8.505  3.3236  1.0341  1.8529
   39CHL1  H26C 2882   5.187   0.144   8.371 -1.7682 -0.6735  1.3359
   39CHL1   C27 2883   5.064   0.472   8.361 -0.3682 -0.7627  0.3899
   39CHL1  H27A 2884   5.030   0.459   8.466 -2.2854  0.5406 -0.0308
   39CHL1  H27B 2885   5.153   0.539   8.357 -2.4636  2.0119 -1.2515
   39CHL1  H27C 2886   4.981   0.517   8.302  0.7211 -1.1004 -1.4234
   40CHL1    C3 2887   1.033   6.057   6.849  0.3203  0.1326  0.2596
   40CHL1    H3 2888   1.052   6.166   6.851 -1.2880  0.4368 -0.3498
   40CHL1    O3 2889   0.975   6.027   6.725 -0.7882 -0.5339  0.2837
   40CHL1   H3' 2890   0.974   5.931   6.717 -1.4193 -0.4442 -0.8752
   40CHL1    C4 2891   1.174   5.985   6.845 -0.2251  0.0986 -0.5656
   40CHL1   H4A 2892   1.151   5.878   6.826 -0.4732 -0.5593  3.1582
   40CHL1   H4B 2893   1.239   6.022   6.762  1.1926 -2.7167 -0.7716
   40CHL1    C5 2894   1.237   5.988   6.979 -0.9298  0.0019  0.0995
   40CHL1    C6 2895   1.360   6.033   6.999  0.0467 -1.0751 -1.1424
   40CHL1    H6 2896   1.417   6.073   6.914  0.6454  0.1803 -0.1673
   40CHL1    C7 2897   1.436   6.025   7.132 -0.3755  0.1811  0.1180
   40CHL1   H7A 2898   1.538   5.980   7.128  0.1874  1.4128  0.2224
   40CHL1   H7B 2899   1.451   6.131   7.164  0.6469  0.2941 -0.7093
   40CHL1    C8 2900   1.362   5.954   7.248 -0.3269 -0.0854  0.7484
   40CHL1    H8 2901   1.393   5.847   7.245  1.8451  0.5291 -0.0474
   40CHL1   C14 2902   1.410   5.998   7.383  0.2390 -0.4999  0.1807
   40CHL1   H14 2903   1.401   6.108   7.390 -4.2096 -0.9355  3.5671
   40CHL1   C15 2904   1.564   5.984   7.411  0.0518 -0.5135  0.1818
   40CHL1  H15A 2905   1.607   5.885   7.383  1.4482  0.2120 -0.3196
   40CHL1  H15B 2906   1.628   6.054   7.352  0.5678 -0.7373  0.4711
   40CHL1   C16 2907   1.575   5.995   7.564 -0.9057 -0.0095 -0.3063
   40CHL1  H16A 2908   1.628   5.916   7.620  0.4204  1.7353  0.9604
   40CHL1  H16B 2909   1.608   6.091   7.610 -0.4453 -0.2177 -0.2069
   40CHL1   C17 2910   1.428   5.997   7.623  0.2354  0.2978 -0.0808
   40CHL1   H17 2911   1.391   6.102   7.631 -0.1932  0.1617 -0.2748
   40CHL1   C13 2912   1.342   5.943   7.510  0.0352 -0.5203  0.5689
   40CHL1   C18 2913   1.366   5.789   7.521  0.0569 -0.4922  0.2449
   40CHL1  H18A 2914   1.330   5.744   7.426 -1.7315  3.7391 -1.1859
   40CHL1  H18B 2915   1.475   5.773   7.538 -0.4076 -3.6351  0.6598
   40CHL1  H18C 2916   1.311   5.735   7.601 -0.1694  0.6168  0.8408
   40CHL1   C12 2917   1.194   5.982   7.498  0.3880 -0.1228 -0.1345
   40CHL1  H12A 2918   1.125   5.946   7.577  1.3001  1.3912  1.3929
   40CHL1  H12B 2919   1.185   6.092   7.483 -0.4277 -0.5020 -2.8242
   40CHL1   C11 2920   1.134   5.926   7.363 -0.4176 -0.6741 -1.0517
   40CHL1  H11A 2921   1.152   5.816   7.365  0.3549 -0.5469 -0.6583
   40CHL1  H11B 2922   1.027   5.952   7.354 -1.1230 -2.7617  1.0676
   40CHL1    C9 2923   1.209   5.975   7.237  0.3899  0.0648 -0.2703
   40CHL1    H9 2924   1.196   6.085   7.241 -0.9404 -0.1067  0.2832
   40CHL1   C10 2925   1.148   5.934   7.096  0.2014  0.4140 -0.2094
   40CHL1   C19 2926   1.141   5.784   7.091 -0.2728  0.5002  0.0922
   40CHL1  H19A 2927   1.120   5.746   6.989  0.3642  1.2624 -0.3284
   40CHL1  H19B 2928   1.235   5.737   7.126 -1.7364 -1.4560  1.5439
   40CHL1  H19C 2929   1.068   5.734   7.159 -0.4958 -1.1580 -1.3255
   40CHL1    C1 2930   1.015   6.001   7.090 -0.2747  0.0441  0.7047
   40CHL1   H1A 2931   0.949   5.954   7.167  0.3708  0.2997  1.4197
   40CHL1   H1B 2932   1.034   6.108   7.113  0.8035 -0.0677  0.3699
   40CHL1    C2 2933   0.953   5.990   6.960  0.0972 -0.3865 -0.1592
   40CHL1   H2A 2934   0.853   6.034   6.943 -1.2642 -2.6490  1.6819
   40CHL1   H2B 2935   0.944   5.882   6.936 -0.9415 -1.1932  3.4886
   40CHL1   C20 2936   1.413   5.947   7.771  0.3939 -0.6502 -0.0375
   40CHL1   H20 2937   1.457   5.845   7.765 -1.0013 -1.4924  2.9447
   40CHL1   C21 2938   1.269   5.928   7.824  0.7979  0.4862 -0.1845
   40CHL1  H21A 2939   1.212   5.855   7.762  0.3904  2.4259 -2.1299
   40CHL1  H21B 2940   1.225   6.029   7.827  0.8832  0.4850  1.2311
   40CHL1  H21C 2941   1.280   5.895   7.929  3.4471  0.9171 -0.2790
   40CHL1   C22 2942   1.511   6.021   7.867  0.0598 -0.8585  0.1956
   40CHL1  H22A 2943   1.510   5.950   7.952  0.3341 -1.9117 -0.6676
   40CHL1  H22B 2944   1.615   6.027   7.829  0.3823  0.5307  1.2754
   40CHL1   C23 2945   1.464   6.140   7.936 -0.3878  0.1455  0.0570
   40CHL1  H23A 2946   1.433   6.223   7.869 -0.6782  0.9821  1.2015
   40CHL1  H23B 2947   1.379   6.109   8.000  2.2803 -4.0794  1.7587
   40CHL1   C24 2948   1.571   6.193   8.034  0.1677  0.5099  0.2584
   40CHL1  H24A 2949   1.586   6.109   8.105 -0.8043 -0.9674 -1.2276
   40CHL1  H24B 2950   1.660   6.223   7.975 -0.0518  1.0641  0.2098
   40CHL1   C25 2951   1.522   6.320   8.104 -0.4239  0.8216  0.3083
   40CHL1   H25 2952   1.540   6.398   8.027 -1.1533 -0.9673 -1.7178
   40CHL1   C26 2953   1.384   6.321   8.172  0.2215 -0.7408  0.9630
   40CHL1  H26A 2954   1.301   6.323   8.098 -1.3944  0.3210  2.7476
   40CHL1  H26B 2955   1.366   6.246   8.251  0.8085  0.2705  2.0851
   40CHL1  H26C 2956   1.367   6.416   8.229 -0.7724  0.2493 -0.9300
   40CHL1   C27 2957   1.614   6.356   8.220 -0.1754  0.0818 -0.7078
   40CHL1  H27A 2958   1.605   6.463   8.251 -1.0143 -0.1814 -0.0099
   40CHL1  H27B 2959   1.585   6.296   8.309  0.2640 -0.5581 -1.0008
   40CHL1  H27C 2960   1.720   6.334   8.195 -0.7891 -1.3904 -2.0427
   41CHL1    C3 2961   1.897   5.963   6.919  0.5161  0.4810  0.2682
   41CHL1    H3 2962   1.792   5.991   6.941  0.1053 -0.2468 -0.7281
   41CHL1    O3 2963   1.915   5.963   6.776  0.0232  0.0801  0.0517
   41CHL1   H3' 2964   2.006   5.987   6.757 -0.3192  0.9719 -0.4998
   41CHL1    C4 2965   1.997   6.065   6.983 -0.7120 -0.2020  0.3731
   41CHL1   H4A 2966   2.102   6.044   6.953 -0.3005  0.6531  1.1988
   41CHL1   H4B 2967   1.962   6.166   6.954 -0.7207  0.0546  1.2682
   41CHL1    C5 2968   1.991   6.039   7.131 -0.3316  0.2646  0.0168
   41CHL1    C6 2969   1.964   6.146   7.206  0.5503 -0.1401  0.1930
   41CHL1    H6 2970   1.961   6.243   7.155 -1.9759  0.6823  1.8488
   41CHL1    C7 2971   1.951   6.158   7.358 -0.1822 -1.0611  0.8641
   41CHL1   H7A 2972   2.020   6.237   7.397  0.4348 -0.8110 -0.6931
   41CHL1   H7B 2973   1.848   6.183   7.389  0.0700  1.7868 -0.3762
   41CHL1    C8 2974   2.001   6.022   7.426 -0.2128 -0.3482  0.1882
   41CHL1    H8 2975   2.112   6.026   7.429 -0.0866 -1.9075 -1.8682
   41CHL1   C14 2976   1.953   6.008   7.567  0.0573  0.1801  0.2637
   41CHL1   H14 2977   1.842   6.009   7.564  0.0412 -1.1883  0.0035
   41CHL1   C15 2978   1.987   6.112   7.675  0.0130  0.2917  0.3699
   41CHL1  H15A 2979   2.096   6.130   7.688  0.6938 -1.2889 -2.6111
   41CHL1  H15B 2980   1.948   6.213   7.647 -2.0192 -0.6499 -0.2639
   41CHL1   C16 2981   1.922   6.053   7.802 -0.0215  0.1313 -0.1623
   41CHL1  H16A 2982   1.985   6.076   7.890 -1.5406  0.7554  0.7980
   41CHL1  H16B 2983   1.823   6.102   7.818 -0.0717 -0.2152  0.5948
   41CHL1   C17 2984   1.907   5.898   7.774 -0.1541  0.4292 -0.2487
   41CHL1   H17 2985   1.803   5.888   7.736  0.1354  2.7217 -1.7504
   41CHL1   C13 2986   1.983   5.878   7.635 -0.3257  0.1152 -0.2370
   41CHL1   C18 2987   2.132   5.849   7.658 -0.4518  0.1323  0.4490
   41CHL1  H18A 2988   2.172   5.929   7.725 -0.5150  0.9515 -0.4711
   41CHL1  H18B 2989   2.148   5.745   7.693 -0.6825 -0.5946 -1.5853
   41CHL1  H18C 2990   2.190   5.857   7.564 -2.3765 -0.1561 -0.7761
   41CHL1   C12 2991   1.912   5.771   7.557 -0.3985  0.7743  0.5792
   41CHL1  H12A 2992   1.913   5.670   7.605 -0.5030 -0.0596 -1.1475
   41CHL1  H12B 2993   1.805   5.799   7.547 -0.8623  0.1431  3.3235
   41CHL1   C11 2994   1.972   5.763   7.412 -0.1232 -0.5606  0.2965
   41CHL1  H11A 2995   2.079   5.733   7.421  0.0269  0.1137  0.7592
   41CHL1  H11B 2996   1.908   5.695   7.351 -2.0052  0.5100  1.0611
   41CHL1    C9 2997   1.955   5.903   7.343  1.3730 -0.4093  0.3853
   41CHL1    H9 2998   1.845   5.913   7.332  1.1500 -1.1628  1.8352
   41CHL1   C10 2999   2.004   5.904   7.196 -0.0422  0.2562 -0.2097
   41CHL1   C19 3000   2.149   5.853   7.189 -0.0494 -0.2226 -0.7016
   41CHL1  H19A 3001   2.193   5.863   7.087  0.8655  0.8709 -0.2146
   41CHL1  H19B 3002   2.205   5.923   7.255 -2.4965  2.4481 -1.3143
   41CHL1  H19C 3003   2.162   5.748   7.223  0.3590 -0.1931 -0.7611
   41CHL1    C1 3004   1.917   5.804   7.112 -0.4801 -0.0863 -0.9815
   41CHL1   H1A 3005   1.936   5.699   7.144  0.4200  0.2401 -0.4075
   41CHL1   H1B 3006   1.810   5.831   7.122 -0.3274 -0.2080  1.1434
   41CHL1    C2 3007   1.935   5.819   6.964 -0.2058  0.1609 -0.9204
   41CHL1   H2A 3008   1.878   5.750   6.897 -1.8664  0.8174 -0.2157
   41CHL1   H2B 3009   2.039   5.803   6.930  0.7192 -0.1862  1.9375
   41CHL1   C20 3010   1.932   5.798   7.883  0.2074  0.2735 -0.2441
   41CHL1   H20 3011   1.943   5.695   7.842  1.1660 -0.0244  0.7491
   41CHL1   C21 3012   1.805   5.810   7.970  0.5056 -0.1625 -0.1186
   41CHL1  H21A 3013   1.791   5.912   8.014  0.2854 -0.2651  0.0537
   41CHL1  H21B 3014   1.796   5.731   8.047 -0.6057  0.6053  0.5745
   41CHL1  H21C 3015   1.721   5.790   7.899  0.2477  1.4440 -0.2941
   41CHL1   C22 3016   2.064   5.821   7.971 -0.4181 -0.6919 -0.3380
   41CHL1  H22A 3017   2.156   5.818   7.909 -0.3012  0.2071 -0.2206
   41CHL1  H22B 3018   2.059   5.923   8.015 -1.7756 -1.0756  0.4298
   41CHL1   C23 3019   2.096   5.717   8.083 -0.2818 -0.1587 -0.5500
   41CHL1  H23A 3020   2.021   5.754   8.156  0.3621  0.4849 -0.2140
   41CHL1  H23B 3021   2.063   5.616   8.048 -0.0577 -0.9062  1.3144
   41CHL1   C24 3022   2.237   5.722   8.141 -0.1033 -0.6640  0.9023
   41CHL1  H24A 3023   2.302   5.728   8.051 -1.0918 -0.2514  0.2124
   41CHL1  H24B 3024   2.241   5.818   8.195 -0.9641 -0.4879  0.6573
   41CHL1   C25 3025   2.263   5.593   8.225 -0.5618  0.0129  0.7869
   41CHL1   H25 3026   2.175   5.533   8.193 -0.5412  1.2407 -1.6596
   41CHL1   C26 3027   2.393   5.515   8.185 -0.0753 -0.7076  0.3119
   41CHL1  H26A 3028   2.480   5.578   8.211 -1.0501  0.4930  0.6679
   41CHL1  H26B 3029   2.405   5.420   8.242  1.0372 -0.3235  0.7295
   41CHL1  H26C 3030   2.390   5.493   8.076 -0.8029 -1.2978  0.4418
   41CHL1   C27 3031   2.250   5.628   8.372 -0.0944  0.5586  0.2108
   41CHL1  H27A 3032   2.162   5.688   8.404 -0.2473  0.7030 -0.4803
   41CHL1  H27B 3033   2.260   5.543   8.444  1.2488  0.5007 -0.0314
   41CHL1  H27C 3034   2.330   5.701   8.396 -1.3244  1.5696  1.2754
   42CHL1    C3 3035   2.863   3.616   7.094 -0.3108 -0.1296  0.1627
   42CHL1    H3 3036   2.761   3.657   7.109 -0.7939 -0.0701 -2.9253
   42CHL1    O3 3037   2.905   3.635   6.957 -0.4394  0.2718 -0.3360
   42CHL1   H3' 3038   2.967   3.566   6.936 -0.4557  0.2094 -0.1766
   42CHL1    C4 3039   2.958   3.698   7.182 -0.1389  0.2860  0.0429
   42CHL1   H4A 3040   3.064   3.669   7.174  0.1538  1.0255  1.0759
   42CHL1   H4B 3041   2.955   3.803   7.144  1.4124 -0.0831 -1.1509
   42CHL1    C5 3042   2.920   3.691   7.329 -0.6811 -0.0887 -0.2699
   42CHL1    C6 3043   2.880   3.794   7.405  0.2448  0.8611  0.8135
   42CHL1    H6 3044   2.878   3.898   7.370 -2.3591  2.0433  4.1628
   42CHL1    C7 3045   2.842   3.787   7.547 -0.3091  0.0764  0.2341
   42CHL1   H7A 3046   2.894   3.870   7.600  0.8188 -0.8053  0.5127
   42CHL1   H7B 3047   2.732   3.798   7.558 -0.3176 -0.5654  0.8426
   42CHL1    C8 3048   2.900   3.657   7.611 -0.0664 -0.1046 -0.6985
   42CHL1    H8 3049   3.010   3.662   7.622 -0.1702 -0.2364  0.4685
   42CHL1   C14 3050   2.840   3.639   7.750 -0.8590 -0.8812 -0.6770
   42CHL1   H14 3051   2.730   3.640   7.737 -1.1721  0.1123  1.6661
   42CHL1   C15 3052   2.878   3.741   7.858  0.0308 -0.2646 -0.0787
   42CHL1  H15A 3053   2.982   3.779   7.858  0.2485 -0.8679 -0.4197
   42CHL1  H15B 3054   2.813   3.831   7.852  1.5512  0.9239  1.0534
   42CHL1   C16 3055   2.847   3.674   7.999  0.0422 -0.4375 -0.2024
   42CHL1  H16A 3056   2.945   3.669   8.051  0.6283  0.2966 -1.2116
   42CHL1  H16B 3057   2.768   3.734   8.049  0.2198 -0.1870 -0.2201
   42CHL1   C17 3058   2.791   3.533   7.958  0.4886 -0.1890  0.2820
   42CHL1   H17 3059   2.680   3.537   7.946  0.8737 -0.5361 -4.2803
   42CHL1   C13 3060   2.856   3.498   7.817 -0.7604  0.1602  0.4925
   42CHL1   C18 3061   3.005   3.468   7.837  0.0645  0.4396  0.5682
   42CHL1  H18A 3062   3.013   3.360   7.862 -1.5930 -0.2643 -1.7438
   42CHL1  H18B 3063   3.047   3.500   7.740  0.1250  0.1005  0.4818
   42CHL1  H18C 3064   3.069   3.525   7.908 -0.0093  1.8442 -0.4882
   42CHL1   C12 3065   2.794   3.395   7.719  0.3558 -0.4007 -0.8512
   42CHL1  H12A 3066   2.807   3.295   7.765  0.6333  0.9453  2.1165
   42CHL1  H12B 3067   2.684   3.412   7.721  0.4387  0.0863 -0.0763
   42CHL1   C11 3068   2.862   3.403   7.584  0.6728 -0.7295 -0.8413
   42CHL1  H11A 3069   2.970   3.374   7.588  0.4160 -1.4539  1.1658
   42CHL1  H11B 3070   2.815   3.334   7.510 -0.7506 -2.4880  1.6315
   42CHL1    C9 3071   2.855   3.542   7.521 -0.3349 -0.4631 -0.5678
   42CHL1    H9 3072   2.746   3.565   7.515 -0.5040  0.5360  4.0323
   42CHL1   C10 3073   2.919   3.539   7.379  0.2122 -0.0806 -0.4825
   42CHL1   C19 3074   3.069   3.493   7.397  1.1368  0.0905 -0.1023
   42CHL1  H19A 3075   3.108   3.518   7.498  0.5342 -1.7426  0.6028
   42CHL1  H19B 3076   3.071   3.384   7.378  0.0622 -0.4070  2.4508
   42CHL1  H19C 3077   3.136   3.545   7.326  1.4109 -1.6015 -1.1129
   42CHL1    C1 3078   2.842   3.453   7.275 -0.1173  0.4483  0.4213
   42CHL1   H1A 3079   2.845   3.348   7.310 -1.8308  0.9108  2.0045
   42CHL1   H1B 3080   2.737   3.485   7.287 -0.4183  0.9401 -3.1586
   42CHL1    C2 3081   2.886   3.471   7.130 -0.1584  0.7274 -0.9291
   42CHL1   H2A 3082   2.822   3.400   7.073  0.0785 -0.7694  0.6506
   42CHL1   H2B 3083   2.989   3.435   7.110 -0.7289 -1.1512 -0.5365
   42CHL1   C20 3084   2.814   3.427   8.068  0.4664  0.5594  0.2816
   42CHL1   H20 3085   2.923   3.409   8.081  0.5910  0.8903 -0.2998
   42CHL1   C21 3086   2.765   3.281   8.030  0.6861 -0.5364  0.1357
   42CHL1  H21A 3087   2.661   3.296   7.994  0.4674 -0.6853  0.6981
   42CHL1  H21B 3088   2.763   3.216   8.120  1.1045 -2.4148 -1.1948
   42CHL1  H21C 3089   2.817   3.221   7.953  0.2399  0.4679 -0.9654
   42CHL1   C22 3090   2.740   3.459   8.203 -0.4071  0.9442 -0.1662
   42CHL1  H22A 3091   2.753   3.567   8.226 -0.2738  0.8357  0.2867
   42CHL1  H22B 3092   2.635   3.440   8.173  0.2933  2.5950 -3.9513
   42CHL1   C23 3093   2.781   3.382   8.328 -1.0315  0.6241 -0.8494
   42CHL1  H23A 3094   2.759   3.275   8.311 -0.4294  0.5947 -1.4740
   42CHL1  H23B 3095   2.888   3.410   8.342 -1.0630  0.3533 -0.0498
   42CHL1   C24 3096   2.709   3.448   8.450  0.0342  0.0734 -0.2653
   42CHL1  H24A 3097   2.730   3.557   8.443  0.3667  0.0242 -0.0617
   42CHL1  H24B 3098   2.600   3.427   8.442 -0.1800  0.3615  1.6698
   42CHL1   C25 3099   2.753   3.404   8.594 -0.0541 -0.2848  0.0236
   42CHL1   H25 3100   2.857   3.442   8.600 -0.2077  0.3668 -1.2348
   42CHL1   C26 3101   2.677   3.484   8.700 -0.6590 -0.0033  0.0405
   42CHL1  H26A 3102   2.726   3.475   8.800  1.3645  2.2360 -0.6993
   42CHL1  H26B 3103   2.674   3.593   8.682 -1.9754  0.0554  0.5896
   42CHL1  H26C 3104   2.569   3.462   8.706 -0.8963  1.2646  0.5969
   42CHL1   C27 3105   2.744   3.254   8.616  0.5319 -0.5037  0.3143
   42CHL1  H27A 3106   2.638   3.223   8.631  0.8800 -2.3597 -0.8329
   42CHL1  H27B 3107   2.815   3.219   8.694  0.2427 -0.7863  0.4498
   42CHL1  H27C 3108   2.763   3.193   8.525 -2.0974 -0.2698 -0.4402
   43CHL1    C3 3109   2.974   0.579   6.897 -0.5684  0.2009  0.2163
   43CHL1    H3 3110   2.909   0.669   6.901  1.5263  1.7363  0.5021
   43CHL1    O3 3111   2.992   0.541   6.761 -0.7763 -0.3120 -0.2929
   43CHL1   H3' 3112   2.908   0.508   6.727 -1.2416 -1.2886  1.7450
   43CHL1    C4 3113   3.108   0.633   6.951  0.1860  0.2751  0.6515
   43CHL1   H4A 3114   3.186   0.560   6.919 -1.9794 -2.2524  1.0474
   43CHL1   H4B 3115   3.127   0.724   6.889  0.8069 -0.8284 -0.8140
   43CHL1    C5 3116   3.118   0.653   7.104  0.4948  0.3866  0.1557
   43CHL1    C6 3117   3.171   0.758   7.158 -0.2123  0.0279  0.1814
   43CHL1    H6 3118   3.213   0.832   7.088  1.8225 -1.1710  0.0983
   43CHL1    C7 3119   3.199   0.793   7.306 -0.1468 -0.0561  0.1697
   43CHL1   H7A 3120   3.303   0.827   7.324  0.0990  0.0680 -1.3898
   43CHL1   H7B 3121   3.137   0.879   7.341  1.1264  0.0987  2.0514
   43CHL1    C8 3122   3.176   0.668   7.397 -0.0202 -0.2493 -0.7837
   43CHL1    H8 3123   3.276   0.619   7.385 -0.7410 -1.6900 -1.1061
   43CHL1   C14 3124   3.161   0.712   7.543  0.4498 -0.0288 -0.2168
   43CHL1   H14 3125   3.069   0.773   7.543 -0.3862 -1.2837  0.3899
   43CHL1   C15 3126   3.257   0.817   7.589  0.5042  0.0073 -0.1133
   43CHL1  H15A 3127   3.354   0.772   7.557  0.2042 -1.9716  1.6201
   43CHL1  H15B 3128   3.234   0.920   7.553  0.6012 -0.3910 -1.3350
   43CHL1   C16 3129   3.251   0.806   7.739  0.0301  0.1048  0.1836
   43CHL1  H16A 3130   3.350   0.777   7.781  1.6035  0.0715 -3.3222
   43CHL1  H16B 3131   3.216   0.898   7.790 -0.9570 -0.3238  0.2880
   43CHL1   C17 3132   3.145   0.693   7.764 -0.9994 -0.1291 -0.5595
   43CHL1   H17 3133   3.047   0.744   7.767 -1.5454 -1.2061  0.0771
   43CHL1   C13 3134   3.149   0.599   7.636  0.6611 -0.0609  0.3889
   43CHL1   C18 3135   3.281   0.511   7.645 -0.2985 -0.0596  0.6119
   43CHL1  H18A 3136   3.328   0.503   7.544 -1.5353 -0.2627  0.0346
   43CHL1  H18B 3137   3.354   0.561   7.712 -0.3333  0.9831 -0.1146
   43CHL1  H18C 3138   3.246   0.411   7.678 -1.2960 -0.0629 -0.4239
   43CHL1   C12 3139   3.026   0.509   7.597  0.0283 -0.1536  0.0917
   43CHL1  H12A 3140   3.020   0.420   7.665  0.9435  0.6715  1.2619
   43CHL1  H12B 3141   2.933   0.567   7.614  1.5576  1.5462  2.9784
   43CHL1   C11 3142   3.028   0.460   7.448  0.1332 -0.2543 -0.9583
   43CHL1  H11A 3143   3.116   0.393   7.440  0.9505  0.7401 -0.4005
   43CHL1  H11B 3144   2.931   0.409   7.430 -1.5140  1.9879  1.2196
   43CHL1    C9 3145   3.062   0.574   7.351  0.0913 -0.3176  0.0743
   43CHL1    H9 3146   2.971   0.638   7.344  1.2365  1.3501  0.0851
   43CHL1   C10 3147   3.069   0.537   7.191  0.4414 -0.0066  0.1026
   43CHL1   C19 3148   3.170   0.416   7.166  0.3220  0.1765  0.4054
   43CHL1  H19A 3149   3.161   0.411   7.055 -1.2945  1.6748  0.4434
   43CHL1  H19B 3150   3.272   0.442   7.198 -0.2448  1.1339  1.4571
   43CHL1  H19C 3151   3.137   0.323   7.217  1.7923 -0.9022 -0.5695
   43CHL1    C1 3152   2.929   0.493   7.137  0.4653  0.4726  0.1540
   43CHL1   H1A 3153   2.891   0.407   7.195  0.1111  0.6364  0.1644
   43CHL1   H1B 3154   2.874   0.584   7.169 -1.7104 -0.9025  0.4459
   43CHL1    C2 3155   2.914   0.461   6.980  0.4580  0.1697  0.2259
   43CHL1   H2A 3156   2.808   0.446   6.950  0.9921  0.7264 -2.0732
   43CHL1   H2B 3157   2.970   0.367   6.958  0.5209  0.4168 -0.6949
   43CHL1   C20 3158   3.162   0.622   7.897  0.0034 -0.0660 -0.3792
   43CHL1   H20 3159   3.252   0.557   7.894 -0.7414 -1.1199 -0.0525
   43CHL1   C21 3160   3.054   0.518   7.929 -0.2507 -0.4791  0.0451
   43CHL1  H21A 3161   3.081   0.462   8.022  0.8299 -0.9123 -0.5237
   43CHL1  H21B 3162   3.055   0.433   7.858  1.6487  2.5708 -3.7512
   43CHL1  H21C 3163   2.956   0.571   7.934  0.0895 -0.0030  2.2702
   43CHL1   C22 3164   3.182   0.718   8.011 -0.0062 -0.1907  0.2369
   43CHL1  H22A 3165   3.275   0.778   7.999  0.1287 -0.6559 -1.0682
   43CHL1  H22B 3166   3.100   0.793   8.011  1.3409  1.3212  0.6278
   43CHL1   C23 3167   3.183   0.658   8.155 -0.3977 -0.3509  0.1347
   43CHL1  H23A 3168   3.086   0.606   8.170 -1.0395  0.3324 -1.5930
   43CHL1  H23B 3169   3.262   0.581   8.172 -1.0700 -0.1780  4.7227
   43CHL1   C24 3170   3.195   0.761   8.273  0.0960  0.2064  0.5187
   43CHL1  H24A 3171   3.277   0.827   8.238 -1.8610  2.2172 -0.3771
   43CHL1  H24B 3172   3.102   0.820   8.264 -0.0432  0.0995  1.1898
   43CHL1   C25 3173   3.212   0.695   8.414  0.5262  0.3031 -0.1019
   43CHL1   H25 3174   3.300   0.630   8.396  1.0015  1.4242 -1.9071
   43CHL1   C26 3175   3.231   0.806   8.520  0.7951  0.5215  0.4792
   43CHL1  H26A 3176   3.327   0.860   8.504  1.4551 -0.9149 -0.4557
   43CHL1  H26B 3177   3.148   0.878   8.533  0.8368  0.0711  3.7059
   43CHL1  H26C 3178   3.242   0.760   8.621 -2.3945  2.8806  2.0101
   43CHL1   C27 3179   3.098   0.602   8.456 -0.1260  0.2856 -0.0100
   43CHL1  H27A 3180   3.003   0.656   8.475  0.6008  1.3413  0.6066
   43CHL1  H27B 3181   3.078   0.523   8.380 -2.1599 -1.3843  2.1789
   43CHL1  H27C 3182   3.126   0.548   8.549  0.0340  1.5866  0.7025
   44CHL1    C3 3183   2.862   6.130   6.716 -0.1350  0.1421 -0.3618
   44CHL1    H3 3184   2.760   6.172   6.729 -0.0409  1.7399 -3.9691
   44CHL1    O3 3185   2.882   6.117   6.575 -0.3605  0.7081  0.3398
   44CHL1   H3' 3186   2.886   6.209   6.548 -0.9167  0.7109  0.2537
   44CHL1    C4 3187   2.978   6.215   6.775 -0.3014  0.5128 -0.3264
   44CHL1   H4A 3188   3.078   6.176   6.746  0.4422  2.8470 -0.9581
   44CHL1   H4B 3189   2.968   6.316   6.730 -0.8675  1.7888  2.5289
   44CHL1    C5 3190   2.963   6.214   6.925 -0.2652 -0.3338 -0.0092
   44CHL1    C6 3191   2.943   6.330   6.992 -0.4223  0.0423  0.5683
   44CHL1    H6 3192   2.943   6.425   6.935  0.0165 -0.9834 -1.1749
   44CHL1    C7 3193   2.929   6.342   7.137 -0.1192 -0.0169  0.1769
   44CHL1   H7A 3194   2.983   6.433   7.168  0.7528 -0.5342  0.1901
   44CHL1   H7B 3195   2.820   6.350   7.159 -0.1410  1.3285 -0.3846
   44CHL1    C8 3196   2.978   6.213   7.212 -0.2300 -0.1632  0.0414
   44CHL1    H8 3197   3.088   6.220   7.224 -0.2453  2.0790 -0.8209
   44CHL1   C14 3198   2.931   6.228   7.359  0.8322  0.7247  0.2290
   44CHL1   H14 3199   2.821   6.219   7.351  0.8452 -0.6325  1.3478
   44CHL1   C15 3200   2.955   6.359   7.433  0.1269  0.5206 -0.0274
   44CHL1  H15A 3201   3.059   6.397   7.423  0.9889 -2.4230 -3.2051
   44CHL1  H15B 3202   2.881   6.438   7.408 -2.4926 -1.6726  0.4927
   44CHL1   C16 3203   2.937   6.311   7.574  0.1145 -0.8376 -0.2865
   44CHL1  H16A 3204   3.035   6.329   7.622 -0.0326  0.6258 -0.5192
   44CHL1  H16B 3205   2.852   6.365   7.620  1.1030  0.8826 -0.4253
   44CHL1   C17 3206   2.921   6.155   7.584  0.4291 -0.1285 -0.5201
   44CHL1   H17 3207   2.810   6.146   7.588  0.4886 -0.9372 -0.6394
   44CHL1   C13 3208   2.968   6.107   7.454  0.4051  1.0036  0.1764
   44CHL1   C18 3209   3.122   6.085   7.470  0.4312  0.1966 -0.2069
   44CHL1  H18A 3210   3.165   6.158   7.542  0.6675  0.2057 -0.3573
   44CHL1  H18B 3211   3.150   5.982   7.499  1.3269 -0.2823 -2.6772
   44CHL1  H18C 3212   3.169   6.115   7.374  0.5914 -0.7552 -0.4273
   44CHL1   C12 3213   2.906   5.975   7.390  0.1805 -0.2663  0.8251
   44CHL1  H12A 3214   2.934   5.889   7.454  0.7965 -0.3828  0.4008
   44CHL1  H12B 3215   2.795   5.981   7.390  0.1359 -0.7383 -1.4611
   44CHL1   C11 3216   2.956   5.959   7.241  0.1278 -0.0495 -0.4544
   44CHL1  H11A 3217   3.066   5.947   7.249  0.4750  2.3711 -1.0709
   44CHL1  H11B 3218   2.919   5.863   7.198 -0.8697  0.4060 -0.6303
   44CHL1    C9 3219   2.925   6.085   7.154 -0.5064  0.3098 -0.2566
   44CHL1    H9 3220   2.814   6.089   7.159 -0.3927  1.8533  1.4682
   44CHL1   C10 3221   2.966   6.076   6.999 -0.2538  0.2314  0.0370
   44CHL1   C19 3222   3.107   6.013   6.996  0.1917 -0.2760  0.4448
   44CHL1  H19A 3223   3.169   6.077   7.063  3.1269 -2.3361 -0.2262
   44CHL1  H19B 3224   3.112   5.909   7.032 -1.6978 -0.9737 -1.2574
   44CHL1  H19C 3225   3.152   6.008   6.895 -0.4735 -0.6987  0.1713
   44CHL1    C1 3226   2.871   5.978   6.924 -0.4810 -0.7391  0.2032
   44CHL1   H1A 3227   2.873   5.874   6.962 -2.6815 -0.7254  0.4561
   44CHL1   H1B 3228   2.767   6.013   6.945 -1.3131 -2.0885 -1.5515
   44CHL1    C2 3229   2.883   5.979   6.775  0.2981 -0.4024  0.5290
   44CHL1   H2A 3230   2.794   5.922   6.740 -0.6062  2.3061 -1.7812
   44CHL1   H2B 3231   2.976   5.933   6.738 -0.8042 -0.8133 -1.8192
   44CHL1   C20 3232   2.959   6.094   7.724 -0.1949  0.2541  0.5356
   44CHL1   H20 3233   3.064   6.124   7.742  0.8736 -2.5873 -0.7229
   44CHL1   C21 3234   2.958   5.941   7.729  0.2857  0.1964 -0.1264
   44CHL1  H21A 3235   2.864   5.905   7.684 -0.3187 -0.0722  1.3300
   44CHL1  H21B 3236   2.970   5.906   7.833  0.6106 -0.8544 -0.5200
   44CHL1  H21C 3237   3.040   5.908   7.662 -0.4790 -1.9155 -0.0265
   44CHL1   C22 3238   2.871   6.154   7.840 -0.0910 -0.4175 -0.1435
   44CHL1  H22A 3239   2.856   6.263   7.824  0.2230 -0.1089  1.5335
   44CHL1  H22B 3240   2.767   6.114   7.838  0.7150 -2.5524 -0.7447
   44CHL1   C23 3241   2.926   6.144   7.984  0.5009  0.0947  0.6078
   44CHL1  H23A 3242   2.943   6.039   8.016  1.7556  0.6949  2.0021
   44CHL1  H23B 3243   3.027   6.191   7.989  1.0071 -0.7561 -1.4063
   44CHL1   C24 3244   2.828   6.203   8.096 -0.5569  0.2177 -0.0240
   44CHL1  H24A 3245   2.790   6.303   8.065  1.3586  0.6279 -1.1499
   44CHL1  H24B 3246   2.743   6.132   8.100  0.9495 -1.5510  1.1443
   44CHL1   C25 3247   2.896   6.220   8.230  0.6215  0.2011  0.0580
   44CHL1   H25 3248   2.967   6.305   8.222  2.2336 -1.1909 -0.6667
   44CHL1   C26 3249   2.797   6.274   8.330 -0.0927  0.3805  0.3256
   44CHL1  H26A 3250   2.717   6.197   8.330 -0.6009  0.9019  0.3559
   44CHL1  H26B 3251   2.846   6.296   8.427  1.7007  0.3060 -0.5331
   44CHL1  H26C 3252   2.739   6.361   8.293 -2.1315 -0.3995  1.6468
   44CHL1   C27 3253   2.974   6.096   8.280  0.2769 -0.0528 -0.2269
   44CHL1  H27A 3254   3.000   6.108   8.387 -1.5797  0.0461  0.2324
   44CHL1  H27B 3255   2.915   6.002   8.280  0.9225 -0.4739 -1.7770
   44CHL1  H27C 3256   3.067   6.084   8.219  1.4277  0.0735  1.4711
   45CHL1    C3 3257   4.432   4.822   6.707 -0.4189 -0.1924  0.0477
   45CHL1    H3 3258   4.543   4.822   6.720 -0.4995 -0.7567  0.7630
   45CHL1    O3 3259   4.401   4.867   6.578  0.1571 -0.1364  0.1297
   45CHL1   H3' 3260   4.309   4.892   6.578  0.4052  0.8024  1.3040
   45CHL1    C4 3261   4.374   4.677   6.739  0.1279  0.0141  0.1378
   45CHL1   H4A 3262   4.265   4.682   6.717  0.3175  0.8505 -0.6546
   45CHL1   H4B 3263   4.418   4.602   6.671 -2.5522 -0.6251 -0.9540
   45CHL1    C5 3264   4.395   4.633   6.879  0.7542 -0.0383  0.7674
   45CHL1    C6 3265   4.458   4.517   6.914 -0.5482  0.1759  0.3974
   45CHL1    H6 3266   4.498   4.449   6.837 -0.3682  0.0017  0.6445
   45CHL1    C7 3267   4.474   4.480   7.055  0.3958 -0.2519 -0.2322
   45CHL1   H7A 3268   4.433   4.377   7.067  1.5381 -0.6741  0.1432
   45CHL1   H7B 3269   4.582   4.490   7.075  0.6890  0.2019 -1.9060
   45CHL1    C8 3270   4.390   4.555   7.162  0.4703 -0.0170  0.0973
   45CHL1    H8 3271   4.288   4.514   7.142 -0.3199  2.3304 -0.8930
   45CHL1   C14 3272   4.440   4.527   7.302  0.0859 -1.3501 -0.6841
   45CHL1   H14 3273   4.542   4.572   7.310 -0.8600  0.9795 -1.3309
   45CHL1   C15 3274   4.430   4.386   7.361  0.1879 -0.2815  0.4538
   45CHL1  H15A 3275   4.339   4.330   7.330  0.0017  0.3716 -0.1982
   45CHL1  H15B 3276   4.521   4.338   7.318  0.7749  1.1514  0.0574
   45CHL1   C16 3277   4.439   4.407   7.512  0.1869 -0.2920 -0.3879
   45CHL1  H16A 3278   4.355   4.354   7.562 -0.9391  1.1272 -0.7492
   45CHL1  H16B 3279   4.536   4.377   7.555 -0.8267 -0.3925  1.8607
   45CHL1   C17 3280   4.420   4.557   7.537 -0.1641  0.0213  0.2683
   45CHL1   H17 3281   4.522   4.600   7.541  0.1206 -0.5763 -0.4386
   45CHL1   C13 3282   4.365   4.616   7.402  0.5553  0.3046  0.0553
   45CHL1   C18 3283   4.215   4.580   7.391  0.3027 -0.2541  1.2376
   45CHL1  H18A 3284   4.151   4.616   7.475  2.2342  1.3431  2.0615
   45CHL1  H18B 3285   4.162   4.626   7.304 -2.4574 -0.2104  2.8684
   45CHL1  H18C 3286   4.192   4.471   7.387  0.8148 -0.4160  2.4892
   45CHL1   C12 3287   4.395   4.766   7.382 -0.9185  0.6688 -0.5736
   45CHL1  H12A 3288   4.329   4.820   7.453  1.2327 -0.0849  2.1098
   45CHL1  H12B 3289   4.502   4.793   7.395 -1.1898  0.8194  1.4893
   45CHL1   C11 3290   4.348   4.815   7.246  0.1459 -0.4563  0.9538
   45CHL1  H11A 3291   4.238   4.830   7.254 -0.1006 -2.4078  1.4962
   45CHL1  H11B 3292   4.395   4.913   7.220  0.2771 -1.1117 -1.4441
   45CHL1    C9 3293   4.393   4.710   7.133  0.2193 -0.1535 -0.3832
   45CHL1    H9 3294   4.504   4.723   7.136  0.1685  0.0495  1.1326
   45CHL1   C10 3295   4.347   4.737   6.986  0.0908 -0.1053  0.0133
   45CHL1   C19 3296   4.192   4.733   6.987  0.1066 -0.3132 -0.6620
   45CHL1  H19A 3297   4.147   4.636   7.018 -0.0334  0.1029  0.4517
   45CHL1  H19B 3298   4.155   4.807   7.061  0.1856 -1.4642  0.5371
   45CHL1  H19C 3299   4.146   4.762   6.890  2.0171  2.2528 -0.8482
   45CHL1    C1 3300   4.402   4.880   6.947 -0.1198  0.0326 -0.3064
   45CHL1   H1A 3301   4.361   4.958   7.015  2.4886  1.5990 -0.4665
   45CHL1   H1B 3302   4.512   4.880   6.964 -0.1869  2.3969  0.3785
   45CHL1    C2 3303   4.375   4.921   6.804 -0.0920  0.0479 -0.0258
   45CHL1   H2A 3304   4.411   5.024   6.785 -3.2476  1.0655 -0.8442
   45CHL1   H2B 3305   4.265   4.935   6.806 -0.2892 -1.5554  0.8159
   45CHL1   C20 3306   4.353   4.586   7.678  0.3436  0.1484  0.0639
   45CHL1   H20 3307   4.256   4.533   7.683  0.8891 -0.9683 -0.7421
   45CHL1   C21 3308   4.319   4.736   7.701 -0.1579 -0.7015 -0.4115
   45CHL1  H21A 3309   4.234   4.769   7.638 -0.3773  1.9160  1.1743
   45CHL1  H21B 3310   4.411   4.797   7.708 -1.5261  1.3139  0.4920
   45CHL1  H21C 3311   4.278   4.739   7.805 -0.3618 -0.6120 -0.4966
   45CHL1   C22 3312   4.444   4.533   7.796  0.2216 -0.7594 -0.4407
   45CHL1  H22A 3313   4.479   4.432   7.767  2.7750 -0.0690  0.1828
   45CHL1  H22B 3314   4.534   4.597   7.804  1.7027 -3.1895  3.3730
   45CHL1   C23 3315   4.371   4.533   7.929  0.1240  0.3400 -0.3176
   45CHL1  H23A 3316   4.332   4.631   7.962  1.1329  0.8766 -0.7089
   45CHL1  H23B 3317   4.272   4.499   7.892  0.1198  0.8707 -0.7982
   45CHL1   C24 3318   4.421   4.443   8.043 -0.3163 -0.4655  0.1291
   45CHL1  H24A 3319   4.405   4.338   8.011  1.8045 -0.2493 -1.8001
   45CHL1  H24B 3320   4.530   4.460   8.056 -0.2108 -1.0303 -0.0374
   45CHL1   C25 3321   4.357   4.465   8.183 -0.3749  0.3401  0.3968
   45CHL1   H25 3322   4.254   4.425   8.171  0.5688 -2.3321  0.9374
   45CHL1   C26 3323   4.415   4.362   8.285  0.8219 -0.0233  0.3051
   45CHL1  H26A 3324   4.436   4.266   8.234  0.2834  0.7174 -1.3350
   45CHL1  H26B 3325   4.505   4.418   8.319  0.2398  1.2250 -0.2004
   45CHL1  H26C 3326   4.351   4.350   8.376 -1.7721 -0.6389 -1.5555
   45CHL1   C27 3327   4.350   4.604   8.250  0.4068 -0.3488  0.1897
   45CHL1  H27A 3328   4.307   4.606   8.352 -0.3021  0.8298 -0.1276
   45CHL1  H27B 3329   4.448   4.655   8.266 -0.5869  1.4103  0.7576
   45CHL1  H27C 3330   4.287   4.670   8.187  0.6484 -0.7504 -0.4734
   46CHL1    C3 3331   3.805   5.638   7.140  0.4139 -0.4764 -0.1322
   46CHL1    H3 3332   3.708   5.684   7.110 -0.4005 -3.4107 -2.1834
   46CHL1    O3 3333   3.869   5.592   7.020 -0.0159  0.9311 -0.3144
   46CHL1   H3' 3334   3.797   5.543   6.979  1.4451 -0.2274 -1.5529
   46CHL1    C4 3335   3.908   5.740   7.198  0.8009  0.6596 -0.2467
   46CHL1   H4A 3336   4.006   5.688   7.193 -0.0792 -1.0133 -0.8160
   46CHL1   H4B 3337   3.904   5.828   7.130  0.8856  0.2206 -0.8267
   46CHL1    C5 3338   3.872   5.786   7.339  0.5531 -0.1475  0.2515
   46CHL1    C6 3339   3.879   5.916   7.373 -0.6085  0.1083  0.6275
   46CHL1    H6 3340   3.896   5.988   7.292  1.4684 -1.4771 -0.3961
   46CHL1    C7 3341   3.867   5.969   7.513  0.3865 -0.0726 -0.1202
   46CHL1   H7A 3342   3.945   6.047   7.528  1.1633 -0.9216  0.3590
   46CHL1   H7B 3343   3.767   6.016   7.520 -0.5770 -1.7613 -2.0657
   46CHL1    C8 3344   3.889   5.857   7.614  0.2242 -0.1377 -0.2545
   46CHL1    H8 3345   3.995   5.823   7.615 -0.0372 -0.9960 -1.3763
   46CHL1   C14 3346   3.846   5.896   7.757  0.2766 -0.0228 -0.2910
   46CHL1   H14 3347   3.738   5.921   7.751  0.0663 -0.8767 -0.0965
   46CHL1   C15 3348   3.919   6.023   7.813  0.3901  0.2005  0.3535
   46CHL1  H15A 3349   4.029   6.009   7.805  0.4239  0.6457  0.0938
   46CHL1  H15B 3350   3.882   6.112   7.760 -1.4974 -1.3320 -0.9714
   46CHL1   C16 3351   3.876   6.022   7.963 -0.6981 -0.4211 -0.8262
   46CHL1  H16A 3352   3.978   6.030   8.004 -0.5887 -0.4312 -1.0931
   46CHL1  H16B 3353   3.813   6.111   7.986  0.2255 -0.1011  0.5102
   46CHL1   C17 3354   3.800   5.882   7.990  1.0151 -0.7439 -0.1408
   46CHL1   H17 3355   3.692   5.900   7.977  0.7772 -1.8730  0.2176
   46CHL1   C13 3356   3.852   5.801   7.875  0.4777  0.1824  0.2476
   46CHL1   C18 3357   3.998   5.744   7.900  0.5347 -0.1893 -0.1266
   46CHL1  H18A 3358   4.065   5.831   7.916  0.1676  0.3931 -1.6328
   46CHL1  H18B 3359   4.012   5.688   7.994 -3.6514 -0.6290  0.3549
   46CHL1  H18C 3360   4.038   5.693   7.810 -2.8633 -0.9407 -1.3085
   46CHL1   C12 3361   3.755   5.683   7.831 -0.6528  0.4698 -0.3383
   46CHL1  H12A 3362   3.763   5.603   7.907 -0.8694 -0.6658 -1.4869
   46CHL1  H12B 3363   3.650   5.722   7.833 -1.0796 -0.4529 -2.7584
   46CHL1   C11 3364   3.791   5.628   7.690 -0.2043 -0.2188  0.0633
   46CHL1  H11A 3365   3.886   5.572   7.703 -0.7244 -1.3135 -0.7556
   46CHL1  H11B 3366   3.717   5.551   7.659 -0.9545 -0.0012  1.2722
   46CHL1    C9 3367   3.800   5.736   7.581  0.2057 -0.4473  0.5166
   46CHL1    H9 3368   3.692   5.761   7.571  0.2184 -1.8037 -4.1744
   46CHL1   C10 3369   3.841   5.677   7.441 -0.6187  0.5162 -0.4911
   46CHL1   C19 3370   3.969   5.597   7.464 -0.7611  0.0101 -0.4669
   46CHL1  H19A 3371   4.008   5.550   7.372  1.1890 -1.1275  0.9073
   46CHL1  H19B 3372   4.054   5.644   7.518 -1.3123 -0.2993  0.6973
   46CHL1  H19C 3373   3.942   5.503   7.517 -1.0420 -1.4722 -3.1591
   46CHL1    C1 3374   3.738   5.580   7.375  0.0983 -0.4745  0.1621
   46CHL1   H1A 3375   3.728   5.496   7.447 -2.9987 -0.9767 -0.7646
   46CHL1   H1B 3376   3.639   5.629   7.370  0.0570 -0.7824 -3.7980
   46CHL1    C2 3377   3.777   5.520   7.233 -0.4659 -0.3501 -0.3184
   46CHL1   H2A 3378   3.682   5.480   7.192  0.3169 -1.9415 -0.6348
   46CHL1   H2B 3379   3.852   5.440   7.250  1.5083  1.6895  0.8331
   46CHL1   C20 3380   3.819   5.836   8.139 -0.1448 -0.0003 -0.4018
   46CHL1   H20 3381   3.926   5.810   8.155 -0.2339 -1.1704 -1.6080
   46CHL1   C21 3382   3.723   5.714   8.169  0.4414 -0.4165 -0.0957
   46CHL1  H21A 3383   3.616   5.742   8.158  0.2770 -1.8559 -2.4173
   46CHL1  H21B 3384   3.740   5.684   8.275 -0.1437 -0.9897 -0.1645
   46CHL1  H21C 3385   3.754   5.628   8.106 -1.9965 -0.9477 -0.6280
   46CHL1   C22 3386   3.792   5.946   8.243  0.2030 -0.1956 -0.4921
   46CHL1  H22A 3387   3.839   6.047   8.235  0.8319 -0.4453 -0.0230
   46CHL1  H22B 3388   3.683   5.967   8.239  0.0469 -0.9657 -0.1820
   46CHL1   C23 3389   3.808   5.906   8.390  0.9193  0.0714 -0.8957
   46CHL1  H23A 3390   3.720   5.847   8.423  1.1435  0.6553  0.8082
   46CHL1  H23B 3391   3.880   5.824   8.406  0.4954 -0.4533 -1.6375
   46CHL1   C24 3392   3.825   6.022   8.495  0.7713 -0.2245 -0.2712
   46CHL1  H24A 3393   3.834   5.989   8.600 -1.3350  5.4233  1.8683
   46CHL1  H24B 3394   3.920   6.070   8.464  1.7034 -0.6234  1.8847
   46CHL1   C25 3395   3.707   6.128   8.497 -0.0218 -0.4037 -0.0598
   46CHL1   H25 3396   3.702   6.174   8.397 -0.9476 -0.3627  0.0092
   46CHL1   C26 3397   3.570   6.058   8.520 -0.0448 -0.7645 -0.9218
   46CHL1  H26A 3398   3.549   5.981   8.443  1.6858 -0.0236 -2.1884
   46CHL1  H26B 3399   3.573   6.018   8.623  0.8697 -2.6667 -1.6642
   46CHL1  H26C 3400   3.500   6.145   8.521  1.3995  0.4263  0.7813
   46CHL1   C27 3401   3.717   6.242   8.599  0.1485  0.4145  0.7397
   46CHL1  H27A 3402   3.663   6.330   8.558  0.1526  0.9792  1.9063
   46CHL1  H27B 3403   3.681   6.215   8.701 -2.1579  0.3434 -0.0493
   46CHL1  H27C 3404   3.820   6.280   8.614 -0.2354  1.3514  1.0898
   47CHL1    C3 3405   3.176   5.662   6.717  0.0434  0.5547  0.6354
   47CHL1    H3 3406   3.173   5.771   6.742  0.3511  0.6859  0.1214
   47CHL1    O3 3407   3.194   5.655   6.575  0.4407  0.4159 -0.6723
   47CHL1   H3' 3408   3.279   5.613   6.561  0.0886 -0.4160 -0.2817
   47CHL1    C4 3409   3.297   5.597   6.798 -0.0486  0.0256  0.8377
   47CHL1   H4A 3410   3.289   5.493   6.759 -0.7474  0.5260 -0.3820
   47CHL1   H4B 3411   3.395   5.633   6.762  0.1306 -0.5472  0.7422
   47CHL1    C5 3412   3.279   5.606   6.950 -0.3704  0.5662  0.0465
   47CHL1    C6 3413   3.371   5.663   7.026 -0.2209  0.2298 -0.1845
   47CHL1    H6 3414   3.469   5.694   6.986 -0.3887  0.6087 -0.3089
   47CHL1    C7 3415   3.358   5.669   7.178  0.0786 -0.1858  0.0421
   47CHL1   H7A 3416   3.456   5.644   7.225 -0.1086 -1.4633 -0.2202
   47CHL1   H7B 3417   3.324   5.774   7.187 -2.3959 -0.8817 -0.8693
   47CHL1    C8 3418   3.252   5.576   7.233 -0.2571  0.1317  0.3731
   47CHL1    H8 3419   3.289   5.472   7.224 -0.0840 -0.0319  2.7167
   47CHL1   C14 3420   3.230   5.612   7.378  0.3284 -0.0717 -1.2687
   47CHL1   H14 3421   3.196   5.717   7.389  1.8757  0.2893  0.3146
   47CHL1   C15 3422   3.354   5.607   7.471  0.2029  0.1269  0.0945
   47CHL1  H15A 3423   3.398   5.507   7.452 -0.2380 -0.1623  0.6056
   47CHL1  H15B 3424   3.428   5.690   7.458  0.7167 -0.2843  0.3821
   47CHL1   C16 3425   3.295   5.605   7.611 -0.3087 -0.1911 -0.1057
   47CHL1  H16A 3426   3.332   5.518   7.669  1.7685  0.9103  0.2626
   47CHL1  H16B 3427   3.321   5.700   7.662  1.0852  0.6299 -2.2739
   47CHL1   C17 3428   3.140   5.585   7.591 -0.3501  0.4267 -0.0158
   47CHL1   H17 3429   3.098   5.687   7.576 -2.1924 -0.5581 -1.7843
   47CHL1   C13 3430   3.122   5.532   7.445 -1.3927 -0.1004 -0.3682
   47CHL1   C18 3431   3.159   5.389   7.442  0.1642 -0.2816 -1.2773
   47CHL1  H18A 3432   3.239   5.363   7.514 -1.4597 -1.1009  0.2618
   47CHL1  H18B 3433   3.062   5.342   7.471 -0.0802  0.8595 -0.1948
   47CHL1  H18C 3434   3.179   5.348   7.341 -0.2290 -1.1085 -1.0303
   47CHL1   C12 3435   2.986   5.546   7.368  0.5507 -0.3279  0.2171
   47CHL1  H12A 3436   2.913   5.477   7.416 -2.1650  1.7269 -0.8430
   47CHL1  H12B 3437   2.952   5.651   7.383 -0.2510 -0.4441 -0.7847
   47CHL1   C11 3438   3.000   5.519   7.220 -0.1348  0.4316 -0.7563
   47CHL1  H11A 3439   3.016   5.410   7.213  0.6099  0.2784  2.3885
   47CHL1  H11B 3440   2.900   5.541   7.177  0.2723  2.1680 -0.8885
   47CHL1    C9 3441   3.122   5.590   7.154  0.0296  0.6167 -0.4581
   47CHL1    H9 3442   3.095   5.698   7.163  1.6660  0.9622  0.4612
   47CHL1   C10 3443   3.148   5.551   7.001  0.1581  0.0478 -0.8165
   47CHL1   C19 3444   3.154   5.394   6.986 -0.9166 -0.3597  0.6718
   47CHL1  H19A 3445   3.135   5.364   6.881  0.9267  2.8964 -0.6480
   47CHL1  H19B 3446   3.250   5.346   7.015 -0.1498  1.0708  0.5619
   47CHL1  H19C 3447   3.086   5.338   7.054 -0.9894  1.9725  2.6096
   47CHL1    C1 3448   3.021   5.609   6.915 -0.1508  0.1380  0.2904
   47CHL1   H1A 3449   2.926   5.558   6.942  0.9855 -2.8546 -1.0748
   47CHL1   H1B 3450   3.007   5.718   6.926 -0.4496  0.2212 -0.9120
   47CHL1    C2 3451   3.047   5.599   6.758 -0.4065  0.1269  0.4902
   47CHL1   H2A 3452   2.962   5.646   6.705  0.0190  1.6077  1.1042
   47CHL1   H2B 3453   3.046   5.491   6.732  2.2968  0.1526  0.1076
   47CHL1   C20 3454   3.076   5.521   7.715 -0.7687  0.6307 -0.4733
   47CHL1   H20 3455   3.135   5.433   7.750 -0.3750  1.7599  1.8309
   47CHL1   C21 3456   2.932   5.472   7.681  0.0002 -0.2116 -0.3107
   47CHL1  H21A 3457   2.941   5.373   7.631  0.5446 -0.6776  0.6960
   47CHL1  H21B 3458   2.873   5.546   7.622 -1.5931  0.2419  1.7892
   47CHL1  H21C 3459   2.869   5.432   7.764 -1.1626  0.4283 -0.8747
   47CHL1   C22 3460   3.070   5.630   7.829 -0.3056  0.4278 -0.6266
   47CHL1  H22A 3461   3.150   5.706   7.811  0.2142  0.4941  1.7803
   47CHL1  H22B 3462   2.980   5.689   7.803 -2.7818 -2.9194  0.0964
   47CHL1   C23 3463   3.053   5.578   7.970 -0.0653 -0.2425 -0.6521
   47CHL1  H23A 3464   3.049   5.662   8.043  2.1430  1.5057 -2.4584
   47CHL1  H23B 3465   2.964   5.512   7.967 -1.2494  1.1168  2.3033
   47CHL1   C24 3466   3.181   5.484   8.004 -0.1678  0.7622  0.3869
   47CHL1  H24A 3467   3.160   5.431   8.099 -0.5190  1.7802  0.8889
   47CHL1  H24B 3468   3.223   5.417   7.926 -2.0352  0.5337 -0.4518
   47CHL1   C25 3469   3.307   5.570   8.040 -0.0982 -0.1950  0.2059
   47CHL1   H25 3470   3.310   5.657   7.971 -0.1298 -1.1918 -1.0810
   47CHL1   C26 3471   3.294   5.619   8.188  0.5598  0.3094 -0.0488
   47CHL1  H26A 3472   3.278   5.536   8.259 -2.2952  0.7350 -0.1605
   47CHL1  H26B 3473   3.393   5.658   8.219  0.0411  0.9920  0.7486
   47CHL1  H26C 3474   3.225   5.704   8.202  0.9894  0.6150  0.2248
   47CHL1   C27 3475   3.430   5.485   8.019 -0.4310 -0.1116  0.1704
   47CHL1  H27A 3476   3.524   5.533   8.051  0.8368 -1.7766 -0.9322
   47CHL1  H27B 3477   3.414   5.392   8.078  0.0537 -0.3061 -0.0031
   47CHL1  H27C 3478   3.464   5.469   7.914  0.9227  0.6488  0.4827
   48CHL1    C3 3479   6.552   1.342   6.492 -0.2044  0.3446  0.2164
   48CHL1    H3 3480   6.453   1.389   6.512 -0.5572 -1.5090  3.0798
   48CHL1    O3 3481   6.571   1.330   6.352  0.0461  0.3764  0.6614
   48CHL1   H3' 3482   6.490   1.360   6.311 -1.0511 -1.4612  1.4175
   48CHL1    C4 3483   6.664   1.433   6.544  0.9499 -0.3571 -0.4589
   48CHL1   H4A 3484   6.768   1.400   6.524  1.4403  0.0521  1.3787
   48CHL1   H4B 3485   6.650   1.532   6.495 -0.8626 -0.0276  0.6673
   48CHL1    C5 3486   6.636   1.444   6.695  0.6494  0.3730  0.4176
   48CHL1    C6 3487   6.600   1.561   6.748 -0.6456  0.2959  0.2599
   48CHL1    H6 3488   6.588   1.643   6.676 -0.6240 -1.9901 -2.3910
   48CHL1    C7 3489   6.586   1.591   6.896 -0.2789  0.8432  0.5049
   48CHL1   H7A 3490   6.628   1.686   6.935 -0.6726  1.5450 -0.7772
   48CHL1   H7B 3491   6.482   1.605   6.932  0.3716  1.2220  2.3387
   48CHL1    C8 3492   6.648   1.477   6.982  0.5047 -0.7028  0.0857
   48CHL1    H8 3493   6.759   1.473   6.979  0.5594 -0.2525  1.1930
   48CHL1   C14 3494   6.612   1.500   7.134 -0.3436 -0.3243 -0.1668
   48CHL1   H14 3495   6.503   1.510   7.150  0.0362 -0.2396  2.7144
   48CHL1   C15 3496   6.657   1.630   7.205 -0.3454  0.5238  0.4406
   48CHL1  H15A 3497   6.768   1.632   7.194 -0.2399  0.2103  1.3758
   48CHL1  H15B 3498   6.605   1.717   7.160  1.6418  0.3198 -2.3957
   48CHL1   C16 3499   6.643   1.596   7.354 -0.5388 -0.2511 -0.3676
   48CHL1  H16A 3500   6.735   1.624   7.410  0.2866 -3.0028 -0.2567
   48CHL1  H16B 3501   6.556   1.653   7.393  0.9354  1.4721  0.4579
   48CHL1   C17 3502   6.611   1.443   7.359  0.6035 -0.5607 -0.0730
   48CHL1   H17 3503   6.501   1.438   7.369  0.3390  0.5126 -2.1708
   48CHL1   C13 3504   6.651   1.387   7.222  0.3972 -0.2633 -0.1197
   48CHL1   C18 3505   6.808   1.369   7.222  0.1091 -0.5154 -0.1531
   48CHL1  H18A 3506   6.837   1.294   7.298 -0.4603 -1.3813 -0.7910
   48CHL1  H18B 3507   6.838   1.338   7.120 -4.0410  2.4998 -2.4881
   48CHL1  H18C 3508   6.868   1.457   7.253  0.2933 -0.9709  0.7980
   48CHL1   C12 3509   6.574   1.255   7.175 -0.4622 -0.1043 -0.0940
   48CHL1  H12A 3510   6.605   1.170   7.239 -1.2730 -1.8057 -1.9090
   48CHL1  H12B 3511   6.468   1.284   7.191  0.0135  1.6036  0.1581
   48CHL1   C11 3512   6.611   1.224   7.034  0.0433 -0.2878 -0.2141
   48CHL1  H11A 3513   6.715   1.192   7.013  1.8084  3.3467  2.4907
   48CHL1  H11B 3514   6.547   1.140   6.998 -0.5655  0.2375 -0.3630
   48CHL1    C9 3515   6.588   1.343   6.933  0.6206 -0.0013 -0.3135
   48CHL1    H9 3516   6.478   1.355   6.921  0.6274 -0.9363 -1.3481
   48CHL1   C10 3517   6.639   1.322   6.783  0.1377  0.3506  0.2019
   48CHL1   C19 3518   6.785   1.271   6.778  0.0053 -0.5686 -0.4569
   48CHL1  H19A 3519   6.846   1.329   6.850  0.5105  1.1910 -2.2813
   48CHL1  H19B 3520   6.808   1.171   6.822  3.0075  0.6104  0.7436
   48CHL1  H19C 3521   6.835   1.292   6.681 -1.0643  0.8430 -0.7091
   48CHL1    C1 3522   6.549   1.211   6.716 -0.9648 -0.2341  0.2534
   48CHL1   H1A 3523   6.568   1.111   6.760  3.8390  0.1832 -0.6347
   48CHL1   H1B 3524   6.443   1.238   6.734 -1.2938  0.1573 -2.1002
   48CHL1    C2 3525   6.574   1.198   6.558 -0.6712  0.9310  0.5945
   48CHL1   H2A 3526   6.506   1.127   6.507  0.6908  2.3959 -3.4717
   48CHL1   H2B 3527   6.676   1.158   6.541 -0.7551  1.0429 -0.2285
   48CHL1   C20 3528   6.666   1.382   7.484  0.1061 -0.2581 -0.2858
   48CHL1   H20 3529   6.777   1.384   7.483  0.0958  0.9315 -2.9095
   48CHL1   C21 3530   6.618   1.237   7.502  0.1271  0.4920  0.0472
   48CHL1  H21A 3531   6.672   1.169   7.432 -1.5398 -0.0527 -0.7134
   48CHL1  H21B 3532   6.509   1.232   7.481 -0.1628  0.9050  1.4347
   48CHL1  H21C 3533   6.642   1.199   7.604  0.1135 -0.6653 -0.3752
   48CHL1   C22 3534   6.637   1.457   7.616  0.4031 -0.5573 -0.0141
   48CHL1  H22A 3535   6.695   1.401   7.693 -1.1570 -0.6549  1.1094
   48CHL1  H22B 3536   6.680   1.560   7.623  0.3773 -0.6613  2.2883
   48CHL1   C23 3537   6.487   1.475   7.649 -0.4268 -0.4240  0.2097
   48CHL1  H23A 3538   6.432   1.537   7.574 -2.5531 -0.9612  1.2887
   48CHL1  H23B 3539   6.430   1.380   7.640  1.6779 -1.7026  0.0961
   48CHL1   C24 3540   6.471   1.543   7.787 -0.1820  0.3061  0.2785
   48CHL1  H24A 3541   6.528   1.638   7.793  2.5316 -1.2115 -0.5182
   48CHL1  H24B 3542   6.367   1.583   7.791  0.3173  1.6554 -0.0511
   48CHL1   C25 3543   6.497   1.462   7.915 -0.2556  0.4915 -0.4387
   48CHL1   H25 3544   6.605   1.440   7.924 -0.1320  1.0676 -0.4793
   48CHL1   C26 3545   6.451   1.543   8.039 -0.2763  0.4975  0.8115
   48CHL1  H26A 3546   6.340   1.546   8.039 -0.2550  1.5571 -1.3042
   48CHL1  H26B 3547   6.492   1.502   8.134 -1.8335  0.6784  1.5719
   48CHL1  H26C 3548   6.489   1.646   8.024  0.6778  0.2560  1.4355
   48CHL1   C27 3549   6.416   1.325   7.910  0.2562 -0.5643  0.0743
   48CHL1  H27A 3550   6.457   1.278   7.818  1.3260 -0.2047  0.3594
   48CHL1  H27B 3551   6.430   1.261   7.999  0.7427  0.7143  0.9330
   48CHL1  H27C 3552   6.311   1.357   7.893  0.2311 -1.1767 -0.9517
   49CHL1    C3 3553   5.530   2.423   6.571  0.8691  0.8596 -0.3319
   49CHL1    H3 3554   5.575   2.323   6.553 -1.4376 -0.5751  1.5318
   49CHL1    O3 3555   5.511   2.483   6.444  0.9583  0.3680 -0.2257
   49CHL1   H3' 3556   5.455   2.557   6.466  1.4484  0.5227  0.4952
   49CHL1    C4 3557   5.389   2.386   6.627 -0.6290 -0.2186 -0.0551
   49CHL1   H4A 3558   5.330   2.479   6.616 -0.6211  0.0198  1.8253
   49CHL1   H4B 3559   5.345   2.310   6.558 -0.0377 -0.0632 -0.6092
   49CHL1    C5 3560   5.386   2.347   6.777 -0.0384 -0.0345 -0.1582
   49CHL1    C6 3561   5.319   2.235   6.815 -0.3266  0.6543  0.3372
   49CHL1    H6 3562   5.270   2.169   6.742 -1.5109 -0.5124  2.1638
   49CHL1    C7 3563   5.302   2.194   6.963 -0.2753 -0.1648 -0.1453
   49CHL1   H7A 3564   5.197   2.168   6.986 -0.5702 -0.3358 -1.6218
   49CHL1   H7B 3565   5.376   2.114   6.985  0.1317 -0.4951 -2.5043
   49CHL1    C8 3566   5.348   2.309   7.063 -0.3039  0.0069  0.6384
   49CHL1    H8 3567   5.262   2.379   7.070  0.1379  0.5070  1.1499
   49CHL1   C14 3568   5.373   2.259   7.205 -0.3694 -0.1671 -0.7751
   49CHL1   H14 3569   5.467   2.201   7.201  0.4265  0.9949  0.5901
   49CHL1   C15 3570   5.264   2.171   7.266 -0.0507  0.2398  0.4271
   49CHL1  H15A 3571   5.158   2.201   7.252 -0.2951 -1.5144 -1.6879
   49CHL1  H15B 3572   5.272   2.072   7.216 -4.3653  0.2673 -0.5013
   49CHL1   C16 3573   5.307   2.158   7.408 -0.3225 -0.3480 -0.3788
   49CHL1  H16A 3574   5.216   2.172   7.469  0.2015 -1.4922  0.6712
   49CHL1  H16B 3575   5.357   2.064   7.439 -2.6076 -1.5415 -0.2208
   49CHL1   C17 3576   5.408   2.284   7.438  0.0619 -0.0038 -0.4665
   49CHL1   H17 3577   5.509   2.237   7.441 -0.4276 -1.0458  0.3615
   49CHL1   C13 3578   5.404   2.367   7.307 -0.2368  0.7042 -0.2236
   49CHL1   C18 3579   5.286   2.462   7.308  0.6980 -0.9279  0.6212
   49CHL1  H18A 3580   5.299   2.540   7.386  0.2705 -0.8420  0.6071
   49CHL1  H18B 3581   5.269   2.528   7.219  0.0858 -0.9527  0.7187
   49CHL1  H18C 3582   5.194   2.407   7.334  0.2426 -0.6328 -0.3207
   49CHL1   C12 3583   5.531   2.442   7.267 -0.7057  0.5122 -0.1209
   49CHL1  H12A 3584   5.541   2.543   7.312  1.6690  0.5641 -0.6802
   49CHL1  H12B 3585   5.627   2.390   7.289 -1.4724 -0.2645  1.4981
   49CHL1   C11 3586   5.513   2.489   7.120  0.2265  0.1714 -0.2391
   49CHL1  H11A 3587   5.443   2.574   7.130  0.7955  0.7478 -1.0365
   49CHL1  H11B 3588   5.611   2.538   7.100 -0.5644  1.6008 -0.6106
   49CHL1    C9 3589   5.472   2.382   7.020  0.0496  0.1542 -0.0991
   49CHL1    H9 3590   5.551   2.304   7.025 -0.8179 -1.0269 -3.4634
   49CHL1   C10 3591   5.468   2.437   6.873  0.4028  0.0939  0.0064
   49CHL1   C19 3592   5.390   2.572   6.879 -0.2889  0.1713  0.0184
   49CHL1  H19A 3593   5.453   2.649   6.927  0.7820  0.0830 -1.2478
   49CHL1  H19B 3594   5.368   2.614   6.779 -1.8993 -2.6578 -0.8704
   49CHL1  H19C 3595   5.293   2.564   6.934 -0.6174  1.6343 -0.3298
   49CHL1    C1 3596   5.615   2.467   6.816 -0.2488 -0.0561  0.1081
   49CHL1   H1A 3597   5.665   2.547   6.874  1.6546 -1.3922  0.3657
   49CHL1   H1B 3598   5.668   2.373   6.842 -0.5799  0.1943  1.7296
   49CHL1    C2 3599   5.616   2.510   6.663  0.5276 -0.2531 -0.6929
   49CHL1   H2A 3600   5.718   2.530   6.622  0.8950 -0.8897 -0.1091
   49CHL1   H2B 3601   5.552   2.601   6.664 -0.4095 -0.9181 -0.0560
   49CHL1   C20 3602   5.380   2.349   7.575 -0.3561  0.0161  0.5518
   49CHL1   H20 3603   5.290   2.414   7.567 -1.1255 -1.2747 -2.0396
   49CHL1   C21 3604   5.493   2.452   7.600 -0.1755  0.6105  0.3423
   49CHL1  H21A 3605   5.589   2.398   7.602  0.7490  2.2077  3.5220
   49CHL1  H21B 3606   5.482   2.511   7.694 -5.3033  2.8861 -1.4930
   49CHL1  H21C 3607   5.491   2.524   7.515  2.4372 -0.2395 -0.4584
   49CHL1   C22 3608   5.360   2.241   7.693  0.5256  0.9353 -0.1364
   49CHL1  H22A 3609   5.272   2.179   7.664  2.0309 -0.6530 -1.4248
   49CHL1  H22B 3610   5.449   2.176   7.703  0.6131  0.6826 -2.3757
   49CHL1   C23 3611   5.330   2.313   7.820 -0.3316  0.2327 -0.7751
   49CHL1  H23A 3612   5.419   2.362   7.864 -1.0102 -0.0881  0.9877
   49CHL1  H23B 3613   5.254   2.389   7.794 -3.1977 -2.1220  0.3929
   49CHL1   C24 3614   5.269   2.207   7.916 -0.1899 -0.0676 -0.2326
   49CHL1  H24A 3615   5.173   2.172   7.874 -0.3049 -1.9541  1.4994
   49CHL1  H24B 3616   5.342   2.123   7.922  1.6762  1.4860 -0.4971
   49CHL1   C25 3617   5.232   2.262   8.057 -0.2511  0.3992 -0.0665
   49CHL1   H25 3618   5.179   2.358   8.039 -0.1462  0.7012  1.2066
   49CHL1   C26 3619   5.122   2.176   8.127 -0.6616 -0.2702 -1.0468
   49CHL1  H26A 3620   5.153   2.073   8.155  1.7483  0.3484 -1.2888
   49CHL1  H26B 3621   5.073   2.218   8.217  1.4255 -1.1468  0.5586
   49CHL1  H26C 3622   5.043   2.154   8.052  1.2843 -0.1343 -3.2091
   49CHL1   C27 3623   5.363   2.285   8.135  0.1648 -0.3247 -0.3559
   49CHL1  H27A 3624   5.416   2.365   8.080  0.8331 -0.9352 -0.6185
   49CHL1  H27B 3625   5.344   2.324   8.238  2.1426 -1.5887  0.5247
   49CHL1  H27C 3626   5.412   2.185   8.139  1.6996  0.3969 -0.7751
   50CHL1    C3 3627   6.527   3.358   6.802 -0.3759  0.6037  0.0161
   50CHL1    H3 3628   6.431   3.303   6.809  0.3808 -0.8443 -0.7211
   50CHL1    O3 3629   6.568   3.347   6.668 -0.4133 -0.7542 -0.6517
   50CHL1   H3' 3630   6.640   3.409   6.659 -2.1198  1.3293 -0.3023
   50CHL1    C4 3631   6.509   3.502   6.843  0.3379  0.1405 -0.3987
   50CHL1   H4A 3632   6.596   3.555   6.798 -1.3165  0.7035 -3.0190
   50CHL1   H4B 3633   6.417   3.544   6.798 -0.3763 -0.7125  0.2473
   50CHL1    C5 3634   6.491   3.521   6.987  0.0059  0.1913 -0.1554
   50CHL1    C6 3635   6.375   3.573   7.036  0.7870 -0.7668  1.0674
   50CHL1    H6 3636   6.295   3.594   6.963  0.1559 -1.3129  1.6007
   50CHL1    C7 3637   6.357   3.616   7.174  0.6197 -1.0085  0.4129
   50CHL1   H7A 3638   6.311   3.717   7.180 -0.9047 -1.6593  0.0302
   50CHL1   H7B 3639   6.290   3.546   7.229  0.5150 -1.1993  0.0449
   50CHL1    C8 3640   6.491   3.614   7.257 -0.4644 -0.5467  0.1731
   50CHL1    H8 3641   6.545   3.704   7.221 -2.9389  1.6959  1.9772
   50CHL1   C14 3642   6.449   3.612   7.412 -0.3190 -0.3658  0.5097
   50CHL1   H14 3643   6.397   3.514   7.423 -0.8866 -0.0779  0.3766
   50CHL1   C15 3644   6.366   3.721   7.467 -0.6906  0.6282 -0.6064
   50CHL1  H15A 3645   6.414   3.807   7.416 -0.9295 -0.1788 -2.2167
   50CHL1  H15B 3646   6.259   3.727   7.436 -0.8879 -0.7889 -0.2729
   50CHL1   C16 3647   6.391   3.711   7.620  0.0487 -0.0058 -0.5541
   50CHL1  H16A 3648   6.421   3.810   7.660  2.0039 -0.8345  0.0470
   50CHL1  H16B 3649   6.300   3.676   7.673 -0.4266 -1.6820 -2.3987
   50CHL1   C17 3650   6.505   3.613   7.642 -0.2352 -0.1649 -0.5593
   50CHL1   H17 3651   6.460   3.515   7.667  0.6479 -0.0956  1.3969
   50CHL1   C13 3652   6.569   3.606   7.502  1.0375 -0.8667 -0.7294
   50CHL1   C18 3653   6.669   3.724   7.470  0.0764 -0.1650  0.4928
   50CHL1  H18A 3654   6.620   3.823   7.476 -0.1949 -0.1398 -1.8464
   50CHL1  H18B 3655   6.754   3.736   7.540  0.2626 -0.0373  0.2443
   50CHL1  H18C 3656   6.712   3.716   7.368 -0.6581  1.0077  0.0830
   50CHL1   C12 3657   6.639   3.472   7.475  0.0729 -0.0137 -0.0784
   50CHL1  H12A 3658   6.725   3.465   7.544 -1.4392 -1.8376  1.6556
   50CHL1  H12B 3659   6.567   3.393   7.506  1.6518 -1.7841 -0.8612
   50CHL1   C11 3660   6.678   3.444   7.323  0.0085 -0.1174 -0.2332
   50CHL1  H11A 3661   6.779   3.488   7.306  1.0740 -1.8641  1.3966
   50CHL1  H11B 3662   6.672   3.333   7.324 -0.5266 -0.0984  2.2256
   50CHL1    C9 3663   6.568   3.484   7.223 -0.7677  0.3130 -0.1453
   50CHL1    H9 3664   6.492   3.405   7.244  0.1488  0.1726  2.7946
   50CHL1   C10 3665   6.604   3.477   7.075  0.6396 -0.9780 -0.1541
   50CHL1   C19 3666   6.740   3.555   7.050 -0.2534 -0.6788  0.7468
   50CHL1  H19A 3667   6.772   3.541   6.945 -0.8060 -2.2778  0.7679
   50CHL1  H19B 3668   6.736   3.663   7.075 -0.3586 -0.9425  1.9243
   50CHL1  H19C 3669   6.819   3.497   7.103  0.0065 -0.8312  0.1914
   50CHL1    C1 3670   6.621   3.327   7.044  0.4469 -0.1573 -0.2002
   50CHL1   H1A 3671   6.701   3.279   7.104  0.9558 -0.3774 -1.0501
   50CHL1   H1B 3672   6.524   3.281   7.073 -0.0552  1.7756  1.2637
   50CHL1    C2 3673   6.629   3.290   6.897 -0.0284  0.5353  0.4627
   50CHL1   H2A 3674   6.619   3.180   6.894 -0.6192  0.6157 -1.3221
   50CHL1   H2B 3675   6.729   3.327   6.865  0.4888  1.5084  3.0904
   50CHL1   C20 3676   6.585   3.656   7.762 -0.2266 -0.0532 -0.4504
   50CHL1   H20 3677   6.615   3.763   7.759  0.4433 -0.2366 -0.3374
   50CHL1   C21 3678   6.716   3.573   7.779 -0.2573  0.4766  0.1399
   50CHL1  H21A 3679   6.689   3.465   7.782  0.1514  0.3869  0.7447
   50CHL1  H21B 3680   6.766   3.600   7.874  1.4580  1.6548 -1.0657
   50CHL1  H21C 3681   6.785   3.601   7.697 -0.0829  0.1196  0.1623
   50CHL1   C22 3682   6.508   3.638   7.899  0.2928  0.5394 -0.0253
   50CHL1  H22A 3683   6.399   3.658   7.891 -0.1496 -2.2391 -1.6863
   50CHL1  H22B 3684   6.517   3.534   7.936  0.3047  0.9829  1.2364
   50CHL1   C23 3685   6.564   3.731   8.013  0.3954 -0.1504  0.5522
   50CHL1  H23A 3686   6.674   3.733   8.023  0.1896 -0.4290  3.3102
   50CHL1  H23B 3687   6.538   3.833   7.979  2.0670  1.3229  3.4532
   50CHL1   C24 3688   6.495   3.708   8.148  0.0459 -0.4282 -0.5874
   50CHL1  H24A 3689   6.387   3.725   8.127  0.6911  1.9739 -2.0475
   50CHL1  H24B 3690   6.507   3.600   8.172  3.5262 -0.2367 -1.2807
   50CHL1   C25 3691   6.529   3.816   8.253 -0.8154  0.1921 -0.2760
   50CHL1   H25 3692   6.469   3.907   8.233 -1.4591 -0.5741 -1.8858
   50CHL1   C26 3693   6.488   3.764   8.394 -0.4232 -0.5245  0.0281
   50CHL1  H26A 3694   6.378   3.757   8.408 -0.3885  1.3317  1.4118
   50CHL1  H26B 3695   6.525   3.660   8.400 -0.9089 -0.6632  0.6193
   50CHL1  H26C 3696   6.536   3.824   8.474  0.3839 -0.6488 -0.3550
   50CHL1   C27 3697   6.679   3.852   8.250  0.4438 -0.5715  0.1016
   50CHL1  H27A 3698   6.732   3.757   8.277  1.2655  0.1777  1.1926
   50CHL1  H27B 3699   6.714   3.899   8.156  0.2022  0.5211  0.5556
   50CHL1  H27C 3700   6.692   3.926   8.332 -0.2040 -0.3666  0.0165
   51CHL1    C3 3701   6.105   2.507   6.806  0.6343 -0.7198  0.4790
   51CHL1    H3 3702   6.064   2.605   6.776 -1.6347 -1.7113  0.2672
   51CHL1    O3 3703   6.142   2.442   6.689 -0.4738 -0.0664 -0.8329
   51CHL1   H3' 3704   6.190   2.364   6.716 -0.0470  0.3424 -0.4198
   51CHL1    C4 3705   6.229   2.508   6.901  0.4924  0.0855  0.5176
   51CHL1   H4A 3706   6.260   2.402   6.893  0.0451  0.0208 -0.4654
   51CHL1   H4B 3707   6.300   2.569   6.841  1.3367 -4.4125 -3.3135
   51CHL1    C5 3708   6.207   2.542   7.048 -0.2984  0.8788 -0.0350
   51CHL1    C6 3709   6.276   2.636   7.116 -0.6832 -1.0498  0.0664
   51CHL1    H6 3710   6.358   2.691   7.068 -2.3687  0.1124 -1.5714
   51CHL1    C7 3711   6.263   2.687   7.252  0.0256  0.3663 -0.4700
   51CHL1   H7A 3712   6.362   2.692   7.302 -0.2222  3.4118 -0.1995
   51CHL1   H7B 3713   6.222   2.790   7.250 -0.6986  0.0869 -0.2571
   51CHL1    C8 3714   6.173   2.591   7.334  0.1906  0.5860 -0.5435
   51CHL1    H8 3715   6.232   2.500   7.359 -2.7721 -1.5340 -0.9885
   51CHL1   C14 3716   6.134   2.644   7.477 -0.2757 -0.0472 -0.1552
   51CHL1   H14 3717   6.076   2.739   7.473  0.3730  0.3965  0.8781
   51CHL1   C15 3718   6.245   2.672   7.570  0.2810 -0.5900 -0.2539
   51CHL1  H15A 3719   6.332   2.603   7.576 -0.4824 -1.4603  1.1004
   51CHL1  H15B 3720   6.297   2.765   7.542  1.6695 -1.1379  0.4741
   51CHL1   C16 3721   6.178   2.674   7.707  0.3803  0.8484 -0.4241
   51CHL1  H16A 3722   6.227   2.611   7.784 -0.6220 -1.0190 -1.2823
   51CHL1  H16B 3723   6.170   2.774   7.755  1.5971  0.0965  1.4063
   51CHL1   C17 3724   6.029   2.625   7.688 -0.5991 -0.6225 -0.1938
   51CHL1   H17 3725   5.971   2.718   7.668 -1.7521 -1.5804 -1.4251
   51CHL1   C13 3726   6.041   2.551   7.558  0.0022  0.3847  0.5769
   51CHL1   C18 3727   6.100   2.411   7.581  0.4343  0.0418  0.1084
   51CHL1  H18A 3728   6.195   2.416   7.638 -0.1483 -0.1484  1.1113
   51CHL1  H18B 3729   6.030   2.342   7.632 -1.1839  1.1088 -0.6419
   51CHL1  H18C 3730   6.144   2.368   7.488  2.7425  1.5907  0.4444
   51CHL1   C12 3731   5.912   2.542   7.473  0.0163 -0.2497 -0.3362
   51CHL1  H12A 3732   5.837   2.476   7.523 -0.0366 -2.2093 -2.8995
   51CHL1  H12B 3733   5.876   2.646   7.462 -1.5270 -0.5665  1.4432
   51CHL1   C11 3734   5.943   2.481   7.337 -0.2051  0.3194 -0.0026
   51CHL1  H11A 3735   5.970   2.375   7.356  2.0347  0.8087 -0.3611
   51CHL1  H11B 3736   5.844   2.490   7.287 -0.8151 -0.3670  1.0648
   51CHL1    C9 3737   6.052   2.546   7.247  1.1608 -0.3994 -0.8741
   51CHL1    H9 3738   6.010   2.644   7.217 -0.4232 -1.4302 -2.1132
   51CHL1   C10 3739   6.092   2.467   7.114 -0.2084 -0.4365 -0.4728
   51CHL1   C19 3740   6.141   2.324   7.159  0.4107 -0.2785 -0.1343
   51CHL1  H19A 3741   6.050   2.271   7.192  1.1138 -1.2687  0.2270
   51CHL1  H19B 3742   6.185   2.262   7.078  0.7857  0.5073 -0.5369
   51CHL1  H19C 3743   6.207   2.327   7.249 -0.8373  1.4784  0.7458
   51CHL1    C1 3744   5.968   2.461   7.020 -0.2690 -0.2813 -0.4917
   51CHL1   H1A 3745   5.892   2.401   7.075  0.4887 -1.6879 -0.9611
   51CHL1   H1B 3746   5.915   2.559   7.019  0.7831  0.2953 -1.7758
   51CHL1    C2 3747   5.999   2.424   6.876 -0.1785  0.7596 -0.0037
   51CHL1   H2A 3748   5.907   2.436   6.816 -1.0003 -3.2115  0.3033
   51CHL1   H2B 3749   6.018   2.315   6.861 -0.9514  0.7367 -0.7957
   51CHL1   C20 3750   5.973   2.550   7.811 -0.2336 -0.6214 -0.5611
   51CHL1   H20 3751   6.029   2.454   7.825  1.5014  0.1637 -1.8472
   51CHL1   C21 3752   5.824   2.522   7.806  0.4439 -0.1363 -0.4363
   51CHL1  H21A 3753   5.779   2.500   7.906  0.5907  0.5109 -0.2291
   51CHL1  H21B 3754   5.804   2.431   7.746 -1.1529 -1.0902  1.4581
   51CHL1  H21C 3755   5.767   2.604   7.758 -0.9338 -1.6376 -1.4314
   51CHL1   C22 3756   5.991   2.629   7.951 -0.0243 -0.3034 -0.7205
   51CHL1  H22A 3757   5.935   2.571   8.028  1.1826 -0.6710 -0.1219
   51CHL1  H22B 3758   6.095   2.623   7.990 -1.2228 -2.0855  2.3946
   51CHL1   C23 3759   5.947   2.776   7.955  0.5734  0.1584  0.7183
   51CHL1  H23A 3760   5.995   2.831   7.872  1.4972  0.7034  1.6020
   51CHL1  H23B 3761   5.836   2.778   7.943  0.5913 -0.6774  0.3515
   51CHL1   C24 3762   5.990   2.835   8.089  0.5154 -0.5716 -0.1590
   51CHL1  H24A 3763   5.986   2.753   8.165 -0.8932  0.2162  0.6418
   51CHL1  H24B 3764   6.097   2.861   8.078  0.3731  0.1365  0.0724
   51CHL1   C25 3765   5.912   2.958   8.147  0.9177 -0.4873  0.6008
   51CHL1   H25 3766   5.803   2.934   8.146  1.0561 -1.1714  1.6156
   51CHL1   C26 3767   5.947   2.985   8.301  0.0088  0.5691  0.6552
   51CHL1  H26A 3768   5.941   2.885   8.349  0.7773  0.4273  0.4705
   51CHL1  H26B 3769   6.052   3.021   8.307  0.2857 -0.2716  0.9654
   51CHL1  H26C 3770   5.882   3.065   8.342 -1.6979 -0.5565  0.1794
   51CHL1   C27 3771   5.934   3.090   8.072 -0.3528 -0.4955  0.0370
   51CHL1  H27A 3772   5.871   3.167   8.122 -0.4600 -0.1013 -0.6980
   51CHL1  H27B 3773   6.039   3.122   8.084 -0.1027 -1.0006 -0.7421
   51CHL1  H27C 3774   5.912   3.079   7.963 -1.7861 -1.7556  0.4313
   52CHL1    C3 3775   1.448   3.349   6.993 -0.0274  1.0565 -0.2540
   52CHL1    H3 3776   1.337   3.339   6.989  0.1353 -1.0149 -0.2615
   52CHL1    O3 3777   1.500   3.353   6.860  0.1308 -0.1318 -0.3586
   52CHL1   H3' 3778   1.531   3.264   6.843 -0.9677 -0.2199 -2.0408
   52CHL1    C4 3779   1.490   3.474   7.067  1.2081  0.5191  0.4428
   52CHL1   H4A 3780   1.601   3.484   7.061  1.0502  0.7958 -2.9944
   52CHL1   H4B 3781   1.449   3.557   7.007  1.7175  0.7870  0.4585
   52CHL1    C5 3782   1.436   3.463   7.212  0.6052 -0.0352 -0.1452
   52CHL1    C6 3783   1.350   3.555   7.259  0.6543 -0.0394 -0.0945
   52CHL1    H6 3784   1.328   3.640   7.193  0.4656 -1.2663 -1.6239
   52CHL1    C7 3785   1.299   3.553   7.403  0.4617 -0.5058  0.3505
   52CHL1   H7A 3786   1.291   3.655   7.447  0.6767  0.1751 -1.1768
   52CHL1   H7B 3787   1.191   3.528   7.404  0.3029  0.1852  0.2857
   52CHL1    C8 3788   1.384   3.460   7.493  0.6232  0.3520  0.5143
   52CHL1    H8 3789   1.478   3.517   7.513 -0.0205  2.0039 -1.0204
   52CHL1   C14 3790   1.300   3.445   7.621 -0.6954  1.1583 -0.3370
   52CHL1   H14 3791   1.208   3.399   7.580 -0.2369  0.1054 -0.1976
   52CHL1   C15 3792   1.246   3.570   7.695 -0.1381  0.2433 -0.4381
   52CHL1  H15A 3793   1.331   3.639   7.716 -0.3742  1.5659 -3.4842
   52CHL1  H15B 3794   1.174   3.635   7.641  0.0185 -0.7992 -1.9103
   52CHL1   C16 3795   1.194   3.507   7.830  0.9162  0.3079  0.1348
   52CHL1  H16A 3796   1.248   3.560   7.912  0.2994  0.7757  0.2433
   52CHL1  H16B 3797   1.085   3.515   7.849  0.6021  0.8390 -1.8337
   52CHL1   C17 3798   1.230   3.355   7.833 -0.2047 -0.2558  0.6580
   52CHL1   H17 3799   1.153   3.290   7.786 -0.5599  0.4623  0.2416
   52CHL1   C13 3800   1.351   3.346   7.727  0.7803  0.1471  0.1484
   52CHL1   C18 3801   1.480   3.414   7.788  0.0430 -0.7600 -0.4460
   52CHL1  H18A 3802   1.561   3.441   7.717  0.7487  0.3507  0.7445
   52CHL1  H18B 3803   1.453   3.506   7.845  0.9278 -1.4248  1.0838
   52CHL1  H18C 3804   1.514   3.346   7.870 -2.5390 -0.7786  0.6496
   52CHL1   C12 3805   1.373   3.207   7.653  0.2629 -1.0240 -0.2852
   52CHL1  H12A 3806   1.420   3.138   7.726  2.1938 -1.3017 -1.7365
   52CHL1  H12B 3807   1.276   3.165   7.619 -0.5237 -0.3341  1.0681
   52CHL1   C11 3808   1.460   3.222   7.528 -0.5596  0.3362 -0.2365
   52CHL1  H11A 3809   1.559   3.251   7.570 -1.5354  1.2259  1.5209
   52CHL1  H11B 3810   1.477   3.131   7.467 -2.2343 -0.1054 -0.0574
   52CHL1    C9 3811   1.410   3.323   7.423 -0.5592 -0.5819 -0.4437
   52CHL1    H9 3812   1.305   3.291   7.407  0.0273 -1.5838 -2.4678
   52CHL1   C10 3813   1.482   3.336   7.288  0.2140 -0.2514  0.7573
   52CHL1   C19 3814   1.636   3.355   7.302 -0.1997 -0.0962 -0.5623
   52CHL1  H19A 3815   1.686   3.264   7.341 -1.0041 -0.2422  0.1257
   52CHL1  H19B 3816   1.687   3.383   7.207  1.0505  0.0275  0.1313
   52CHL1  H19C 3817   1.650   3.439   7.375 -2.2366  2.6017 -3.1558
   52CHL1    C1 3818   1.456   3.211   7.204 -0.0584  0.1272  0.5488
   52CHL1   H1A 3819   1.503   3.128   7.262  3.0820  1.1233 -0.4543
   52CHL1   H1B 3820   1.350   3.180   7.208  0.1809 -0.6574  0.9674
   52CHL1    C2 3821   1.503   3.218   7.050 -0.4162 -0.6180  0.5881
   52CHL1   H2A 3822   1.460   3.126   7.005  0.1526 -1.8045  2.3937
   52CHL1   H2B 3823   1.613   3.212   7.043 -0.2759  0.8352  1.4014
   52CHL1   C20 3824   1.259   3.313   7.970 -0.3128 -0.0795 -0.2142
   52CHL1   H20 3825   1.338   3.380   8.010  0.6246 -1.4497  0.3083
   52CHL1   C21 3826   1.328   3.172   7.989  0.0079  0.0725 -0.0993
   52CHL1  H21A 3827   1.423   3.164   7.933  0.5150  0.8388  0.6412
   52CHL1  H21B 3828   1.257   3.096   7.949 -0.0395  0.3651 -0.5819
   52CHL1  H21C 3829   1.346   3.150   8.096  0.7169  0.5507 -0.1170
   52CHL1   C22 3830   1.142   3.316   8.068  0.4513  0.0040  0.1403
   52CHL1  H22A 3831   1.093   3.412   8.042  0.6248  1.2053  3.9179
   52CHL1  H22B 3832   1.064   3.237   8.058  1.7178 -1.3744  1.0396
   52CHL1   C23 3833   1.181   3.332   8.215 -0.0849  0.1946 -0.3849
   52CHL1  H23A 3834   1.225   3.236   8.251 -0.3149  0.7868  1.4714
   52CHL1  H23B 3835   1.260   3.410   8.222 -0.9651  1.2846 -2.0915
   52CHL1   C24 3836   1.062   3.361   8.306  0.1885 -0.2490  1.2115
   52CHL1  H24A 3837   1.012   3.451   8.263 -0.6322 -1.4560 -0.4180
   52CHL1  H24B 3838   0.992   3.275   8.300 -1.6685  1.3455 -0.7764
   52CHL1   C25 3839   1.090   3.389   8.457 -0.5170  0.0963  0.6471
   52CHL1   H25 3840   1.095   3.500   8.467 -0.4548  0.0633  1.0011
   52CHL1   C26 3841   0.977   3.337   8.554  0.1961  0.3248 -0.5877
   52CHL1  H26A 3842   0.998   3.354   8.662 -0.9898 -1.8327  0.0203
   52CHL1  H26B 3843   0.885   3.397   8.543  0.7267  2.1098  3.5752
   52CHL1  H26C 3844   0.947   3.231   8.541  1.2768  0.1505 -1.7901
   52CHL1   C27 3845   1.221   3.321   8.504 -0.1315  0.4532  0.0931
   52CHL1  H27A 3846   1.218   3.211   8.488 -3.3907  0.4197  0.6467
   52CHL1  H27B 3847   1.307   3.365   8.449 -0.0875 -0.5921 -0.6873
   52CHL1  H27C 3848   1.230   3.334   8.614 -1.0304 -0.7601  0.3229
   53CHL1    C3 3849   4.008   0.088   7.177  0.2782  0.7742 -0.1154
   53CHL1    H3 3850   3.909   0.040   7.170  0.1471  1.0078  0.1102
   53CHL1    O3 3851   4.056   0.098   7.043 -0.5140 -0.0988 -0.2738
   53CHL1   H3' 3852   4.027   0.188   7.023 -3.2668 -0.5536  1.4519
   53CHL1    C4 3853   3.992   0.234   7.230 -0.0291 -0.4588  0.7140
   53CHL1   H4A 3854   4.089   0.282   7.210 -0.8358  0.3315 -1.4375
   53CHL1   H4B 3855   3.912   0.295   7.183 -0.1798  0.8100  2.5640
   53CHL1    C5 3856   3.979   0.239   7.383  0.2198 -0.3789 -0.3846
   53CHL1    C6 3857   3.881   0.306   7.441  0.2075 -0.3187 -0.4747
   53CHL1    H6 3858   3.817   0.363   7.372 -0.4574  1.7865  1.8364
   53CHL1    C7 3859   3.844   0.319   7.589 -0.2219  0.7579  0.1569
   53CHL1   H7A 3860   3.808   0.421   7.616 -2.1821  0.5764 -1.6420
   53CHL1   H7B 3861   3.756   0.254   7.606 -0.3593  0.5712 -1.1901
   53CHL1    C8 3862   3.963   0.267   7.672  0.1217  0.0723  0.6665
   53CHL1    H8 3863   4.048   0.338   7.677  1.2020 -1.1769  0.3183
   53CHL1   C14 3864   3.918   0.247   7.819 -0.6517  0.4818  0.9229
   53CHL1   H14 3865   3.838   0.170   7.816  0.7115 -0.8887 -0.9647
   53CHL1   C15 3866   3.852   0.365   7.889 -0.4155  0.2507  0.2501
   53CHL1  H15A 3867   3.913   0.453   7.861 -0.3621 -0.1197 -0.8033
   53CHL1  H15B 3868   3.747   0.364   7.852 -0.2634  0.5202 -0.1927
   53CHL1   C16 3869   3.875   0.335   8.040  0.7368  0.5399  0.3163
   53CHL1  H16A 3870   3.939   0.419   8.075  2.1935 -0.6900  0.6676
   53CHL1  H16B 3871   3.779   0.314   8.092  1.6562 -1.8172  1.1430
   53CHL1   C17 3872   3.953   0.200   8.050 -0.2060 -0.5014 -0.6154
   53CHL1   H17 3873   3.872   0.125   8.059 -1.9531  1.3177 -0.8766
   53CHL1   C13 3874   4.027   0.191   7.919  0.6066  0.0810 -0.2542
   53CHL1   C18 3875   4.157   0.269   7.922 -0.2272 -0.7544  0.0451
   53CHL1  H18A 3876   4.141   0.367   7.973 -1.2316  0.1398 -1.9207
   53CHL1  H18B 3877   4.245   0.228   7.976  0.9733  0.6982 -0.7857
   53CHL1  H18C 3878   4.190   0.287   7.818 -2.2594 -2.0843 -0.8580
   53CHL1   C12 3879   4.063   0.047   7.871 -0.2730  0.4421 -0.0399
   53CHL1  H12A 3880   4.119  -0.020   7.940 -1.6540 -1.4705 -0.7158
   53CHL1  H12B 3881   3.965  -0.006   7.864  0.2633 -0.3822 -1.6315
   53CHL1   C11 3882   4.105   0.055   7.724  0.6161  0.3944 -0.1153
   53CHL1  H11A 3883   4.206   0.102   7.728  0.7980 -0.1161  2.0447
   53CHL1  H11B 3884   4.123  -0.050   7.694  1.8347 -0.0495  2.0856
   53CHL1    C9 3885   4.012   0.135   7.628 -0.2327 -0.0997 -0.6089
   53CHL1    H9 3886   3.922   0.070   7.624  0.5708 -1.3655  1.3066
   53CHL1   C10 3887   4.060   0.140   7.478 -0.4427 -0.7331  1.0442
   53CHL1   C19 3888   4.208   0.176   7.471 -0.5999 -0.5776 -0.2810
   53CHL1  H19A 3889   4.263   0.087   7.510 -0.5321 -0.1207  0.6935
   53CHL1  H19B 3890   4.243   0.202   7.369  0.3982  0.3524  0.2852
   53CHL1  H19C 3891   4.230   0.262   7.537 -0.6814  1.6105 -3.0285
   53CHL1    C1 3892   4.056  -0.008   7.411 -0.9111  0.4080  1.0004
   53CHL1   H1A 3893   4.120  -0.082   7.465 -0.6401 -1.7520 -2.1343
   53CHL1   H1B 3894   3.948  -0.033   7.418 -0.7212 -0.9172 -0.6486
   53CHL1    C2 3895   4.106   0.003   7.261  0.7347  0.2170 -0.1234
   53CHL1   H2A 3896   4.114  -0.099   7.217 -1.5110  0.5184 -1.3164
   53CHL1   H2B 3897   4.209   0.042   7.251  0.9054 -0.7691 -2.4589
   53CHL1   C20 3898   4.026   0.191   8.183  0.1452  0.1461 -0.8157
   53CHL1   H20 3899   4.101   0.274   8.183  0.0179  0.2633  0.2012
   53CHL1   C21 3900   4.103   0.060   8.195 -0.0589 -0.6867  0.7446
   53CHL1  H21A 3901   4.037  -0.025   8.168 -0.0081 -0.5109  0.0446
   53CHL1  H21B 3902   4.135   0.040   8.299 -3.3152  0.0988  1.9738
   53CHL1  H21C 3903   4.183   0.068   8.118 -1.9680 -0.7882 -1.3029
   53CHL1   C22 3904   3.940   0.206   8.315  0.0093  0.1501  0.4216
   53CHL1  H22A 3905   4.012   0.225   8.397  1.1639  1.0317 -0.7784
   53CHL1  H22B 3906   3.875   0.297   8.309 -0.4965 -0.1584  1.0740
   53CHL1   C23 3907   3.848   0.084   8.356  0.2845  0.1442 -0.2589
   53CHL1  H23A 3908   3.790   0.042   8.271 -0.5216  0.3056  0.2020
   53CHL1  H23B 3909   3.904  -0.001   8.400 -1.2516 -1.2012 -0.8505
   53CHL1   C24 3910   3.750   0.122   8.469  0.6485  0.3242 -1.1050
   53CHL1  H24A 3911   3.797   0.160   8.562 -2.4664 -1.3381  1.2301
   53CHL1  H24B 3912   3.673   0.193   8.432 -0.8608 -0.6454  0.1526
   53CHL1   C25 3913   3.660   0.000   8.511 -0.3006 -0.1201 -0.5549
   53CHL1   H25 3914   3.590   0.046   8.584  1.2345  0.5939  0.5098
   53CHL1   C26 3915   3.577  -0.074   8.397 -0.1651  0.0237  0.5637
   53CHL1  H26A 3916   3.509  -0.149   8.443  0.9533  0.2227  2.5775
   53CHL1  H26B 3917   3.521  -0.003   8.332 -3.2664 -2.1330  0.7779
   53CHL1  H26C 3918   3.641  -0.118   8.318 -0.7160  0.7114 -0.2762
   53CHL1   C27 3919   3.740  -0.108   8.590 -0.0870  0.9527  0.7044
   53CHL1  H27A 3920   3.763  -0.066   8.690  0.6692 -1.9211  1.7751
   53CHL1  H27B 3921   3.670  -0.190   8.617 -1.2923  1.4259 -0.9102
   53CHL1  H27C 3922   3.824  -0.150   8.530 -0.9421 -1.0721  0.8991
   54CHL1    C3 3923   4.644   2.018   6.951 -0.2329 -0.3534 -0.3359
   54CHL1    H3 3924   4.552   1.956   6.960 -1.8568  1.8571 -1.2947
   54CHL1    O3 3925   4.627   2.058   6.816  0.6305 -0.7051  0.1036
   54CHL1   H3' 3926   4.719   2.076   6.796  0.6497  0.2679  1.0147
   54CHL1    C4 3927   4.653   2.143   7.046  0.6518  0.0918  0.5697
   54CHL1   H4A 3928   4.745   2.194   7.013 -1.1863  3.3856  0.3383
   54CHL1   H4B 3929   4.563   2.208   7.039 -0.1000 -0.9504  0.4338
   54CHL1    C5 3930   4.669   2.093   7.188 -0.6381 -0.1602  0.0455
   54CHL1    C6 3931   4.581   2.137   7.279  0.2557  0.3079 -0.2343
   54CHL1    H6 3932   4.504   2.209   7.248  2.4532  2.7684 -0.1998
   54CHL1    C7 3933   4.592   2.098   7.430 -0.1760 -1.0194  0.5812
   54CHL1   H7A 3934   4.575   2.177   7.506  0.5803  0.5636 -0.8260
   54CHL1   H7B 3935   4.528   2.009   7.442 -1.4579 -0.3907 -1.3496
   54CHL1    C8 3936   4.738   2.040   7.455 -0.3284  0.3121  0.5393
   54CHL1    H8 3937   4.814   2.121   7.458 -1.5531  1.5750 -1.2093
   54CHL1   C14 3938   4.740   1.993   7.596 -0.0237 -0.0103  0.4122
   54CHL1   H14 3939   4.668   1.908   7.596  0.4100 -0.4137 -1.8621
   54CHL1   C15 3940   4.698   2.087   7.714  0.8270 -0.0888  0.0943
   54CHL1  H15A 3941   4.752   2.184   7.712 -4.8526  3.3262  1.7303
   54CHL1  H15B 3942   4.587   2.080   7.718  0.6606  2.1927 -0.2474
   54CHL1   C16 3943   4.751   2.006   7.835  0.4342  0.4428 -0.3525
   54CHL1  H16A 3944   4.819   2.068   7.898 -0.8187  1.9720 -0.4942
   54CHL1  H16B 3945   4.671   1.966   7.901 -0.2358  0.5677 -1.0827
   54CHL1   C17 3946   4.832   1.880   7.785  0.3853  0.5268 -0.4683
   54CHL1   H17 3947   4.762   1.794   7.779  0.0831  0.7690 -0.4386
   54CHL1   C13 3948   4.869   1.922   7.639  0.0697  0.6118 -0.6850
   54CHL1   C18 3949   4.995   2.016   7.651  0.3045  0.5316 -0.1867
   54CHL1  H18A 3950   5.019   2.060   7.552 -0.0811  0.1604 -0.4437
   54CHL1  H18B 3951   4.972   2.106   7.712 -1.4003  0.2345 -0.3725
   54CHL1  H18C 3952   5.085   1.970   7.697 -1.6893 -1.4050  1.8756
   54CHL1   C12 3953   4.898   1.807   7.551  0.2663  0.2279  0.6334
   54CHL1  H12A 3954   4.989   1.750   7.578  0.6048  1.0253  1.1911
   54CHL1  H12B 3955   4.813   1.736   7.561  1.2667 -0.4913  4.8603
   54CHL1   C11 3956   4.913   1.858   7.407  0.2348  0.3262  0.5617
   54CHL1  H11A 3957   5.007   1.918   7.401  0.3774  0.2205  1.6020
   54CHL1  H11B 3958   4.926   1.772   7.337 -0.4740  0.3575  0.3949
   54CHL1    C9 3959   4.786   1.936   7.356 -0.4063  0.3419 -0.0568
   54CHL1    H9 3960   4.702   1.864   7.367  1.0779 -1.5201 -0.5782
   54CHL1   C10 3961   4.786   1.998   7.210 -0.7251  0.4137 -0.3534
   54CHL1   C19 3962   4.925   2.062   7.186  0.3536  0.4547  1.0759
   54CHL1  H19A 3963   4.923   2.138   7.105 -0.4285 -0.9766 -0.2790
   54CHL1  H19B 3964   4.956   2.128   7.270  0.8744  1.6577 -0.0510
   54CHL1  H19C 3965   5.007   1.990   7.169  0.6449  0.3011  3.0253
   54CHL1    C1 3966   4.778   1.876   7.109  0.0536 -0.0507  0.1127
   54CHL1   H1A 3967   4.867   1.810   7.115  0.4055  0.1064 -2.6397
   54CHL1   H1B 3968   4.693   1.813   7.142 -0.8880  1.9926  1.7088
   54CHL1    C2 3969   4.773   1.921   6.963  0.2563 -0.2334  0.2218
   54CHL1   H2A 3970   4.733   1.836   6.903 -1.6560  1.6034 -1.1819
   54CHL1   H2B 3971   4.865   1.972   6.929  0.4846 -1.6979 -1.4069
   54CHL1   C20 3972   4.942   1.830   7.876 -0.0232 -0.7876 -0.1589
   54CHL1   H20 3973   5.032   1.895   7.876  0.4121 -1.3642 -1.4558
   54CHL1   C21 3974   4.995   1.686   7.842  0.0504 -0.1487  0.3445
   54CHL1  H21A 3975   5.062   1.684   7.754  0.7799 -1.7819  0.9202
   54CHL1  H21B 3976   4.913   1.612   7.831  0.0312 -0.0741 -0.0470
   54CHL1  H21C 3977   5.049   1.643   7.928 -1.0800 -1.5640  0.3819
   54CHL1   C22 3978   4.905   1.840   8.027  0.1028 -1.2947  0.0441
   54CHL1  H22A 3979   5.001   1.819   8.079  0.7195 -1.2033 -1.0504
   54CHL1  H22B 3980   4.871   1.941   8.061  0.0010 -1.2221 -0.2715
   54CHL1   C23 3981   4.812   1.729   8.073  0.4574  0.5093 -0.7206
   54CHL1  H23A 3982   4.742   1.709   7.989  0.5829 -0.3499 -0.6185
   54CHL1  H23B 3983   4.865   1.635   8.098 -0.2158  0.0096 -1.1741
   54CHL1   C24 3984   4.731   1.763   8.199  0.6420  1.0571 -0.3731
   54CHL1  H24A 3985   4.774   1.718   8.291  1.5038  0.1124 -1.2246
   54CHL1  H24B 3986   4.732   1.873   8.218 -1.2070  1.1216 -0.5432
   54CHL1   C25 3987   4.584   1.721   8.182  0.5759  0.4097  0.3884
   54CHL1   H25 3988   4.533   1.765   8.093 -0.6876 -0.4961  0.6481
   54CHL1   C26 3989   4.579   1.565   8.172 -0.1927  0.6125 -0.9490
   54CHL1  H26A 3990   4.644   1.527   8.089  0.6434 -1.9906  0.8302
   54CHL1  H26B 3991   4.620   1.520   8.265  1.7707 -0.8860 -2.5024
   54CHL1  H26C 3992   4.475   1.532   8.154  0.0588 -0.3763 -0.5861
   54CHL1   C27 3993   4.496   1.762   8.298 -0.3809 -0.3859  0.2168
   54CHL1  H27A 3994   4.395   1.716   8.294 -0.8014  0.4542  1.1148
   54CHL1  H27B 3995   4.555   1.739   8.390  1.3920  0.5438 -0.6664
   54CHL1  H27C 3996   4.484   1.872   8.302 -0.1585 -0.2692 -1.6989
   55CHL1    C3 3997   4.525   3.746   7.029 -0.2187 -0.1456  0.8365
   55CHL1    H3 3998   4.542   3.640   7.059  1.1002 -0.3156 -0.4445
   55CHL1    O3 3999   4.521   3.757   6.886 -0.2539 -0.8642 -0.3585
   55CHL1   H3' 4000   4.468   3.680   6.863 -1.4821 -0.2075  0.2050
   55CHL1    C4 4001   4.381   3.787   7.079  0.0406  1.0539 -0.0653
   55CHL1   H4A 4002   4.385   3.887   7.031 -0.2773 -0.1136 -2.6009
   55CHL1   H4B 4003   4.296   3.732   7.032  2.1367 -0.4121 -2.2747
   55CHL1    C5 4004   4.357   3.808   7.226  0.0418  0.3160  0.1731
   55CHL1    C6 4005   4.247   3.754   7.287  0.0978  1.0167  0.0064
   55CHL1    H6 4006   4.171   3.701   7.228 -0.9933  1.8972  0.5897
   55CHL1    C7 4007   4.211   3.765   7.431 -0.0825 -0.3267 -1.0579
   55CHL1   H7A 4008   4.109   3.808   7.438  0.4636  1.1695 -2.1086
   55CHL1   H7B 4009   4.211   3.666   7.482  1.7452  0.4222  0.4388
   55CHL1    C8 4010   4.313   3.866   7.506 -0.2239  0.0195  0.4183
   55CHL1    H8 4011   4.289   3.973   7.485  3.4065  0.9387  0.6654
   55CHL1   C14 4012   4.312   3.833   7.656 -0.4356 -0.0913 -0.4875
   55CHL1   H14 4013   4.341   3.726   7.661 -0.1278 -0.0092 -0.4965
   55CHL1   C15 4014   4.172   3.832   7.721  0.2637  0.7011  0.1423
   55CHL1  H15A 4015   4.127   3.930   7.694  2.3724  2.1076  1.5201
   55CHL1  H15B 4016   4.104   3.748   7.698 -0.0943  0.8734  0.5596
   55CHL1   C16 4017   4.202   3.843   7.869 -0.5056  0.7997 -0.3286
   55CHL1  H16A 4018   4.151   3.927   7.919 -0.6638 -0.8809  2.4123
   55CHL1  H16B 4019   4.178   3.748   7.920  1.1473  0.2318 -0.5674
   55CHL1   C17 4020   4.360   3.859   7.886 -0.1422 -0.2004 -0.3970
   55CHL1   H17 4021   4.401   3.757   7.901  1.6018  0.3289 -1.3990
   55CHL1   C13 4022   4.405   3.914   7.752  0.5272 -0.0844  0.6940
   55CHL1   C18 4023   4.364   4.063   7.744 -0.2803 -0.0296 -0.2304
   55CHL1  H18A 4024   4.352   4.107   7.643  1.9260  1.1361 -0.0188
   55CHL1  H18B 4025   4.288   4.098   7.818 -0.3245  2.8981 -1.5771
   55CHL1  H18C 4026   4.457   4.113   7.778 -1.4003  0.8416  1.6301
   55CHL1   C12 4027   4.544   3.885   7.699  0.0733  0.4430  0.3269
   55CHL1  H12A 4028   4.617   3.946   7.757 -0.7030 -0.0069  1.7831
   55CHL1  H12B 4029   4.556   3.775   7.702  0.6685  0.5075  0.3189
   55CHL1   C11 4030   4.559   3.925   7.548 -0.0586 -0.1846  0.0501
   55CHL1  H11A 4031   4.556   4.036   7.534 -0.6102 -0.2209 -0.1356
   55CHL1  H11B 4032   4.663   3.891   7.531 -0.0568 -0.2973  0.2868
   55CHL1    C9 4033   4.455   3.854   7.457  0.3156  0.3709 -0.4549
   55CHL1    H9 4034   4.479   3.747   7.476  0.6619  0.6347  0.6204
   55CHL1   C10 4035   4.471   3.883   7.300  0.6065  1.2627 -0.7170
   55CHL1   C19 4036   4.440   4.026   7.273  0.2710 -0.5176 -0.2275
   55CHL1  H19A 4037   4.334   4.052   7.293 -0.1443 -1.5634 -1.0245
   55CHL1  H19B 4038   4.505   4.090   7.337 -2.8262  2.4794  0.0795
   55CHL1  H19C 4039   4.468   4.054   7.169 -0.1434 -0.2299 -0.2626
   55CHL1    C1 4040   4.614   3.842   7.247 -0.2946 -0.0796  0.1191
   55CHL1   H1A 4041   4.679   3.926   7.279 -2.3901  1.0637  1.5049
   55CHL1   H1B 4042   4.659   3.750   7.291  0.2427 -0.8218 -1.9181
   55CHL1    C2 4043   4.634   3.834   7.093 -0.3647  0.7357  0.1946
   55CHL1   H2A 4044   4.737   3.803   7.066 -0.9443 -0.0972 -1.1387
   55CHL1   H2B 4045   4.606   3.935   7.056  0.2043  0.2945 -1.5237
   55CHL1   C20 4046   4.395   3.934   8.018 -0.2611  0.0439  0.0934
   55CHL1   H20 4047   4.366   4.041   8.004 -2.1838 -0.5474 -0.5341
   55CHL1   C21 4048   4.548   3.918   8.045 -0.7517  0.2310  0.0474
   55CHL1  H21A 4049   4.566   3.919   8.155 -1.5746 -0.3875  0.1887
   55CHL1  H21B 4050   4.615   3.991   7.995  2.1988 -3.1876 -1.2108
   55CHL1  H21C 4051   4.578   3.816   8.011 -0.8756  0.4445 -0.7171
   55CHL1   C22 4052   4.329   3.872   8.147 -0.1459  1.0084 -0.5828
   55CHL1  H22A 4053   4.219   3.881   8.150 -0.1696  0.2263  1.1247
   55CHL1  H22B 4054   4.341   3.763   8.161 -0.9875  1.0501  0.4921
   55CHL1   C23 4055   4.363   3.947   8.277 -0.6696  0.6151 -0.0917
   55CHL1  H23A 4056   4.455   3.911   8.329 -2.4138  1.8423  4.0708
   55CHL1  H23B 4057   4.364   4.054   8.246 -2.0389  0.8518  0.6455
   55CHL1   C24 4058   4.257   3.942   8.386 -0.0239  0.2454 -0.1592
   55CHL1  H24A 4059   4.156   3.966   8.345  0.6906  1.3399 -1.3204
   55CHL1  H24B 4060   4.253   3.835   8.415 -3.2193  0.0905 -0.9750
   55CHL1   C25 4061   4.280   4.034   8.514  0.1185 -0.1345  0.4703
   55CHL1   H25 4062   4.275   4.135   8.466  1.0433 -0.9277 -1.3149
   55CHL1   C26 4063   4.169   4.017   8.614  0.1509  0.4636  0.1713
   55CHL1  H26A 4064   4.080   4.068   8.571  1.8772  1.4304 -2.3734
   55CHL1  H26B 4065   4.163   3.913   8.652  3.0309 -0.1700 -0.9842
   55CHL1  H26C 4066   4.190   4.086   8.699 -0.3474  0.7121  0.0943
   55CHL1   C27 4067   4.409   4.016   8.585  0.7602 -0.6837 -0.2092
   55CHL1  H27A 4068   4.400   4.071   8.681 -3.3782 -1.0500 -0.2942
   55CHL1  H27B 4069   4.415   3.907   8.607 -0.0992 -0.4696  1.1917
   55CHL1  H27C 4070   4.501   4.052   8.534  0.0610 -1.2650 -1.9305
   56CHL1    C3 4071   4.046   1.420   6.838  0.1194 -0.1009 -0.0143
   56CHL1    H3 4072   4.117   1.502   6.812 -0.0609  0.5312  1.4452
   56CHL1    O3 4073   4.046   1.332   6.727  0.5224 -0.1457  0.0576
   56CHL1   H3' 4074   3.966   1.279   6.734 -0.4346  0.9050 -2.2344
   56CHL1    C4 4075   4.088   1.350   6.964 -0.7309 -0.2977  0.0855
   56CHL1   H4A 4076   4.031   1.256   6.978  2.0916 -1.8486  1.6282
   56CHL1   H4B 4077   4.193   1.319   6.943 -0.8389 -0.4150 -0.2805
   56CHL1    C5 4078   4.061   1.423   7.097  0.5089  0.7551 -0.1239
   56CHL1    C6 4079   4.153   1.445   7.191  0.3115  0.1705  0.1464
   56CHL1    H6 4080   4.246   1.386   7.185 -0.3150 -0.6782 -2.3389
   56CHL1    C7 4081   4.119   1.524   7.315 -0.1017 -0.4355 -0.6265
   56CHL1   H7A 4082   4.183   1.481   7.395 -1.4761 -2.4511 -0.5739
   56CHL1   H7B 4083   4.154   1.628   7.294  2.7761 -1.1091  0.6284
   56CHL1    C8 4084   3.963   1.533   7.342 -0.3439 -0.8097 -0.1803
   56CHL1    H8 4085   3.924   1.432   7.368 -0.3227 -0.9316 -0.6025
   56CHL1   C14 4086   3.942   1.633   7.461  0.4914 -0.1310  0.2553
   56CHL1   H14 4087   3.979   1.734   7.433 -0.7677 -0.5016 -2.8527
   56CHL1   C15 4088   4.014   1.591   7.588  0.1223 -0.9095 -0.5051
   56CHL1  H15A 4089   3.987   1.487   7.616  0.4024 -0.5476  1.1383
   56CHL1  H15B 4090   4.123   1.591   7.570  0.0962 -1.2945 -0.6513
   56CHL1   C16 4091   3.955   1.682   7.692  0.1141  0.1129  0.0815
   56CHL1  H16A 4092   3.942   1.624   7.785 -1.0924  0.3133  0.0457
   56CHL1  H16B 4093   4.017   1.766   7.729 -1.0797  0.3453  1.6062
   56CHL1   C17 4094   3.821   1.737   7.626  0.0688 -0.4431 -0.5548
   56CHL1   H17 4095   3.851   1.839   7.594 -1.1326 -0.0020 -0.3008
   56CHL1   C13 4096   3.793   1.653   7.502 -0.5689 -0.2198 -0.0951
   56CHL1   C18 4097   3.733   1.517   7.541  0.4214 -0.8180 -0.1438
   56CHL1  H18A 4098   3.724   1.447   7.455  0.2404 -0.7021 -0.2192
   56CHL1  H18B 4099   3.792   1.471   7.623  0.6395  0.6156  0.5141
   56CHL1  H18C 4100   3.628   1.523   7.578 -0.1823  0.0355 -1.9539
   56CHL1   C12 4101   3.735   1.713   7.375  0.2159  0.2056  0.1157
   56CHL1  H12A 4102   3.626   1.732   7.378  0.0593 -0.7169  0.3759
   56CHL1  H12B 4103   3.792   1.808   7.365 -1.0800  1.3530  3.0697
   56CHL1   C11 4104   3.754   1.628   7.252  0.0535 -0.3818  0.2758
   56CHL1  H11A 4105   3.686   1.540   7.261 -0.0503 -0.4231 -0.8361
   56CHL1  H11B 4106   3.712   1.700   7.178  0.2778  1.0952  1.5675
   56CHL1    C9 4107   3.900   1.586   7.215  0.5153  0.0999  0.1094
   56CHL1    H9 4108   3.957   1.677   7.187 -0.2258  0.7723  0.7334
   56CHL1   C10 4109   3.917   1.481   7.107  1.0919  0.5737 -0.1733
   56CHL1   C19 4110   3.820   1.363   7.132  0.6297  0.2930 -0.0082
   56CHL1  H19A 4111   3.841   1.315   7.230  0.0276  0.3281  0.1397
   56CHL1  H19B 4112   3.711   1.387   7.128  0.7934  0.8623 -0.9529
   56CHL1  H19C 4113   3.826   1.284   7.054 -0.2829 -0.7089  0.8958
   56CHL1    C1 4114   3.877   1.555   6.974 -0.3248  0.6213 -0.4509
   56CHL1   H1A 4115   3.770   1.578   6.992 -0.2928  0.9915 -0.7187
   56CHL1   H1B 4116   3.927   1.654   6.962  2.7079 -0.8979 -0.9116
   56CHL1    C2 4117   3.900   1.469   6.850 -0.1086 -0.1211 -0.2217
   56CHL1   H2A 4118   3.862   1.527   6.763  1.3550 -0.1842 -0.9294
   56CHL1   H2B 4119   3.821   1.390   6.852 -0.5631  0.3429  3.0190
   56CHL1   C20 4120   3.699   1.771   7.722  0.4638 -0.3115  0.2539
   56CHL1   H20 4121   3.676   1.670   7.761 -2.4637 -0.2277 -1.1507
   56CHL1   C21 4122   3.585   1.837   7.649  0.4019  0.3752  0.4624
   56CHL1  H21A 4123   3.494   1.859   7.709  0.0280  1.7371 -0.5772
   56CHL1  H21B 4124   3.544   1.783   7.561 -0.5173 -0.8656  1.6284
   56CHL1  H21C 4125   3.619   1.934   7.606  0.7900 -0.5406 -1.3379
   56CHL1   C22 4126   3.748   1.853   7.853  0.5070 -0.2597  0.5182
   56CHL1  H22A 4127   3.824   1.795   7.910  0.6022  0.1851  0.8460
   56CHL1  H22B 4128   3.779   1.956   7.827 -2.6572  0.5994 -0.0227
   56CHL1   C23 4129   3.629   1.872   7.953  0.3234  0.1774  0.2625
   56CHL1  H23A 4130   3.548   1.930   7.904  1.1979 -0.4164 -1.9689
   56CHL1  H23B 4131   3.583   1.782   7.997 -0.9923  1.0931  0.7981
   56CHL1   C24 4132   3.665   1.952   8.079  0.0840 -0.4269  0.1448
   56CHL1  H24A 4133   3.583   1.960   8.154 -1.0375 -0.5175 -1.0545
   56CHL1  H24B 4134   3.741   1.883   8.122 -1.5010 -3.5654 -1.9164
   56CHL1   C25 4135   3.715   2.094   8.062  0.4266  0.2947  0.6559
   56CHL1   H25 4136   3.814   2.097   8.011  1.0559  1.0944  1.8658
   56CHL1   C26 4137   3.613   2.183   7.987 -0.3775 -0.2449 -0.6753
   56CHL1  H26A 4138   3.514   2.193   8.037  0.0085 -0.2134  0.0949
   56CHL1  H26B 4139   3.598   2.157   7.880  0.4926 -1.5979 -0.4791
   56CHL1  H26C 4140   3.663   2.282   7.994  0.9778 -1.1554  4.4529
   56CHL1   C27 4141   3.742   2.163   8.198 -0.6442 -0.3648  0.0906
   56CHL1  H27A 4142   3.782   2.261   8.166 -1.1044 -0.5874 -1.1889
   56CHL1  H27B 4143   3.647   2.180   8.254  0.1218  1.2929  0.9372
   56CHL1  H27C 4144   3.813   2.099   8.255  0.8740  1.5115  0.3532
   57SAPC     N 4145   4.308   4.132  11.082  0.2742 -0.1781 -0.1744
   57SAPC   C12 4146   4.188   4.212  11.034  0.4799  0.5144  0.7239
   57SAPC  H12A 4147   4.213   4.307  11.078 -1.6798  2.2336 -1.6151
   57SAPC  H12B 4148   4.100   4.178  11.088  0.5202  0.5355  0.8016
   57SAPC   C13 4149   4.271   3.992  11.048 -0.4339 -0.4121 -0.0568
   57SAPC  H13A 4150   4.353   3.927  11.075 -0.8653 -0.7579  0.4209
   57SAPC  H13B 4151   4.178   3.962  11.092 -0.2974  0.5998  0.9442
   57SAPC  H13C 4152   4.264   3.976  10.941  0.3776 -1.4377  0.0344
   57SAPC   C14 4153   4.440   4.165  11.027 -0.0368 -0.2885  0.2555
   57SAPC  H14A 4154   4.441   4.145  10.920 -2.2008 -0.1148  0.1859
   57SAPC  H14B 4155   4.478   4.264  11.049  0.9055 -0.3206 -1.1039
   57SAPC  H14C 4156   4.521   4.102  11.062 -0.7656  0.2796  3.0636
   57SAPC   C15 4157   4.300   4.136  11.229 -0.3018 -0.5590 -0.1493
   57SAPC  H15A 4158   4.204   4.103  11.267 -0.2982  2.4007  2.7075
   57SAPC  H15B 4159   4.373   4.066  11.267 -0.0896 -0.8197 -1.0478
   57SAPC  H15C 4160   4.322   4.236  11.264  1.6264 -1.0069 -0.0243
   57SAPC   C11 4161   4.162   4.218  10.880 -0.2495 -0.3082  0.0310
   57SAPC  H11A 4162   4.250   4.254  10.823 -2.0379  1.7512 -1.5148
   57SAPC  H11B 4163   4.087   4.300  10.868 -0.7255 -1.0430 -2.3168
   57SAPC     P 4164   3.965   4.048  10.826  0.0248 -0.1868 -0.2621
   57SAPC   O13 4165   3.964   3.903  10.828  0.2773  0.5271 -0.4119
   57SAPC   O14 4166   3.883   4.114  10.931 -0.7373  0.3981 -0.1781
   57SAPC   O12 4167   4.117   4.092  10.830 -0.3490  0.9866 -0.1986
   57SAPC   O11 4168   3.914   4.092  10.681  0.6247  0.3401 -0.3559
   57SAPC    C1 4169   4.001   4.099  10.570  0.1401  0.9711  0.3405
   57SAPC    HA 4170   4.102   4.124  10.610 -0.4835  0.3557  2.3584
   57SAPC    HB 4171   4.018   3.993  10.540 -0.2779  1.7726 -3.0066
   57SAPC    C2 4172   3.941   4.173  10.455  0.1554 -0.3123  0.1536
   57SAPC    HS 4173   3.862   4.115  10.404  0.3214  0.5019 -1.0622
   57SAPC   O21 4174   4.053   4.195  10.358  0.1139  0.6609 -0.3673
   57SAPC   C21 4175   4.103   4.088  10.298  0.3594 -1.2686 -0.0846
   57SAPC   O22 4176   4.045   3.979  10.293  0.3988  0.6485 -0.2563
   57SAPC   C22 4177   4.248   4.115  10.257  0.0807 -0.6369 -0.0621
   57SAPC   H2R 4178   4.285   4.177  10.341 -1.0648 -1.6268  1.2017
   57SAPC   H2S 4179   4.303   4.019  10.263 -2.0622 -1.8854  0.0294
   57SAPC    C3 4180   3.865   4.308  10.478  0.4278 -0.2571 -0.7867
   57SAPC    HX 4181   3.930   4.395  10.500 -0.1350 -0.0147 -0.0656
   57SAPC    HY 4182   3.797   4.290  10.564 -0.5191 -1.0474 -1.6878
   57SAPC   O31 4183   3.790   4.328  10.358 -0.4705  0.0137 -0.0175
   57SAPC   C31 4184   3.713   4.436  10.364 -0.6098 -0.3433  0.6575
   57SAPC   O32 4185   3.717   4.522  10.452 -0.4163  0.2798  0.2326
   57SAPC   C32 4186   3.614   4.443  10.249  0.1552 -0.5493 -0.0158
   57SAPC   H2X 4187   3.553   4.350  10.255  0.6760 -1.0230 -1.7275
   57SAPC   H2Y 4188   3.676   4.444  10.157  0.0252  1.4651 -0.1018
   57SAPC   C23 4189   4.246   4.198  10.125 -0.0774  0.0383 -0.1409
   57SAPC   H3R 4190   4.339   4.259  10.124 -0.1226  0.2151  3.0088
   57SAPC   H3S 4191   4.165   4.273  10.135 -0.3671 -0.5706  2.3353
   57SAPC   C24 4192   4.247   4.122   9.986 -0.1356 -0.6255 -0.5266
   57SAPC   H4R 4193   4.339   4.062   9.970  0.5100  0.1249  0.2728
   57SAPC   H4S 4194   4.240   4.212   9.920  0.7370  1.0933  1.6755
   57SAPC   C25 4195   4.125   4.028   9.966  0.2168 -0.0740  0.6134
   57SAPC   H5R 4196   4.163   3.925   9.972 -1.3133 -0.7416 -0.5709
   57SAPC   C26 4197   3.994   4.063   9.946 -0.5786 -0.2666 -0.1628
   57SAPC   H6R 4198   3.908   3.995   9.943  0.5074 -1.6639  0.2045
   57SAPC   C27 4199   3.939   4.198   9.931 -0.5649 -0.8703 -0.2157
   57SAPC   H7R 4200   3.996   4.278   9.982  1.2382 -2.4288  0.2755
   57SAPC   H7S 4201   3.840   4.216   9.978  0.5632 -0.2878  1.9461
   57SAPC   C28 4202   3.941   4.239   9.781 -0.1469  0.1855 -0.0635
   57SAPC   H8R 4203   4.039   4.242   9.731 -0.3875  2.7262 -0.4060
   57SAPC   C29 4204   3.842   4.293   9.711  0.1329 -0.0209 -0.7846
   57SAPC   H9R 4205   3.859   4.310   9.603  0.0827 -1.0386 -0.9538
   57SAPC  C210 4206   3.705   4.316   9.765 -0.7899 -0.0396 -0.2914
   57SAPC  H10R 4207   3.686   4.253   9.854  1.8178 -0.6377 -0.1176
   57SAPC  H10S 4208   3.640   4.282   9.682  0.5902  2.1746 -2.3689
   57SAPC  C211 4209   3.693   4.463   9.784 -0.0651 -0.2375 -0.0557
   57SAPC  H11R 4210   3.768   4.506   9.852 -0.8272  0.4943  0.3175
   57SAPC  C212 4211   3.590   4.538   9.734  0.8745 -0.3968  0.0695
   57SAPC  H12R 4212   3.591   4.648   9.740  0.2866 -0.4394  1.1073
   57SAPC  C213 4213   3.480   4.489   9.639 -0.2985  0.3137  0.3037
   57SAPC  H13R 4214   3.435   4.395   9.676  2.0796 -1.2380 -0.6190
   57SAPC  H13S 4215   3.524   4.459   9.542  0.3482 -0.4755  0.8258
   57SAPC  C214 4216   3.363   4.594   9.627 -0.6560 -0.0692  0.0210
   57SAPC  H14R 4217   3.346   4.662   9.711 -3.5003  1.0808 -1.4026
   57SAPC  C215 4218   3.297   4.614   9.513  0.1946  0.6587  0.0352
   57SAPC  H15R 4219   3.219   4.691   9.503  0.6562  1.2214  0.6121
   57SAPC  C216 4220   3.317   4.536   9.387 -0.2453  0.1691 -0.1650
   57SAPC  H16R 4221   3.227   4.521   9.325 -0.7375 -2.4051  1.1057
   57SAPC  H16S 4222   3.347   4.433   9.418  2.3811  0.6490 -0.9899
   57SAPC  C217 4223   3.419   4.579   9.290 -0.4457 -0.5386  0.2866
   57SAPC  H17R 4224   3.439   4.491   9.225  0.8665  2.0627 -2.9887
   57SAPC  H17S 4225   3.516   4.610   9.334 -0.7638 -0.3868  0.8877
   57SAPC  C218 4226   3.366   4.687   9.196 -0.0888 -0.2961 -0.0585
   57SAPC  H18R 4227   3.440   4.725   9.122 -0.1849 -0.3780 -0.1974
   57SAPC  H18S 4228   3.336   4.781   9.246 -0.9353 -0.1920 -0.7464
   57SAPC  C219 4229   3.240   4.648   9.103 -0.1380  0.0879  0.1994
   57SAPC  H19R 4230   3.154   4.659   9.173  1.5826  3.1200  1.9612
   57SAPC  H19S 4231   3.249   4.546   9.061  1.7968 -0.0542  0.8897
   57SAPC  C220 4232   3.216   4.751   8.991 -0.3198  0.0134 -0.1661
   57SAPC  H20R 4233   3.298   4.721   8.923 -0.0480 -2.3358  1.1453
   57SAPC  H20S 4234   3.234   4.852   9.032 -0.6800 -0.3861  1.0021
   57SAPC  H20T 4235   3.118   4.750   8.938  0.6839  1.6147 -2.1095
   57SAPC   C33 4236   3.534   4.574  10.245  0.3790  0.2656  0.3083
   57SAPC   H3X 4237   3.592   4.665  10.268 -2.0579  2.2497 -1.0956
   57SAPC   H3Y 4238   3.463   4.556  10.329  0.5430 -0.0818  0.3718
   57SAPC   C34 4239   3.465   4.597  10.111 -0.0092  0.0642 -0.5092
   57SAPC   H4X 4240   3.369   4.542  10.101  1.5450 -2.7486 -0.4567
   57SAPC   H4Y 4241   3.536   4.560  10.034  2.4460 -0.1593  1.7824
   57SAPC   C35 4242   3.432   4.746  10.094 -0.2994 -0.0197  0.6243
   57SAPC   H5X 4243   3.529   4.799  10.109  0.4792 -0.7495 -1.5737
   57SAPC   H5Y 4244   3.364   4.788  10.171 -0.0459  0.7188  0.4471
   57SAPC   C36 4245   3.366   4.781   9.957  0.0407 -0.1602  0.0209
   57SAPC   H6X 4246   3.277   4.718   9.933  0.1252 -0.8461  1.4630
   57SAPC   H6Y 4247   3.443   4.751   9.882  0.2331 -1.3752  0.6861
   57SAPC   C37 4248   3.322   4.923   9.964  0.0195 -0.2554 -0.5894
   57SAPC   H7X 4249   3.405   4.984  10.005  1.5473 -1.8229 -1.2778
   57SAPC   H7Y 4250   3.232   4.924  10.030  0.7539  0.3672  0.4117
   57SAPC   C38 4251   3.294   4.983   9.816 -0.1411  0.2406 -0.0920
   57SAPC   H8X 4252   3.259   5.086   9.835  2.8446  1.0473  1.3492
   57SAPC   H8Y 4253   3.220   4.908   9.778 -1.3176  0.2503  2.1014
   57SAPC   C39 4254   3.410   4.982   9.720 -0.2691  0.6711 -0.3570
   57SAPC   H9X 4255   3.447   4.877   9.714  0.0492  0.7770 -0.2483
   57SAPC   H9Y 4256   3.498   5.043   9.751 -0.5810  2.1372 -2.2609
   57SAPC  C310 4257   3.364   5.036   9.588 -0.0922 -0.1933  0.8107
   57SAPC  H10X 4258   3.339   5.144   9.586 -0.6929 -0.3066  1.5052
   57SAPC  H10Y 4259   3.270   4.983   9.559  0.2679  0.7544 -2.2356
   57SAPC  C311 4260   3.455   5.000   9.469  0.3293 -0.7279 -0.9880
   57SAPC  H11X 4261   3.440   4.893   9.443  2.9942 -0.9867 -1.6090
   57SAPC  H11Y 4262   3.557   5.005   9.512 -0.1835  1.1692  0.0742
   57SAPC  C312 4263   3.439   5.087   9.346 -0.0202 -0.6052  0.3990
   57SAPC  H12X 4264   3.508   5.171   9.368  0.2707 -0.6749 -0.2142
   57SAPC  H12Y 4265   3.339   5.135   9.345 -0.9320 -2.4652 -0.6044
   57SAPC  C313 4266   3.471   5.020   9.218 -0.0155  0.6373  0.1288
   57SAPC  H13X 4267   3.369   4.979   9.201  0.1035  0.2008  0.4391
   57SAPC  H13Y 4268   3.544   4.937   9.230 -1.3196 -1.3390 -4.2468
   57SAPC  C314 4269   3.511   5.116   9.104 -0.0773  0.0026 -0.5365
   57SAPC  H14X 4270   3.603   5.167   9.138 -0.2693  0.6690 -0.9957
   57SAPC  H14Y 4271   3.431   5.193   9.088 -0.9225 -0.4589  1.3498
   57SAPC  C315 4272   3.546   5.052   8.967  0.1005  0.6759 -0.3259
   57SAPC  H15X 4273   3.466   4.979   8.943  2.0620 -0.9964 -1.9894
   57SAPC  H15Y 4274   3.638   4.995   8.992  1.0069  2.1219 -0.3103
   57SAPC  C316 4275   3.573   5.152   8.851 -0.0335  0.1617 -0.5211
   57SAPC  H16X 4276   3.630   5.096   8.775  1.3537  2.0581 -0.9048
   57SAPC  H16Y 4277   3.643   5.235   8.875  0.9407 -0.3242 -1.6263
   57SAPC  C317 4278   3.449   5.207   8.775  0.4058 -0.1865  0.4111
   57SAPC  H17X 4279   3.386   5.257   8.852  0.4706  1.1724 -0.3966
   57SAPC  H17Y 4280   3.391   5.120   8.739  0.1686  0.1485 -0.0202
   57SAPC  C318 4281   3.489   5.295   8.655  0.1172  0.1812  0.4256
   57SAPC  H18X 4282   3.558   5.373   8.695 -2.2933  2.0612  1.0163
   57SAPC  H18Y 4283   3.402   5.329   8.595  0.4709 -0.4749 -0.4547
   57SAPC  H18Z 4284   3.552   5.252   8.574 -0.3864 -1.9290  1.1252
   58SAPC     N 4285   6.532   3.121  11.154 -0.1752 -0.5445 -0.2098
   58SAPC   C12 4286   6.502   3.117  11.012  0.3261  0.0910  0.8597
   58SAPC  H12A 4287   6.588   3.126  10.948  0.7221 -1.4566  1.1438
   58SAPC  H12B 4288   6.431   3.197  10.994 -1.1800 -1.3202  0.3220
   58SAPC   C13 4289   6.414   3.096  11.248  0.1236  0.2594 -0.2498
   58SAPC  H13A 4290   6.437   3.084  11.353  2.3997  0.4780 -0.7121
   58SAPC  H13B 4291   6.348   3.180  11.236  0.5467  0.2495 -2.7568
   58SAPC  H13C 4292   6.362   3.004  11.224  0.3972 -0.0139  0.1868
   58SAPC   C14 4293   6.634   3.010  11.196  0.7259 -0.1168  0.5949
   58SAPC  H14A 4294   6.661   3.014  11.301  1.2742  1.5223  0.4110
   58SAPC  H14B 4295   6.596   2.917  11.156 -2.4175  0.4227  2.1633
   58SAPC  H14C 4296   6.728   3.029  11.147  0.0574 -0.4460 -0.8313
   58SAPC   C15 4297   6.592   3.254  11.189  0.0129  0.0720 -0.5848
   58SAPC  H15A 4298   6.689   3.274  11.146  0.4791 -2.3379 -0.7320
   58SAPC  H15B 4299   6.523   3.333  11.164  0.0928  0.2700 -0.1780
   58SAPC  H15C 4300   6.595   3.252  11.297  0.7671 -1.7755 -0.6134
   58SAPC   C11 4301   6.426   2.990  10.961  0.1078 -0.2704 -0.6198
   58SAPC  H11A 4302   6.339   2.961  11.025 -1.8848  0.2408 -3.0307
   58SAPC  H11B 4303   6.499   2.906  10.964 -0.5200 -0.8182 -0.4238
   58SAPC     P 4304   6.484   3.015  10.706 -0.3895 -0.4265 -0.3144
   58SAPC   O13 4305   6.427   3.089  10.591  0.0435 -0.3416 -0.1837
   58SAPC   O14 4306   6.616   3.065  10.753 -0.0144  0.6306  0.5942
   58SAPC   O12 4307   6.383   3.024  10.828 -0.5387  0.1193  0.5522
   58SAPC   O11 4308   6.504   2.859  10.663  0.2909  0.0078 -0.2540
   58SAPC    C1 4309   6.377   2.796  10.634 -0.3019  0.5891 -0.3585
   58SAPC    HA 4310   6.363   2.718  10.712 -0.5772 -0.3793 -1.3758
   58SAPC    HB 4311   6.288   2.862  10.645 -1.0217 -0.3453 -0.4897
   58SAPC    C2 4312   6.379   2.725  10.495  0.3509  0.1173 -0.2762
   58SAPC    HS 4313   6.463   2.652  10.494  1.6003  1.5244  0.4048
   58SAPC   O21 4314   6.395   2.829  10.397  0.0611  0.5204  0.3507
   58SAPC   C21 4315   6.516   2.835  10.329 -0.5234  1.0805  0.2173
   58SAPC   O22 4316   6.612   2.767  10.353 -0.2261  0.4144  0.5548
   58SAPC   C22 4317   6.511   2.961  10.232  0.7543 -0.3315  0.1923
   58SAPC   H2R 4318   6.427   3.028  10.262 -0.5483 -0.1589 -3.6098
   58SAPC   H2S 4319   6.611   3.008  10.245  1.1865 -1.3421  0.5850
   58SAPC    C3 4320   6.246   2.644  10.480 -0.0398  0.0417 -0.0623
   58SAPC    HX 4321   6.168   2.722  10.495 -1.9104 -1.7152 -0.3836
   58SAPC    HY 4322   6.242   2.570  10.562 -0.2724  1.6915  1.4232
   58SAPC   O31 4323   6.235   2.589  10.345  0.7131 -1.0285  0.2571
   58SAPC   C31 4324   6.126   2.521  10.331  0.3629 -0.1724  0.4504
   58SAPC   O32 4325   6.042   2.503  10.418  0.1473  0.2672 -0.2132
   58SAPC   C32 4326   6.124   2.470  10.194  0.1922  0.9152 -0.1823
   58SAPC   H2X 4327   6.221   2.489  10.145  0.0250  2.0621 -0.0776
   58SAPC   H2Y 4328   6.045   2.529  10.142  0.6055  2.8257  1.3354
   58SAPC   C23 4329   6.503   2.921  10.083 -0.0982 -0.3104 -0.2807
   58SAPC   H3R 4330   6.607   2.931  10.045  0.2413 -1.8076  0.2330
   58SAPC   H3S 4331   6.438   2.993  10.029  0.1679  0.1195 -0.0273
   58SAPC   C24 4332   6.452   2.781  10.059  0.3294  0.3381 -0.3885
   58SAPC   H4R 4333   6.505   2.704  10.118 -1.4282 -0.2341  0.4931
   58SAPC   H4S 4334   6.476   2.755   9.954 -1.7501  0.0491 -0.8097
   58SAPC   C25 4335   6.308   2.771  10.069  0.5004 -0.5081 -0.7361
   58SAPC   H5R 4336   6.262   2.801  10.165 -0.1443  0.4666 -1.3361
   58SAPC   C26 4337   6.226   2.742   9.968 -0.1425 -0.1624  0.1337
   58SAPC   H6R 4338   6.120   2.728   9.995 -0.0904  0.9233  0.9445
   58SAPC   C27 4339   6.250   2.710   9.820  0.4438  0.2537 -0.3518
   58SAPC   H7R 4340   6.169   2.647   9.778 -0.1751  3.2397 -3.9538
   58SAPC   H7S 4341   6.341   2.649   9.801  0.9987  0.6906  0.8332
   58SAPC   C28 4342   6.265   2.833   9.738 -0.1406  0.5725 -0.8396
   58SAPC   H8R 4343   6.315   2.918   9.787 -0.1931  0.1115  0.0255
   58SAPC   C29 4344   6.276   2.834   9.606  0.0027 -0.3205  0.1681
   58SAPC   H9R 4345   6.296   2.929   9.555 -0.2218 -0.2493  0.2102
   58SAPC  C210 4346   6.254   2.714   9.518  0.2913 -0.5439  0.2543
   58SAPC  H10R 4347   6.295   2.620   9.560 -1.3812 -0.1608  2.7876
   58SAPC  H10S 4348   6.313   2.742   9.427  0.8779  2.6039  1.5257
   58SAPC  C211 4349   6.109   2.700   9.480  1.0744 -0.7444  0.5588
   58SAPC  H11R 4350   6.039   2.687   9.564  0.7420 -1.6458  0.1491
   58SAPC  C212 4351   6.057   2.687   9.359 -0.0884  0.2488  0.1487
   58SAPC  H12R 4352   5.947   2.678   9.359 -0.2775  2.2388  1.0763
   58SAPC  C213 4353   6.136   2.680   9.230 -0.2471  0.4164 -0.1858
   58SAPC  H13R 4354   6.098   2.591   9.176 -0.7302 -1.6005  3.3314
   58SAPC  H13S 4355   6.238   2.652   9.266  0.3427  3.1033  0.4126
   58SAPC  C214 4356   6.138   2.811   9.151  0.0203 -1.0335 -0.7828
   58SAPC  H14R 4357   6.196   2.891   9.200 -1.0019  1.1631 -3.0581
   58SAPC  C215 4358   6.085   2.840   9.033  0.8811 -0.3424 -0.4033
   58SAPC  H15R 4359   6.112   2.933   8.981 -0.5157  0.4082  0.1760
   58SAPC  C216 4360   6.015   2.745   8.950 -0.2181  0.2451 -0.4983
   58SAPC  H16R 4361   6.025   2.642   8.990  0.9227  1.0691  1.3590
   58SAPC  H16S 4362   6.046   2.745   8.843  2.0751  1.8049  0.1263
   58SAPC  C217 4363   5.863   2.781   8.966  0.3031 -0.9489  0.0927
   58SAPC  H17R 4364   5.843   2.828   9.065  2.8001  0.9715 -0.2855
   58SAPC  H17S 4365   5.807   2.684   8.962  1.6960 -1.7643  0.1929
   58SAPC  C218 4366   5.812   2.884   8.853 -0.0911  0.5902 -0.7934
   58SAPC  H18R 4367   5.817   2.846   8.749 -1.7784  0.6582 -0.9208
   58SAPC  H18S 4368   5.881   2.971   8.860 -0.3360  0.7196  0.1091
   58SAPC  C219 4369   5.669   2.940   8.884 -0.4404  0.3090 -0.0281
   58SAPC  H19R 4370   5.691   2.984   8.983 -2.3694  2.7967 -0.6605
   58SAPC  H19S 4371   5.594   2.859   8.890 -0.7097  0.6452  1.2896
   58SAPC  C220 4372   5.631   3.047   8.783  0.1878 -0.1990  1.0861
   58SAPC  H20R 4373   5.535   3.097   8.809  0.3533  0.1732  0.9927
   58SAPC  H20S 4374   5.607   2.990   8.690 -0.5366  0.2433  1.0023
   58SAPC  H20T 4375   5.707   3.126   8.767 -0.5103  0.2407 -0.1545
   58SAPC   C33 4376   6.060   2.326  10.182  0.1606 -0.2513  0.5872
   58SAPC   H3X 4377   5.980   2.316  10.258  0.1084  0.0539  0.5761
   58SAPC   H3Y 4378   6.132   2.250  10.218 -1.1565 -0.9091  1.8846
   58SAPC   C34 4379   6.010   2.291  10.038  0.6848 -0.0073  0.1142
   58SAPC   H4X 4380   5.930   2.360  10.005 -0.6379 -1.8351 -0.6122
   58SAPC   H4Y 4381   5.963   2.190  10.031  0.7241 -0.0065 -0.1601
   58SAPC   C35 4382   6.111   2.298   9.927 -0.3380  0.7614  0.1687
   58SAPC   H5X 4383   6.195   2.231   9.956  1.3352  2.4814 -0.6116
   58SAPC   H5Y 4384   6.150   2.402   9.917 -2.0151  1.7390  3.1408
   58SAPC   C36 4385   6.052   2.243   9.796 -0.1822  0.3351  0.1355
   58SAPC   H6X 4386   5.943   2.263   9.781 -0.7130 -3.5235 -1.8379
   58SAPC   H6Y 4387   6.064   2.133   9.806  0.6052  0.3458 -0.6797
   58SAPC   C37 4388   6.126   2.291   9.671 -0.5984  0.5079 -0.9939
   58SAPC   H7X 4389   6.231   2.255   9.668 -1.1230 -1.0998 -0.3540
   58SAPC   H7Y 4390   6.135   2.402   9.668  0.2792  0.4745  0.0801
   58SAPC   C38 4391   6.060   2.235   9.537 -0.3186 -0.4313 -0.3097
   58SAPC   H8X 4392   5.956   2.271   9.548 -0.7201 -2.0529  1.5698
   58SAPC   H8Y 4393   6.056   2.124   9.540 -1.1282 -0.3673  1.5962
   58SAPC   C39 4394   6.130   2.291   9.411 -0.6548  0.5305 -0.8584
   58SAPC   H9X 4395   6.239   2.276   9.402 -1.1245 -2.3312 -2.4325
   58SAPC   H9Y 4396   6.116   2.398   9.439  0.2201  0.3082  0.4764
   58SAPC  C310 4397   6.054   2.254   9.282  1.0246  0.0553  0.1339
   58SAPC  H10X 4398   5.954   2.303   9.291  1.0024 -0.1708  1.1492
   58SAPC  H10Y 4399   6.026   2.147   9.271 -2.2767  0.6231  2.0482
   58SAPC  C311 4400   6.128   2.302   9.159  0.0006  0.6795  0.1902
   58SAPC  H11X 4401   6.219   2.239   9.149 -0.4708  0.0356 -0.0629
   58SAPC  H11Y 4402   6.167   2.402   9.189  1.9557  0.2331 -0.8115
   58SAPC  C312 4403   6.039   2.312   9.034  0.0895 -0.3801 -0.3717
   58SAPC  H12X 4404   5.958   2.388   9.050 -0.1893 -0.6994 -0.2641
   58SAPC  H12Y 4405   5.992   2.215   9.009 -0.0414 -0.7653  1.3650
   58SAPC  C313 4406   6.126   2.358   8.919 -0.3132  0.7712 -0.6950
   58SAPC  H13X 4407   6.199   2.275   8.910  0.0681  1.1852 -1.4311
   58SAPC  H13Y 4408   6.180   2.453   8.940  0.1309  0.4793 -0.5263
   58SAPC  C314 4409   6.052   2.357   8.786 -0.7045  0.2510 -0.5089
   58SAPC  H14X 4410   5.962   2.421   8.795 -0.2953  0.8564 -0.7070
   58SAPC  H14Y 4411   6.009   2.255   8.778 -1.7843  0.5851  0.7300
   58SAPC  C315 4412   6.144   2.397   8.664 -0.2077  0.1045 -0.7321
   58SAPC  H15X 4413   6.214   2.311   8.653 -0.2180 -0.4264  2.7034
   58SAPC  H15Y 4414   6.193   2.495   8.682 -0.4009 -0.0798  0.8514
   58SAPC  C316 4415   6.065   2.418   8.537 -0.2043 -0.4022  0.0950
   58SAPC  H16X 4416   6.022   2.521   8.531  1.9388  0.4882 -0.6243
   58SAPC  H16Y 4417   5.972   2.357   8.538 -1.6192  1.6148 -1.7044
   58SAPC  C317 4418   6.158   2.395   8.414 -0.6392 -0.2184 -0.1126
   58SAPC  H17X 4419   6.181   2.287   8.401  0.4049  0.3291 -3.2160
   58SAPC  H17Y 4420   6.257   2.443   8.428 -1.0010  0.5785 -0.2856
   58SAPC  C318 4421   6.104   2.428   8.275  0.8443  0.1516 -0.1719
   58SAPC  H18X 4422   6.073   2.334   8.223  3.0432 -0.1427 -1.0170
   58SAPC  H18Y 4423   6.194   2.467   8.222  2.4598 -1.6745  1.1369
   58SAPC  H18Z 4424   6.022   2.502   8.264  0.3232 -0.3598  0.2617
   59SAPC     N 4425   0.574   3.917  11.269  0.1537 -0.1604  0.4983
   59SAPC   C12 4426   0.653   3.856  11.155  0.0650  0.2611 -0.5693
   59SAPC  H12A 4427   0.610   3.763  11.122  2.0000 -0.1600 -1.9958
   59SAPC  H12B 4428   0.741   3.819  11.206  1.4936  3.3141 -0.7169
   59SAPC   C13 4429   0.432   3.946  11.228  0.1360 -0.0658  0.4349
   59SAPC  H13A 4430   0.377   3.955  11.320  0.4384  0.1056  0.5991
   59SAPC  H13B 4431   0.421   4.035  11.168 -3.5352 -1.0598 -0.5094
   59SAPC  H13C 4432   0.395   3.862  11.169  1.9292  0.3452 -1.3578
   59SAPC   C14 4433   0.562   3.824  11.391 -0.7429  0.0077  0.3513
   59SAPC  H14A 4434   0.646   3.757  11.393  0.3180  1.2816 -0.4780
   59SAPC  H14B 4435   0.551   3.882  11.482 -0.5222  1.4816 -0.5370
   59SAPC  H14C 4436   0.471   3.767  11.380  0.9022 -2.0890 -3.2532
   59SAPC   C15 4437   0.642   4.042  11.314  0.2549  0.4032  0.6540
   59SAPC  H15A 4438   0.654   4.107  11.228 -2.0541  1.2911  0.9860
   59SAPC  H15B 4439   0.580   4.106  11.375 -1.2691  0.3932 -0.8710
   59SAPC  H15C 4440   0.740   4.023  11.357  1.1184  1.4100 -0.7986
   59SAPC   C11 4441   0.693   3.935  11.029  0.3443 -0.3281  0.2097
   59SAPC  H11A 4442   0.598   3.970  10.982 -0.2217 -2.1853 -0.0836
   59SAPC  H11B 4443   0.746   3.867  10.959  0.5030  1.3120 -1.3023
   59SAPC     P 4444   0.918   4.016  11.120 -0.3441 -0.3592  0.2973
   59SAPC   O13 4445   0.924   4.057  11.259  0.3030  0.3770  0.4343
   59SAPC   O14 4446   0.965   3.881  11.084 -0.2228  0.1549 -0.0568
   59SAPC   O12 4447   0.773   4.044  11.056  0.2032 -0.3838  0.1445
   59SAPC   O11 4448   1.005   4.112  11.043  1.0165 -0.0470 -0.0846
   59SAPC    C1 4449   0.962   4.193  10.930  0.5935  0.2239  0.3455
   59SAPC    HA 4450   0.862   4.239  10.947  0.7978  0.8011 -0.0023
   59SAPC    HB 4451   1.023   4.286  10.933  1.1689 -0.1604  0.6036
   59SAPC    C2 4452   0.978   4.124  10.794  0.2132 -0.2656 -0.4575
   59SAPC    HS 4453   0.907   4.038  10.800 -2.4169  1.8730  0.2062
   59SAPC   O21 4454   1.113   4.085  10.762  0.2343 -0.7383 -0.3680
   59SAPC   C21 4455   1.132   3.960  10.719 -0.3966 -0.6386  0.0938
   59SAPC   O22 4456   1.048   3.878  10.703 -0.2315  0.3954 -0.3228
   59SAPC   C22 4457   1.275   3.938  10.674  0.1578 -0.1643  0.3624
   59SAPC   H2R 4458   1.294   4.008  10.590  1.3279 -2.4730 -1.3861
   59SAPC   H2S 4459   1.348   3.973  10.750  1.2745 -0.6360 -0.4684
   59SAPC    C3 4460   0.927   4.217  10.677  0.6398  0.5157  0.3150
   59SAPC    HX 4461   1.001   4.300  10.682  3.7062 -2.2145  2.7509
   59SAPC    HY 4462   0.829   4.265  10.697  1.1926  1.0850  1.7879
   59SAPC   O31 4463   0.946   4.145  10.550 -0.0548 -0.4062 -0.2099
   59SAPC   C31 4464   0.823   4.089  10.521  0.3214 -0.3996 -0.7356
   59SAPC   O32 4465   0.722   4.109  10.577 -0.2101  0.3487  0.3011
   59SAPC   C32 4466   0.847   3.999  10.395  0.1894 -0.0116  0.3265
   59SAPC   H2X 4467   0.947   3.953  10.410  0.3494  1.0741  2.9662
   59SAPC   H2Y 4468   0.863   4.067  10.309 -1.6351  0.9923  0.7548
   59SAPC   C23 4469   1.294   3.793  10.636 -0.4484  0.6637 -0.4255
   59SAPC   H3R 4470   1.241   3.777  10.539 -2.2169 -2.8895  1.0496
   59SAPC   H3S 4471   1.251   3.730  10.717 -0.3135  1.3381  0.1748
   59SAPC   C24 4472   1.444   3.757  10.631  0.1934  0.0533 -0.0285
   59SAPC   H4R 4473   1.455   3.654  10.589  2.4375 -0.7726  2.4239
   59SAPC   H4S 4474   1.479   3.750  10.736 -1.5590  0.8677  0.6275
   59SAPC   C25 4475   1.543   3.849  10.565  1.0493  0.7784  0.3593
   59SAPC   H5R 4476   1.595   3.924  10.627  0.4257  1.2257  0.3479
   59SAPC   C26 4477   1.573   3.859  10.435 -0.5388 -0.5188 -0.8564
   59SAPC   H6R 4478   1.654   3.925  10.400  1.6303 -3.1850 -0.9845
   59SAPC   C27 4479   1.511   3.775  10.328  0.1287  0.4073  0.6387
   59SAPC   H7R 4480   1.435   3.833  10.271  0.1121 -0.4048 -0.1696
   59SAPC   H7S 4481   1.462   3.684  10.367  0.1442  0.5403  0.9718
   59SAPC   C28 4482   1.624   3.731  10.237 -0.3475  0.0728  0.6180
   59SAPC   H8R 4483   1.692   3.662  10.289 -1.8424 -1.1980  0.9082
   59SAPC   C29 4484   1.670   3.779  10.116 -0.5213  0.5135 -0.0115
   59SAPC   H9R 4485   1.755   3.732  10.065 -0.0263  0.4933  0.8166
   59SAPC  C210 4486   1.604   3.897  10.038  0.2992  0.7486  0.1309
   59SAPC  H10R 4487   1.672   3.982  10.017  1.0601  0.4329  1.2709
   59SAPC  H10S 4488   1.522   3.940  10.100  1.7984  0.4609  2.3579
   59SAPC  C211 4489   1.538   3.844   9.912  0.4276  0.0319  0.0742
   59SAPC  H11R 4490   1.472   3.757   9.925 -0.7438  0.7394 -0.9654
   59SAPC  C212 4491   1.558   3.888   9.786  0.7369 -0.5557 -0.0454
   59SAPC  H12R 4492   1.491   3.841   9.713 -1.4116 -0.3512  1.7506
   59SAPC  C213 4493   1.654   3.995   9.739 -0.4034  0.2184  0.1266
   59SAPC  H13R 4494   1.705   3.937   9.659 -0.0819  0.5988  0.0601
   59SAPC  H13S 4495   1.732   4.024   9.812 -1.2178  0.9554  0.7258
   59SAPC  C214 4496   1.595   4.114   9.673  0.7318 -0.0055  0.3921
   59SAPC  H14R 4497   1.540   4.183   9.738 -0.9954 -0.9581 -0.0159
   59SAPC  C215 4498   1.599   4.148   9.541 -1.1164 -0.0097 -0.4261
   59SAPC  H15R 4499   1.548   4.237   9.500  0.1960 -0.6038 -3.4830
   59SAPC  C216 4500   1.659   4.064   9.430  0.1421  0.3049  0.7712
   59SAPC  H16R 4501   1.660   3.957   9.460 -1.5094 -0.0382 -0.2537
   59SAPC  H16S 4502   1.764   4.091   9.408  0.0005  1.1992  1.1879
   59SAPC  C217 4503   1.575   4.064   9.298 -0.5727 -0.0416  0.8878
   59SAPC  H17R 4504   1.471   4.026   9.310 -0.1520 -2.9422 -3.4999
   59SAPC  H17S 4505   1.628   3.993   9.232 -1.2257 -0.6334  0.9992
   59SAPC  C218 4506   1.562   4.201   9.229 -0.1383 -0.3793 -0.3569
   59SAPC  H18R 4507   1.652   4.251   9.270  0.0300 -0.6744 -0.3658
   59SAPC  H18S 4508   1.473   4.256   9.269 -0.8930 -2.5444  1.0151
   59SAPC  C219 4509   1.561   4.199   9.078  0.0088  0.0658 -0.0262
   59SAPC  H19R 4510   1.533   4.296   9.033 -0.7279 -0.4340 -0.6500
   59SAPC  H19S 4511   1.495   4.116   9.046  0.9710 -0.6505 -0.1837
   59SAPC  C220 4512   1.696   4.155   9.017  0.7734  0.1633  0.0475
   59SAPC  H20R 4513   1.733   4.059   9.059  1.2417  0.5911  0.6359
   59SAPC  H20S 4514   1.783   4.219   9.044  1.5808  0.4030 -2.9540
   59SAPC  H20T 4515   1.693   4.144   8.907  0.8141 -0.7140  0.1309
   59SAPC   C33 4516   0.743   3.889  10.385  0.0106  0.7678  0.2831
   59SAPC   H3X 4517   0.719   3.834  10.478 -2.2509 -1.9448 -1.7937
   59SAPC   H3Y 4518   0.765   3.809  10.311  1.7413  2.1287 -0.7305
   59SAPC   C34 4519   0.614   3.950  10.329 -0.2049 -0.6579 -0.3907
   59SAPC   H4X 4520   0.603   4.053  10.370  0.7281 -0.0294 -1.6851
   59SAPC   H4Y 4521   0.527   3.892  10.366  1.0210 -0.9801  2.0334
   59SAPC   C35 4522   0.597   3.943  10.173 -0.1848 -0.6790 -0.3662
   59SAPC   H5X 4523   0.491   3.963  10.147 -0.1855 -0.0559  0.1050
   59SAPC   H5Y 4524   0.630   3.842  10.139 -1.4583 -0.8199 -1.2002
   59SAPC   C36 4525   0.667   4.052  10.094 -0.6580 -0.3777  1.2817
   59SAPC   H6X 4526   0.777   4.037  10.091 -0.6800 -0.3929  0.4294
   59SAPC   H6Y 4527   0.649   4.154  10.135 -4.7322 -1.2452  1.8087
   59SAPC   C37 4528   0.606   4.050   9.949 -0.3019  0.4909 -0.0313
   59SAPC   H7X 4529   0.624   4.140   9.886  0.3931  1.3125  1.3399
   59SAPC   H7Y 4530   0.496   4.032   9.959 -0.0434 -0.6941  0.8327
   59SAPC   C38 4531   0.654   3.929   9.874  0.2057 -0.0741  0.4498
   59SAPC   H8X 4532   0.629   3.839   9.934 -2.9233  0.7254  0.3807
   59SAPC   H8Y 4533   0.764   3.943   9.867  0.1516 -0.0529 -0.5194
   59SAPC   C39 4534   0.594   3.924   9.732 -0.5091 -0.5846 -0.6089
   59SAPC   H9X 4535   0.483   3.932   9.742 -0.7634 -0.0074 -3.6215
   59SAPC   H9Y 4536   0.613   3.820   9.696 -0.3640  0.1013 -2.5477
   59SAPC  C310 4537   0.646   4.017   9.623 -0.2520 -0.7524 -0.2971
   59SAPC  H10X 4538   0.757   4.019   9.624 -0.2078  0.6831 -3.6380
   59SAPC  H10Y 4539   0.619   4.120   9.653  1.2789 -0.3470 -0.2582
   59SAPC  C311 4540   0.588   4.004   9.487 -0.3311 -1.0183 -0.2538
   59SAPC  H11X 4541   0.640   3.929   9.424 -1.0016 -0.2417 -1.7436
   59SAPC  H11Y 4542   0.609   4.095   9.429  0.7500  0.0919  1.8291
   59SAPC  C312 4543   0.437   3.985   9.476 -0.2225 -0.3152 -0.6400
   59SAPC  H12X 4544   0.383   4.063   9.534 -1.2195  0.9704 -3.2618
   59SAPC  H12Y 4545   0.426   3.882   9.518  0.1080  0.0618  0.4021
   59SAPC  C313 4546   0.398   3.978   9.326  0.5003  0.3161 -0.3006
   59SAPC  H13X 4547   0.467   3.921   9.260 -0.0105  0.7290 -1.2046
   59SAPC  H13Y 4548   0.392   4.080   9.282  0.8722  0.2257 -0.5684
   59SAPC  C314 4549   0.263   3.923   9.292 -0.7696  0.5167  0.3607
   59SAPC  H14X 4550   0.189   3.982   9.350 -1.4040 -2.3599  2.5816
   59SAPC  H14Y 4551   0.253   3.820   9.333 -0.9455  1.5103  2.9254
   59SAPC  C315 4552   0.236   3.924   9.141 -0.0921  0.0802 -0.9994
   59SAPC  H15X 4553   0.332   3.909   9.087  2.2657 -3.3834  3.8322
   59SAPC  H15Y 4554   0.201   4.020   9.096 -0.9097 -0.3214 -1.2262
   59SAPC  C316 4555   0.141   3.822   9.084  0.2261 -0.4605  0.0168
   59SAPC  H16X 4556   0.189   3.722   9.097 -1.5646 -1.5251 -1.3920
   59SAPC  H16Y 4557   0.147   3.825   8.973 -1.2687  0.5867 -0.0563
   59SAPC  C317 4558   0.003   3.822   9.136 -0.5865  0.4005 -0.0076
   59SAPC  H17X 4559  -0.034   3.926   9.150  1.3435  0.7718  2.8168
   59SAPC  H17Y 4560   0.007   3.774   9.236 -1.7792 -2.0791 -1.0927
   59SAPC  C318 4561  -0.085   3.744   9.049  0.2863 -0.7500 -0.0179
   59SAPC  H18X 4562  -0.184   3.739   9.099 -0.3880 -0.1742 -1.2732
   59SAPC  H18Y 4563  -0.045   3.640   9.051 -0.0721 -0.8645  1.4581
   59SAPC  H18Z 4564  -0.103   3.792   8.950  2.7508  0.0065 -0.1149
   60SAPC     N 4565   2.242   1.821  10.924  0.2009  0.2891 -0.3726
   60SAPC   C12 4566   2.250   1.798  10.775  0.1791 -0.9650  0.0172
   60SAPC  H12A 4567   2.211   1.702  10.747 -0.0111 -0.9733  0.3191
   60SAPC  H12B 4568   2.355   1.791  10.751  0.0746  2.1990 -1.5978
   60SAPC   C13 4569   2.317   1.949  10.954 -0.0845 -0.0767 -0.0212
   60SAPC  H13A 4570   2.285   2.029  10.889  0.1598 -1.4899 -1.9208
   60SAPC  H13B 4571   2.304   1.984  11.055 -1.0061 -1.9543  0.5305
   60SAPC  H13C 4572   2.425   1.941  10.944 -0.0909  0.0680 -0.2187
   60SAPC   C14 4573   2.110   1.840  10.980 -0.0732 -0.1170 -0.0892
   60SAPC  H14A 4574   2.050   1.918  10.937  1.0971  0.7086 -0.2609
   60SAPC  H14B 4575   2.051   1.752  10.960 -0.4564 -0.1836  1.3177
   60SAPC  H14C 4576   2.111   1.842  11.088 -0.6802 -0.0421 -0.0856
   60SAPC   C15 4577   2.299   1.709  11.008 -0.0178  0.2382 -0.3195
   60SAPC  H15A 4578   2.244   1.616  11.000 -0.0380  0.0373  1.8086
   60SAPC  H15B 4579   2.400   1.695  10.971 -0.2822  1.5272 -1.5389
   60SAPC  H15C 4580   2.307   1.729  11.114 -0.9274  1.3290 -0.4501
   60SAPC   C11 4581   2.192   1.901  10.677 -0.5949  0.4281 -0.2909
   60SAPC  H11A 4582   2.093   1.934  10.715  0.0285 -1.1147  2.8058
   60SAPC  H11B 4583   2.175   1.850  10.580 -1.2558  0.3462 -0.1324
   60SAPC     P 4584   2.401   2.031  10.597  0.5077  0.2772 -0.2743
   60SAPC   O13 4585   2.466   2.155  10.637 -0.1777  0.4433  0.0129
   60SAPC   O14 4586   2.474   1.904  10.614  0.1052 -0.5691  0.0078
   60SAPC   O12 4587   2.267   2.020  10.677 -0.5972  0.5437 -1.0432
   60SAPC   O11 4588   2.351   2.032  10.443 -0.3156 -0.5149 -0.2196
   60SAPC    C1 4589   2.259   2.140  10.415  0.3188 -0.2406 -1.0091
   60SAPC    HA 4590   2.158   2.097  10.396 -0.5567  0.9949  0.7759
   60SAPC    HB 4591   2.253   2.210  10.500  0.6465  1.3140 -2.2455
   60SAPC    C2 4592   2.309   2.233  10.300  0.4518  1.1140 -0.0152
   60SAPC    HS 4593   2.234   2.314  10.284  0.1246  0.5773 -1.3267
   60SAPC   O21 4594   2.321   2.162  10.169  0.1259  0.0888  0.5775
   60SAPC   C21 4595   2.198   2.109  10.126  0.9629  0.4853  0.0571
   60SAPC   O22 4596   2.091   2.140  10.174  0.5706 -0.4152  0.0983
   60SAPC   C22 4597   2.222   2.020  10.003  0.0685 -0.5901  0.7760
   60SAPC   H2R 4598   2.312   1.960  10.026 -0.7516 -2.4321 -0.7478
   60SAPC   H2S 4599   2.148   1.939   9.986 -2.8098  1.6830  1.9451
   60SAPC    C3 4600   2.442   2.308  10.341  0.0231 -0.4794  0.6188
   60SAPC    HX 4601   2.525   2.237  10.360 -1.1942 -2.2857 -0.6858
   60SAPC    HY 4602   2.428   2.350  10.443  1.0264 -0.6286  0.8238
   60SAPC   O31 4603   2.477   2.400  10.236  0.0874 -0.2113 -0.0369
   60SAPC   C31 4604   2.560   2.344  10.137  0.1648 -0.6910 -0.1380
   60SAPC   O32 4605   2.612   2.233  10.139 -0.1734  0.1754 -0.2685
   60SAPC   C32 4606   2.554   2.435  10.014 -0.3309 -0.0382  0.3205
   60SAPC   H2X 4607   2.623   2.519  10.037  1.2782 -1.2079 -0.1465
   60SAPC   H2Y 4608   2.452   2.478  10.009 -0.4927 -0.0655  2.8751
   60SAPC   C23 4609   2.256   2.106   9.882  0.1728  0.4830 -0.2801
   60SAPC   H3R 4610   2.255   2.039   9.794 -1.3343 -0.4914  0.4544
   60SAPC   H3S 4611   2.361   2.142   9.890  0.8369 -1.2168 -1.2964
   60SAPC   C24 4612   2.152   2.215   9.854 -0.1968  0.7102 -0.9998
   60SAPC   H4R 4613   2.179   2.286   9.773 -1.1208 -1.2905 -3.0973
   60SAPC   H4S 4614   2.144   2.285   9.940 -2.0494 -0.0302 -0.5509
   60SAPC   C25 4615   2.022   2.139   9.836  0.2860  0.7609  0.2522
   60SAPC   H5R 4616   1.987   2.088   9.927 -0.6060  0.3737 -0.3015
   60SAPC   C26 4617   1.956   2.113   9.724 -0.2324  0.5566  0.0267
   60SAPC   H6R 4618   1.852   2.077   9.734 -0.8144  1.6113 -1.7779
   60SAPC   C27 4619   1.997   2.162   9.589 -0.0555 -0.0853 -0.7925
   60SAPC   H7R 4620   2.088   2.225   9.586 -0.4862  0.7313  1.7106
   60SAPC   H7S 4621   1.917   2.234   9.559 -0.4830  0.3020  1.2162
   60SAPC   C28 4622   1.994   2.059   9.475 -0.3680 -0.1340  0.8178
   60SAPC   H8R 4623   1.962   1.959   9.509  0.5395  0.3446  3.2084
   60SAPC   C29 4624   2.033   2.087   9.349  0.1539 -0.0950  0.4899
   60SAPC   H9R 4625   2.037   2.001   9.280 -2.5611 -0.7401  1.1017
   60SAPC  C210 4626   2.091   2.214   9.293 -0.6042  0.4226  0.0823
   60SAPC  H10R 4627   2.148   2.261   9.376  1.9362 -0.9282 -0.8505
   60SAPC  H10S 4628   2.007   2.286   9.286 -1.1477 -0.2316 -0.1974
   60SAPC  C211 4629   2.171   2.206   9.169 -1.0986  0.1726 -0.0897
   60SAPC  H11R 4630   2.276   2.197   9.199 -1.0848  1.4244  0.2537
   60SAPC  C212 4631   2.130   2.199   9.046  0.7646  0.6047  0.2115
   60SAPC  H12R 4632   2.206   2.187   8.968  0.9250  2.8678 -0.0340
   60SAPC  C213 4633   1.983   2.194   9.000  0.1255 -0.1861  0.1364
   60SAPC  H13R 4634   1.963   2.296   8.960 -0.0421  0.3017  1.4245
   60SAPC  H13S 4635   1.918   2.198   9.090 -1.0385 -0.1188 -0.6944
   60SAPC  C214 4636   1.953   2.078   8.907  0.0213  0.2283 -0.3583
   60SAPC  H14R 4637   1.955   1.983   8.962 -1.0550  0.2901 -0.1912
   60SAPC  C215 4638   1.924   2.087   8.776 -0.6162 -0.4069 -0.6758
   60SAPC  H15R 4639   1.893   1.995   8.724  0.3678  0.3335 -2.6236
   60SAPC  C216 4640   1.916   2.220   8.694  0.0160 -0.8557 -0.2256
   60SAPC  H16R 4641   2.006   2.282   8.712 -0.6881  0.3112 -0.5998
   60SAPC  H16S 4642   1.825   2.280   8.718 -0.0560 -1.3827  0.8477
   60SAPC  C217 4643   1.913   2.196   8.544 -0.8217 -0.1120 -0.0714
   60SAPC  H17R 4644   1.819   2.146   8.512 -0.6206 -0.6971  0.2438
   60SAPC  H17S 4645   1.996   2.129   8.511 -1.1990 -0.3704 -0.5093
   60SAPC  C218 4646   1.911   2.327   8.467  0.0518  0.1175 -0.2194
   60SAPC  H18R 4647   2.015   2.363   8.458  0.0959  0.0254 -0.0919
   60SAPC  H18S 4648   1.852   2.404   8.522  1.5651 -0.6006  2.5298
   60SAPC  C219 4649   1.854   2.323   8.323 -0.5121 -0.0514 -0.3388
   60SAPC  H19R 4650   1.823   2.427   8.298  0.1457  0.3232  0.4126
   60SAPC  H19S 4651   1.756   2.272   8.337 -1.0349  0.8308 -0.7012
   60SAPC  C220 4652   1.940   2.257   8.208 -0.0570 -0.0278 -0.2128
   60SAPC  H20R 4653   2.049   2.274   8.214  0.2489 -1.9179  0.0491
   60SAPC  H20S 4654   1.901   2.297   8.112 -1.7521 -0.6045  0.2126
   60SAPC  H20T 4655   1.931   2.146   8.213 -0.0488 -0.2048 -3.2490
   60SAPC   C33 4656   2.589   2.350   9.883  0.5677 -0.1729 -0.1752
   60SAPC   H3X 4657   2.534   2.253   9.877 -0.7667  0.4793  1.1608
   60SAPC   H3Y 4658   2.697   2.328   9.895  0.8483  2.0680  1.6562
   60SAPC   C34 4659   2.564   2.436   9.761 -0.2705 -0.4726  0.2073
   60SAPC   H4X 4660   2.628   2.527   9.768 -1.1893  0.1861  0.1171
   60SAPC   H4Y 4661   2.455   2.457   9.760 -0.0540  0.7459  0.9153
   60SAPC   C35 4662   2.611   2.359   9.638 -0.1308 -0.0791  0.5389
   60SAPC   H5X 4663   2.586   2.251   9.651 -0.6414  0.0668  0.7752
   60SAPC   H5Y 4664   2.720   2.371   9.618 -0.0503 -1.1637  0.2875
   60SAPC   C36 4665   2.545   2.423   9.509  0.2211 -0.3218 -0.3873
   60SAPC   H6X 4666   2.566   2.532   9.512 -2.5740  0.2266  0.2532
   60SAPC   H6Y 4667   2.434   2.412   9.511  0.2533 -0.3689  1.1723
   60SAPC   C37 4668   2.582   2.364   9.369 -0.3678  0.0460  0.1455
   60SAPC   H7X 4669   2.574   2.253   9.361  1.5342 -0.1363  0.4424
   60SAPC   H7Y 4670   2.684   2.401   9.346  0.2868 -1.9629 -0.3158
   60SAPC   C38 4671   2.497   2.444   9.270 -0.7104  0.0096  0.1575
   60SAPC   H8X 4672   2.503   2.552   9.295  0.5300  0.3120 -1.3627
   60SAPC   H8Y 4673   2.396   2.407   9.295 -0.6358  1.7174  3.1804
   60SAPC   C39 4674   2.529   2.405   9.118  0.7061 -0.0604  0.0045
   60SAPC   H9X 4675   2.505   2.298   9.104  0.2120  0.1896 -1.1481
   60SAPC   H9Y 4676   2.630   2.434   9.083 -0.0745  1.9335 -0.7286
   60SAPC  C310 4677   2.436   2.483   9.022  0.2096 -0.2141  0.1199
   60SAPC  H10X 4678   2.452   2.593   9.017 -0.5489 -0.1501 -1.2125
   60SAPC  H10Y 4679   2.329   2.477   9.053 -0.1618  0.3644 -1.0103
   60SAPC  C311 4680   2.449   2.426   8.881 -0.1335 -0.2387  0.9199
   60SAPC  H11X 4681   2.422   2.319   8.875  0.5194 -0.5265  2.7205
   60SAPC  H11Y 4682   2.557   2.418   8.853 -0.7461  0.1383 -1.6465
   60SAPC  C312 4683   2.368   2.506   8.780 -0.6402 -0.0841  0.0054
   60SAPC  H12X 4684   2.396   2.613   8.776 -0.1443 -0.2108  0.1118
   60SAPC  H12Y 4685   2.260   2.504   8.806 -0.1360  0.5453  2.2834
   60SAPC  C313 4686   2.376   2.444   8.644 -0.7003  0.2309  0.3619
   60SAPC  H13X 4687   2.367   2.334   8.641 -2.8975  0.4322 -2.0876
   60SAPC  H13Y 4688   2.481   2.458   8.610 -1.2641 -0.1034 -1.5703
   60SAPC  C314 4689   2.284   2.505   8.542  0.2517 -0.0198  0.5826
   60SAPC  H14X 4690   2.298   2.615   8.540 -0.9286  0.1353  0.1444
   60SAPC  H14Y 4691   2.179   2.488   8.574 -0.2874 -2.2522 -2.1653
   60SAPC  C315 4692   2.298   2.461   8.395 -0.3493  0.1625 -0.0713
   60SAPC  H15X 4693   2.271   2.354   8.383  2.1748 -1.4783  6.6576
   60SAPC  H15Y 4694   2.405   2.468   8.366  0.2012 -1.3152  1.5427
   60SAPC  C316 4695   2.228   2.551   8.291  0.1869  0.4116 -0.3054
   60SAPC  H16X 4696   2.233   2.653   8.334  1.5714  0.2592 -0.0947
   60SAPC  H16Y 4697   2.121   2.525   8.271  0.2569 -0.7560  0.7111
   60SAPC  C317 4698   2.289   2.542   8.158  0.0300 -0.2922  0.3287
   60SAPC  H17X 4699   2.284   2.439   8.117  0.5094 -0.2573  0.1870
   60SAPC  H17Y 4700   2.397   2.562   8.177 -0.6675  0.8908  3.5581
   60SAPC  C318 4701   2.234   2.635   8.050 -0.2294 -0.1001  0.1223
   60SAPC  H18X 4702   2.289   2.624   7.954  0.3380 -0.3139  0.4672
   60SAPC  H18Y 4703   2.240   2.741   8.082  0.5425  0.0101 -0.3722
   60SAPC  H18Z 4704   2.129   2.604   8.029  0.1339 -0.6866 -0.8704
   61SAPC     N 4705   3.211   1.657  10.699  0.4222  0.0403 -0.1425
   61SAPC   C12 4706   3.153   1.612  10.831  0.3545 -0.1933  0.8363
   61SAPC  H12A 4707   3.137   1.692  10.902  1.8591  1.2880 -0.4489
   61SAPC  H12B 4708   3.229   1.550  10.878 -1.4874 -3.7040 -0.6444
   61SAPC   C13 4709   3.120   1.752  10.631 -0.5273  0.4597  0.0876
   61SAPC  H13A 4710   3.169   1.774  10.538  1.3301 -3.1976  0.1255
   61SAPC  H13B 4711   3.031   1.696  10.606 -0.8643  1.7479 -1.7303
   61SAPC  H13C 4712   3.102   1.849  10.677 -1.0162 -0.1844  1.2874
   61SAPC   C14 4713   3.340   1.716  10.724 -0.4229 -0.1783  0.5152
   61SAPC  H14A 4714   3.333   1.802  10.789 -1.2371  0.8637 -0.9080
   61SAPC  H14B 4715   3.408   1.649  10.773 -0.1201 -0.5425 -0.3825
   61SAPC  H14C 4716   3.389   1.752  10.635 -2.0344  3.1560  0.9033
   61SAPC   C15 4717   3.226   1.543  10.606 -0.5425  0.4700  0.3028
   61SAPC  H15A 4718   3.302   1.472  10.635 -1.6569 -1.0161 -0.2856
   61SAPC  H15B 4719   3.131   1.491  10.597  0.8583 -2.0862 -0.0668
   61SAPC  H15C 4720   3.248   1.574  10.505 -1.4556 -0.5152 -0.2215
   61SAPC   C11 4721   3.036   1.526  10.824 -0.4704 -0.2599  0.1445
   61SAPC  H11A 4722   3.004   1.490  10.724  1.4653  1.8264 -1.2678
   61SAPC  H11B 4723   2.964   1.604  10.859  0.6844  1.3378 -0.9915
   61SAPC     P 4724   2.988   1.283  10.911 -0.1302  0.0032  0.2497
   61SAPC   O13 4725   3.077   1.166  10.942  0.0466 -0.0556  0.3480
   61SAPC   O14 4726   2.864   1.296  10.994 -0.9170  0.1180 -0.2021
   61SAPC   O12 4727   3.061   1.419  10.916  0.1465  0.2121  0.4810
   61SAPC   O11 4728   2.952   1.260  10.755  0.0450  0.2003 -0.1324
   61SAPC    C1 4729   2.867   1.148  10.709 -0.9063 -0.0078  0.4982
   61SAPC    HA 4730   2.911   1.053  10.744  0.8706  0.3756 -0.6479
   61SAPC    HB 4731   2.764   1.166  10.747 -1.1491  0.0080 -0.1584
   61SAPC    C2 4732   2.871   1.154  10.555  0.7900  0.2296 -0.0952
   61SAPC    HS 4733   2.813   1.070  10.513  0.1184  0.8306 -0.3841
   61SAPC   O21 4734   3.010   1.162  10.504  0.0659  0.4844 -0.7732
   61SAPC   C21 4735   3.078   1.050  10.513 -0.6338  0.4549 -1.0148
   61SAPC   O22 4736   3.037   0.941  10.553 -0.0081  0.6512  0.3311
   61SAPC   C22 4737   3.225   1.078  10.471 -0.2418  0.1419  0.1900
   61SAPC   H2R 4738   3.262   1.173  10.515  0.6285  0.7312 -1.7760
   61SAPC   H2S 4739   3.290   1.000  10.514 -0.4608 -0.0399  0.1928
   61SAPC    C3 4740   2.792   1.274  10.491 -0.9721 -0.1511  0.1367
   61SAPC    HX 4741   2.841   1.366  10.530  1.0466 -0.4225 -1.6698
   61SAPC    HY 4742   2.692   1.280  10.539 -0.2300  0.5986  1.6320
   61SAPC   O31 4743   2.784   1.268  10.352  0.2486  0.4355 -0.0994
   61SAPC   C31 4744   2.692   1.188  10.302 -0.7487 -0.1498 -0.3133
   61SAPC   O32 4745   2.623   1.111  10.370  0.3141  0.0776 -0.4620
   61SAPC   C32 4746   2.689   1.196  10.149  0.4572 -0.3802  0.0528
   61SAPC   H2X 4747   2.794   1.171  10.124  0.3932 -1.7162  1.0551
   61SAPC   H2Y 4748   2.680   1.302  10.118 -0.9140 -0.2337  0.9351
   61SAPC   C23 4749   3.238   1.085  10.316  0.6120 -0.1639 -0.0790
   61SAPC   H3R 4750   3.174   1.162  10.268  1.9268  0.2831 -1.1431
   61SAPC   H3S 4751   3.216   0.988  10.265  0.1121  0.0928 -0.3534
   61SAPC   C24 4752   3.392   1.128  10.289  0.0889 -0.2326  0.0777
   61SAPC   H4R 4753   3.398   1.224  10.346  0.9855  0.4106 -1.0825
   61SAPC   H4S 4754   3.398   1.163  10.184 -1.0994 -0.4605 -0.0805
   61SAPC   C25 4755   3.498   1.030  10.328 -0.4436  0.9645 -0.0814
   61SAPC   H5R 4756   3.526   1.020  10.434  2.7375  1.9126 -0.7653
   61SAPC   C26 4757   3.570   0.950  10.247  0.3825  0.5735  0.1089
   61SAPC   H6R 4758   3.642   0.879  10.290  0.4367 -0.0660 -1.0331
   61SAPC   C27 4759   3.563   0.930  10.094  0.0436  0.1104 -0.1454
   61SAPC   H7R 4760   3.470   0.982  10.063 -0.0223  0.9383  1.3828
   61SAPC   H7S 4761   3.560   0.823  10.064 -2.7493 -0.2187  1.1193
   61SAPC   C28 4762   3.673   1.003  10.020 -0.2959  0.0377 -0.3714
   61SAPC   H8R 4763   3.733   1.077  10.075  0.6016 -0.9749  0.0209
   61SAPC   C29 4764   3.710   0.984   9.896  0.1709 -1.0126  0.9966
   61SAPC   H9R 4765   3.797   1.038   9.856 -1.4694  0.5854 -0.5323
   61SAPC  C210 4766   3.651   0.888   9.802  0.7465  0.4969 -0.2471
   61SAPC  H10R 4767   3.599   0.954   9.730  1.7518  0.9917 -0.5292
   61SAPC  H10S 4768   3.565   0.830   9.844  1.4786 -0.7702 -0.4620
   61SAPC  C211 4769   3.753   0.796   9.738 -0.0856 -0.7786 -0.0277
   61SAPC  H11R 4770   3.797   0.737   9.819 -0.7157  0.9995  1.6523
   61SAPC  C212 4771   3.777   0.766   9.604  0.0467  0.0657  0.5136
   61SAPC  H12R 4772   3.854   0.696   9.569 -0.4564  0.8949 -2.3376
   61SAPC  C213 4773   3.701   0.836   9.489  0.5323 -0.1855 -0.0188
   61SAPC  H13R 4774   3.598   0.853   9.525  0.6244 -0.7931  0.5327
   61SAPC  H13S 4775   3.683   0.758   9.411  0.4349  0.9352 -1.1355
   61SAPC  C214 4776   3.764   0.961   9.436 -0.3928 -0.1915 -0.1400
   61SAPC  H14R 4777   3.819   1.021   9.510  1.4194 -2.9750  0.8767
   61SAPC  C215 4778   3.776   0.997   9.307 -0.4003 -0.2621 -0.4912
   61SAPC  H15R 4779   3.813   1.100   9.292  2.4650 -1.0282  0.9651
   61SAPC  C216 4780   3.720   0.919   9.189  0.2438 -0.7107 -0.2051
   61SAPC  H16R 4781   3.646   0.989   9.145  0.1952 -0.5457  0.1458
   61SAPC  H16S 4782   3.675   0.822   9.220 -1.8166 -0.5546 -2.5167
   61SAPC  C217 4783   3.827   0.891   9.081  0.5409 -0.4016 -0.0877
   61SAPC  H17R 4784   3.867   0.990   9.050  0.7352 -0.3175  0.4261
   61SAPC  H17S 4785   3.771   0.846   8.996  0.0114  0.0818  0.0015
   61SAPC  C218 4786   3.945   0.796   9.109  0.3335  0.1305 -0.7070
   61SAPC  H18R 4787   3.903   0.699   9.141  1.5601 -0.0063  0.5246
   61SAPC  H18S 4788   4.013   0.814   9.194 -2.7168  0.1881  1.8006
   61SAPC  C219 4789   4.006   0.767   8.967  0.3728  0.5062 -0.0199
   61SAPC  H19R 4790   4.049   0.861   8.926 -0.1017  1.0540  0.7025
   61SAPC  H19S 4791   3.929   0.735   8.894 -0.7762  1.6367  0.6671
   61SAPC  C220 4792   4.110   0.655   8.968 -0.4943 -0.1097 -0.1340
   61SAPC  H20R 4793   4.065   0.570   9.022 -0.1609 -0.6350 -0.6788
   61SAPC  H20S 4794   4.206   0.677   9.019 -0.5545 -0.1038 -0.0236
   61SAPC  H20T 4795   4.126   0.624   8.863  0.7899  1.9368 -0.5647
   61SAPC   C33 4796   2.575   1.119  10.079  0.1011  0.2325 -0.2159
   61SAPC   H3X 4797   2.479   1.174  10.094  0.6575  1.1665 -0.0315
   61SAPC   H3Y 4798   2.555   1.026  10.136 -1.0883  0.9964  0.6546
   61SAPC   C34 4799   2.602   1.091   9.931 -0.3100  0.7146  0.0690
   61SAPC   H4X 4800   2.527   1.011   9.913  1.8284 -1.3122 -0.0367
   61SAPC   H4Y 4801   2.707   1.056   9.919 -0.3790  0.4595  0.2236
   61SAPC   C35 4802   2.577   1.214   9.846 -0.2663  0.6212  0.0856
   61SAPC   H5X 4803   2.644   1.302   9.858  2.4785 -1.7830  3.0225
   61SAPC   H5Y 4804   2.475   1.253   9.869 -0.5943 -0.0501 -0.2030
   61SAPC   C36 4805   2.581   1.180   9.693 -0.2782  0.1557  0.0577
   61SAPC   H6X 4806   2.530   1.082   9.681 -1.1036  0.3189  2.1470
   61SAPC   H6Y 4807   2.685   1.155   9.663 -0.5070 -2.5901  1.3960
   61SAPC   C37 4808   2.508   1.275   9.604 -0.5027  0.7082 -0.4128
   61SAPC   H7X 4809   2.558   1.372   9.625  1.5464 -0.5303  0.5341
   61SAPC   H7Y 4810   2.406   1.284   9.649 -0.8916  0.5709 -1.2536
   61SAPC   C38 4811   2.501   1.234   9.459 -0.0200 -0.6016 -0.5118
   61SAPC   H8X 4812   2.446   1.137   9.459  1.3556 -1.4087  0.6095
   61SAPC   H8Y 4813   2.606   1.218   9.427 -0.1831 -0.0891 -1.3285
   61SAPC   C39 4814   2.418   1.332   9.371 -0.0565 -0.6528 -0.2107
   61SAPC   H9X 4815   2.461   1.431   9.394  0.4402 -1.0379  0.5493
   61SAPC   H9Y 4816   2.318   1.330   9.419 -0.2318 -0.7130 -0.5819
   61SAPC  C310 4817   2.418   1.300   9.222 -0.1351 -0.6389  0.1597
   61SAPC  H10X 4818   2.386   1.198   9.195 -0.0477 -1.1850  2.0271
   61SAPC  H10Y 4819   2.521   1.306   9.181  0.1983  0.1924  1.0897
   61SAPC  C311 4820   2.329   1.398   9.144  0.4735  0.3987 -0.2695
   61SAPC  H11X 4821   2.363   1.499   9.178  1.3782 -0.8063  2.5558
   61SAPC  H11Y 4822   2.226   1.396   9.186  0.0217  1.7698 -1.2341
   61SAPC  C312 4823   2.327   1.393   8.995  0.1327 -0.1906 -0.0838
   61SAPC  H12X 4824   2.229   1.436   8.964  0.0569  0.0824  0.5155
   61SAPC  H12Y 4825   2.336   1.284   8.976 -0.3558 -0.2066 -0.2308
   61SAPC  C313 4826   2.448   1.450   8.917 -0.2564  0.1055 -0.0451
   61SAPC  H13X 4827   2.545   1.395   8.925  0.2914  0.6301 -2.7952
   61SAPC  H13Y 4828   2.465   1.556   8.945  0.1028  0.1651 -0.4813
   61SAPC  C314 4829   2.418   1.444   8.769  0.0910 -0.0747  0.8690
   61SAPC  H14X 4830   2.315   1.486   8.768 -0.0029 -0.2871 -0.5535
   61SAPC  H14Y 4831   2.403   1.337   8.742  3.7755 -0.1390 -1.3237
   61SAPC  C315 4832   2.506   1.510   8.661  0.3038 -0.0064  0.4267
   61SAPC  H15X 4833   2.598   1.454   8.636 -0.3277 -0.0025 -2.0171
   61SAPC  H15Y 4834   2.534   1.605   8.712  2.7146 -0.8217  0.6748
   61SAPC  C316 4835   2.433   1.532   8.530 -0.4232 -0.1950 -0.6519
   61SAPC  H16X 4836   2.350   1.603   8.549  0.8125  0.7160  1.5921
   61SAPC  H16Y 4837   2.399   1.430   8.501  1.6688 -1.4030  0.9468
   61SAPC  C317 4838   2.525   1.594   8.425  0.3433  0.0231 -0.3413
   61SAPC  H17X 4839   2.613   1.530   8.407  0.5397  0.0805  0.4223
   61SAPC  H17Y 4840   2.574   1.693   8.436  1.5683 -0.4965 -1.0046
   61SAPC  C318 4841   2.443   1.626   8.296 -0.3204  0.6313 -0.8412
   61SAPC  H18X 4842   2.497   1.602   8.202  0.6937  2.8623 -0.8624
   61SAPC  H18Y 4843   2.431   1.737   8.299  1.8704  0.8637 -0.1425
   61SAPC  H18Z 4844   2.340   1.584   8.293 -0.7630  1.4590  1.4078
   62SAPC     N 4845   2.208   0.828  11.054  0.0239 -0.2678  0.0608
   62SAPC   C12 4846   2.236   0.700  10.972  0.2209  0.5759 -0.1350
   62SAPC  H12A 4847   2.226   0.604  11.021  0.3984  0.6976  0.1447
   62SAPC  H12B 4848   2.338   0.702  10.937  0.3403  1.4633  0.2569
   62SAPC   C13 4849   2.279   0.809  11.191 -0.2348 -0.2898 -0.2745
   62SAPC  H13A 4850   2.263   0.713  11.237 -0.9061 -1.4081 -2.7587
   62SAPC  H13B 4851   2.385   0.799  11.178 -0.3864 -2.0764 -0.2964
   62SAPC  H13C 4852   2.259   0.892  11.257  0.9634 -0.3770  0.1977
   62SAPC   C14 4853   2.266   0.950  10.990 -0.0344 -0.3236 -0.1565
   62SAPC  H14A 4854   2.357   0.924  10.938  0.1108  0.3080 -0.2282
   62SAPC  H14B 4855   2.188   0.995  10.931 -0.3954 -0.5871  0.1187
   62SAPC  H14C 4856   2.301   1.027  11.057 -1.1964 -0.6997  0.9037
   62SAPC   C15 4857   2.061   0.862  11.077 -1.1813  0.0869 -0.2882
   62SAPC  H15A 4858   2.001   0.870  10.988 -2.5917  2.7002  0.8445
   62SAPC  H15B 4859   2.024   0.783  11.141 -1.6055  2.3001  2.3077
   62SAPC  H15C 4860   2.044   0.949  11.140  1.4668 -0.3399  1.0792
   62SAPC   C11 4861   2.175   0.698  10.829  0.2516  0.3574 -0.2500
   62SAPC  H11A 4862   2.230   0.772  10.768  0.1911  2.4361  2.1299
   62SAPC  H11B 4863   2.067   0.719  10.836  0.8123  2.7453  1.9901
   62SAPC     P 4864   2.328   0.507  10.738  0.2945 -0.0664  0.1115
   62SAPC   O13 4865   2.424   0.524  10.851  0.0661  0.6837  0.0472
   62SAPC   O14 4866   2.314   0.375  10.676  1.2051  0.3460  0.5904
   62SAPC   O12 4867   2.188   0.562  10.779 -0.0884  0.0417  0.1519
   62SAPC   O11 4868   2.366   0.620  10.625 -0.5325 -0.0036 -0.6953
   62SAPC    C1 4869   2.330   0.587  10.495 -0.6801  1.1555 -0.2914
   62SAPC    HA 4870   2.237   0.526  10.489 -0.2348  0.5579 -1.1084
   62SAPC    HB 4871   2.300   0.677  10.437 -1.7573  1.0891  0.1425
   62SAPC    C2 4872   2.446   0.510  10.428 -0.2348  0.5697  0.0758
   62SAPC    HS 4873   2.509   0.464  10.507 -1.9513  0.5277  1.4430
   62SAPC   O21 4874   2.514   0.613  10.345 -0.4458 -0.1041 -0.4361
   62SAPC   C21 4875   2.634   0.640  10.392  0.0655 -0.3988  0.2744
   62SAPC   O22 4876   2.684   0.588  10.494 -0.3324  0.0963  0.2037
   62SAPC   C22 4877   2.698   0.750  10.301  0.2034 -0.2004  0.1285
   62SAPC   H2R 4878   2.671   0.720  10.198 -2.1181 -2.4932  1.3621
   62SAPC   H2S 4879   2.643   0.842  10.329  0.0037 -0.6254  1.1482
   62SAPC    C3 4880   2.393   0.401  10.339  0.1798  0.3920  0.4945
   62SAPC    HX 4881   2.340   0.447  10.253  1.0220 -0.9792 -0.7895
   62SAPC    HY 4882   2.312   0.344  10.389 -0.1355  0.9949  0.6751
   62SAPC   O31 4883   2.497   0.304  10.292 -0.4838  0.2729 -0.3586
   62SAPC   C31 4884   2.465   0.237  10.176 -0.1118 -0.4105  0.3464
   62SAPC   O32 4885   2.370   0.268  10.109  0.7102 -0.6025 -0.0437
   62SAPC   C32 4886   2.578   0.140  10.138  0.1424 -0.1994 -0.0183
   62SAPC   H2X 4887   2.558   0.054  10.205  0.6527 -1.0445 -0.9406
   62SAPC   H2Y 4888   2.669   0.198  10.161 -0.5753  0.3028  1.6134
   62SAPC   C23 4889   2.851   0.769  10.310 -0.1639 -0.3404 -0.2844
   62SAPC   H3R 4890   2.909   0.687  10.263 -1.5127 -1.8046  0.5408
   62SAPC   H3S 4891   2.876   0.786  10.417  1.8276  0.2593 -0.8317
   62SAPC   C24 4892   2.909   0.892  10.238 -0.4538 -0.0297 -0.1060
   62SAPC   H4R 4893   3.019   0.886  10.246 -0.6011 -2.7374  0.6513
   62SAPC   H4S 4894   2.870   0.986  10.281  3.6678 -0.0453  3.9965
   62SAPC   C25 4895   2.878   0.895  10.091 -0.3687 -0.0647  0.0539
   62SAPC   H5R 4896   2.773   0.880  10.060 -0.1443 -1.4091 -0.0780
   62SAPC   C26 4897   2.958   0.885   9.981  0.2344  0.5605 -0.1654
   62SAPC   H6R 4898   2.912   0.889   9.881 -0.3399 -1.9142 -0.0116
   62SAPC   C27 4899   3.115   0.887   9.987 -0.1638  0.2816 -0.5690
   62SAPC   H7R 4900   3.153   0.855  10.087  1.2160  0.7608 -0.9288
   62SAPC   H7S 4901   3.128   0.997   9.980  2.0436  0.1485  1.0762
   62SAPC   C28 4902   3.178   0.804   9.880  0.6220  0.2927  0.2892
   62SAPC   H8R 4903   3.187   0.696   9.897 -0.8515  0.1461  0.2237
   62SAPC   C29 4904   3.216   0.844   9.753  0.1927 -0.2691  0.1941
   62SAPC   H9R 4905   3.264   0.767   9.690  0.0710 -1.5139  1.5950
   62SAPC  C210 4906   3.207   0.988   9.701 -0.2298 -0.1292  0.2005
   62SAPC  H10R 4907   3.148   1.063   9.758  0.3862 -0.2099  0.9492
   62SAPC  H10S 4908   3.136   0.989   9.615  1.1346  0.3648 -0.9505
   62SAPC  C211 4909   3.335   1.047   9.638 -0.2354 -0.1458 -0.4456
   62SAPC  H11R 4910   3.407   1.094   9.706 -0.0620 -1.4509  0.2807
   62SAPC  C212 4911   3.385   1.027   9.507 -0.0770  0.5690 -0.8172
   62SAPC  H12R 4912   3.491   1.053   9.492  1.0560 -2.6445  1.1854
   62SAPC  C213 4913   3.312   0.953   9.405 -0.4525  0.2917  0.8969
   62SAPC  H13R 4914   3.223   0.896   9.440  0.3280 -1.1470  0.5791
   62SAPC  H13S 4915   3.378   0.883   9.350 -2.7447 -0.2489 -1.2690
   62SAPC  C214 4916   3.276   1.049   9.296 -0.5974 -0.6394 -0.1140
   62SAPC  H14R 4917   3.277   1.157   9.316  0.8857 -0.7092  0.2550
   62SAPC  C215 4918   3.249   1.019   9.173  0.0537 -0.6543  1.5380
   62SAPC  H15R 4919   3.237   1.107   9.109  1.4136 -1.3040  0.3491
   62SAPC  C216 4920   3.233   0.883   9.104  0.4120  0.1813  0.7758
   62SAPC  H16R 4921   3.132   0.873   9.057  0.6088  0.0631  0.3735
   62SAPC  H16S 4922   3.235   0.800   9.178  2.6544  0.6306  1.2491
   62SAPC  C217 4923   3.338   0.850   9.001 -0.5083 -0.1743  0.7580
   62SAPC  H17R 4924   3.442   0.873   9.033 -0.6712  0.6656  0.6835
   62SAPC  H17S 4925   3.318   0.919   8.917  0.3992 -2.0335 -1.0304
   62SAPC  C218 4926   3.333   0.698   8.956 -0.4024 -0.0526 -0.2797
   62SAPC  H18R 4927   3.373   0.635   9.039  1.6973 -0.7942 -1.8141
   62SAPC  H18S 4928   3.403   0.694   8.870 -0.6330  1.7729 -0.5729
   62SAPC  C219 4929   3.190   0.660   8.901 -0.1611  0.1988  0.1676
   62SAPC  H19R 4930   3.159   0.738   8.828  0.2244 -0.0697 -0.2821
   62SAPC  H19S 4931   3.117   0.656   8.984  0.9143 -1.3521  1.0601
   62SAPC  C220 4932   3.193   0.517   8.858  0.2269 -0.8850  0.5842
   62SAPC  H20R 4933   3.267   0.521   8.775  0.0240  0.8815  0.4666
   62SAPC  H20S 4934   3.098   0.470   8.825 -0.3272  1.4272 -1.2644
   62SAPC  H20T 4935   3.223   0.459   8.948  1.0285 -0.4117  0.6301
   62SAPC   C33 4936   2.580   0.088   9.995 -0.5669  0.3951 -0.1629
   62SAPC   H3X 4937   2.488   0.031   9.972  0.1214 -1.0001  0.5124
   62SAPC   H3Y 4938   2.662   0.013   9.990 -2.8871 -2.0972 -1.5668
   62SAPC   C34 4939   2.604   0.193   9.895  0.4555 -1.0238  0.1781
   62SAPC   H4X 4940   2.695   0.250   9.924 -0.1266  1.5344 -2.7940
   62SAPC   H4Y 4941   2.516   0.259   9.902  0.1061 -1.3286 -1.2858
   62SAPC   C35 4942   2.615   0.147   9.751  0.2175 -0.1314  0.1441
   62SAPC   H5X 4943   2.539   0.066   9.742  1.3810 -1.4244  1.6458
   62SAPC   H5Y 4944   2.710   0.092   9.735  1.4608  1.9262  0.2575
   62SAPC   C36 4945   2.576   0.259   9.647 -0.4317  0.6243  0.3633
   62SAPC   H6X 4946   2.658   0.335   9.651 -0.7553  1.1942 -2.5348
   62SAPC   H6Y 4947   2.477   0.303   9.669 -0.7190 -1.0357  2.5857
   62SAPC   C37 4948   2.566   0.198   9.502  0.0911 -0.2911  0.3578
   62SAPC   H7X 4949   2.472   0.140   9.515  0.5632 -1.1945 -0.1990
   62SAPC   H7Y 4950   2.645   0.123   9.477 -2.1675 -2.3209 -0.9209
   62SAPC   C38 4951   2.564   0.312   9.398 -0.2310  0.1357 -0.0017
   62SAPC   H8X 4952   2.654   0.377   9.403  0.0557 -0.1141 -1.5346
   62SAPC   H8Y 4953   2.482   0.384   9.417  2.9418  4.4125 -1.7410
   62SAPC   C39 4954   2.547   0.257   9.255 -0.0546  0.5164  0.2015
   62SAPC   H9X 4955   2.482   0.167   9.253  2.3180 -1.2023 -1.3245
   62SAPC   H9Y 4956   2.646   0.219   9.222 -1.0726 -0.8594 -1.3048
   62SAPC  C310 4957   2.494   0.367   9.167 -0.3513  0.0341 -0.5185
   62SAPC  H10X 4958   2.574   0.444   9.170  0.6441 -0.7989 -3.3519
   62SAPC  H10Y 4959   2.393   0.399   9.200  0.2309  0.4688  0.8685
   62SAPC  C311 4960   2.492   0.319   9.020 -0.2540  0.0279  0.2171
   62SAPC  H11X 4961   2.405   0.252   9.001  0.9297 -0.8823 -2.1721
   62SAPC  H11Y 4962   2.583   0.257   9.006 -0.8291 -1.5319  3.0434
   62SAPC  C312 4963   2.496   0.431   8.912  0.2376  0.1739  0.4353
   62SAPC  H12X 4964   2.581   0.416   8.841 -1.2905 -2.2860 -0.9142
   62SAPC  H12Y 4965   2.528   0.524   8.964 -2.9770  1.4014  0.3109
   62SAPC  C313 4966   2.349   0.470   8.858 -0.2821  0.0998  0.0816
   62SAPC  H13X 4967   2.302   0.513   8.949 -0.6560  3.1973 -1.5162
   62SAPC  H13Y 4968   2.300   0.377   8.823  0.1220  1.6643 -5.1336
   62SAPC  C314 4969   2.351   0.558   8.734  0.0934  0.8850 -0.0109
   62SAPC  H14X 4970   2.401   0.514   8.645 -0.4590  5.1055 -2.5523
   62SAPC  H14Y 4971   2.412   0.646   8.763  0.4315  0.5442  0.3091
   62SAPC  C315 4972   2.210   0.602   8.692  0.7375 -0.0665 -0.1809
   62SAPC  H15X 4973   2.214   0.672   8.606 -1.5001 -1.5723 -1.5582
   62SAPC  H15Y 4974   2.155   0.641   8.781 -2.9824 -1.5001 -1.7484
   62SAPC  C316 4975   2.109   0.503   8.634  0.0070  0.2705  0.1693
   62SAPC  H16X 4976   2.015   0.550   8.596  0.0628 -0.0119 -0.3152
   62SAPC  H16Y 4977   2.078   0.448   8.726  1.0518 -0.7962 -0.1193
   62SAPC  C317 4978   2.176   0.419   8.523 -0.8501 -0.2973 -0.4406
   62SAPC  H17X 4979   2.242   0.344   8.573  0.1604  2.1615  2.0447
   62SAPC  H17Y 4980   2.237   0.496   8.471  0.2991  0.1006  1.4134
   62SAPC  C318 4981   2.078   0.352   8.432  0.0936  0.1348  0.4058
   62SAPC  H18X 4982   2.010   0.286   8.490  2.0151 -2.9435 -0.7277
   62SAPC  H18Y 4983   2.124   0.290   8.352  2.4714  0.1658  1.7120
   62SAPC  H18Z 4984   2.005   0.422   8.386  0.2544  1.1163  1.6009
   63SAPC     N 4985   6.328   5.787   6.646  0.5017  0.7093  0.7428
   63SAPC   C12 4986   6.470   5.816   6.705  0.8050 -0.3410 -0.4766
   63SAPC  H12A 4987   6.546   5.751   6.663  0.2382  0.0452 -2.1326
   63SAPC  H12B 4988   6.469   5.797   6.812  2.3294  2.5955  0.1378
   63SAPC   C13 4989   6.235   5.901   6.681  0.2750 -0.0516 -0.4398
   63SAPC  H13A 4990   6.278   5.986   6.629  0.8375  0.4716  0.8724
   63SAPC  H13B 4991   6.133   5.885   6.650  0.1955  1.2323 -0.8640
   63SAPC  H13C 4992   6.238   5.927   6.786 -0.5146  3.9375 -1.3265
   63SAPC   C14 4993   6.346   5.766   6.503  0.1625 -0.5940  0.0269
   63SAPC  H14A 4994   6.416   5.691   6.469 -3.3802 -2.5226 -3.4974
   63SAPC  H14B 4995   6.254   5.734   6.455  0.2919 -1.0894  0.1073
   63SAPC  H14C 4996   6.356   5.863   6.457  1.2660 -0.3933  0.6792
   63SAPC   C15 4997   6.293   5.654   6.705  0.5928  0.6131 -0.0505
   63SAPC  H15A 4998   6.367   5.576   6.697 -0.6950 -0.3812 -2.6132
   63SAPC  H15B 4999   6.265   5.660   6.809  0.3666  2.1475 -0.1800
   63SAPC  H15C 5000   6.207   5.612   6.655 -0.1965  1.0578  0.9102
   63SAPC   C11 5001   6.531   5.959   6.699 -0.0820  0.5113 -0.2454
   63SAPC  H11A 5002   6.630   5.953   6.749 -0.9218  0.6745  1.4556
   63SAPC  H11B 5003   6.472   6.031   6.759  0.1873 -0.6017  1.3788
   63SAPC     P 5004   6.472   6.116   6.495  0.4235 -0.1609 -0.5014
   63SAPC   O13 5005   6.405   6.065   6.372 -0.3656  0.1099 -0.4026
   63SAPC   O14 5006   6.382   6.177   6.598  0.0933  0.0566  0.0484
   63SAPC   O12 5007   6.549   5.995   6.568 -0.5217 -0.2819  0.7095
   63SAPC   O11 5008   6.584   6.216   6.450  0.4429 -0.0834 -0.3275
   63SAPC    C1 5009   6.696   6.253   6.525  0.3974  0.4956  0.2094
   63SAPC    HA 5010   6.743   6.164   6.572 -1.0372 -0.0607  0.6432
   63SAPC    HB 5011   6.770   6.291   6.452  1.0062 -1.6478 -0.2935
   63SAPC    C2 5012   6.664   6.361   6.629  0.4728  0.7452  0.6220
   63SAPC    HS 5013   6.767   6.401   6.643  0.1781  1.6802  0.1608
   63SAPC   O21 5014   6.592   6.321   6.744 -0.0801 -0.2882 -0.4141
   63SAPC   C21 5015   6.661   6.244   6.828  0.0879 -0.3158  0.1707
   63SAPC   O22 5016   6.775   6.204   6.808  0.4701 -0.0711  0.0217
   63SAPC   C22 5017   6.587   6.228   6.969  0.1513 -0.0739 -0.5897
   63SAPC   H2R 5018   6.511   6.152   6.943  0.3321 -0.5254  0.1925
   63SAPC   H2S 5019   6.657   6.191   7.047 -1.0220 -2.3868 -0.5912
   63SAPC    C3 5020   6.575   6.473   6.562  0.0105 -0.4568 -0.0978
   63SAPC    HX 5021   6.474   6.428   6.558 -1.1410  2.1039 -0.8424
   63SAPC    HY 5022   6.614   6.491   6.459  1.1020 -0.2172  0.3493
   63SAPC   O31 5023   6.572   6.591   6.643 -0.1109  0.3502 -0.5861
   63SAPC   C31 5024   6.679   6.666   6.649 -0.0532 -0.5250  0.5755
   63SAPC   O32 5025   6.782   6.651   6.586  0.9784  0.1724 -0.3168
   63SAPC   C32 5026   6.641   6.792   6.727 -0.0823 -1.0227 -0.4106
   63SAPC   H2X 5027   6.564   6.847   6.669  0.0040  2.9879  3.0377
   63SAPC   H2Y 5028   6.735   6.851   6.729 -0.5270 -0.2682 -1.2666
   63SAPC   C23 5029   6.527   6.356   7.032 -0.5458 -0.5379  0.1333
   63SAPC   H3R 5030   6.418   6.368   7.013 -0.2608  0.6853 -0.8043
   63SAPC   H3S 5031   6.574   6.447   6.989 -2.8553  0.1331 -1.0369
   63SAPC   C24 5032   6.555   6.355   7.180  0.5251 -0.0877  0.1104
   63SAPC   H4R 5033   6.528   6.454   7.222 -1.6606 -1.9206  3.1740
   63SAPC   H4S 5034   6.666   6.345   7.186  0.8245  1.7948 -1.4513
   63SAPC   C25 5035   6.486   6.243   7.260 -0.2385 -0.7455  0.0957
   63SAPC   H5R 5036   6.426   6.169   7.205 -0.6746 -0.5930  0.3591
   63SAPC   C26 5037   6.511   6.217   7.390  1.0568 -0.3692 -0.5575
   63SAPC   H6R 5038   6.460   6.135   7.442  3.1935 -1.9283 -0.8393
   63SAPC   C27 5039   6.598   6.292   7.485 -0.9742 -0.0164  0.6238
   63SAPC   H7R 5040   6.635   6.382   7.433  0.5646 -1.7520 -1.3970
   63SAPC   H7S 5041   6.682   6.225   7.513 -1.7135 -1.8392 -1.3175
   63SAPC   C28 5042   6.529   6.343   7.614 -0.2146 -0.6273  0.1150
   63SAPC   H8R 5043   6.424   6.370   7.596 -0.2290  1.1992  2.7338
   63SAPC   C29 5044   6.578   6.343   7.742  0.2487  0.3897  0.6485
   63SAPC   H9R 5045   6.518   6.392   7.821  0.3171  1.0115  0.3223
   63SAPC  C210 5046   6.717   6.296   7.780 -0.1143 -0.2247 -0.0136
   63SAPC  H10R 5047   6.740   6.214   7.709 -0.9093 -0.2651 -0.2270
   63SAPC  H10S 5048   6.713   6.260   7.885  1.2664 -0.4193 -0.0146
   63SAPC  C211 5049   6.818   6.407   7.774 -0.0227 -0.5508 -0.2032
   63SAPC  H11R 5050   6.804   6.489   7.847  1.2645 -1.1001  0.6807
   63SAPC  C212 5051   6.920   6.427   7.692 -0.0474  0.8608  0.0289
   63SAPC  H12R 5052   6.981   6.517   7.704  1.2553 -0.0772  0.6030
   63SAPC  C213 5053   6.962   6.328   7.586 -0.4862 -0.1399 -0.2829
   63SAPC  H13R 5054   6.871   6.292   7.532 -0.8968  0.9571 -0.3324
   63SAPC  H13S 5055   7.020   6.246   7.634  2.5665  2.2731  0.2775
   63SAPC  C214 5056   7.056   6.396   7.490  0.3498 -0.3988  0.5764
   63SAPC  H14R 5057   7.140   6.456   7.527  1.5185 -2.3304  1.0967
   63SAPC  C215 5058   7.051   6.394   7.354 -0.2155 -0.5544  0.7184
   63SAPC  H15R 5059   7.120   6.458   7.299 -1.3994  1.4240  1.4682
   63SAPC  C216 5060   6.953   6.332   7.259  0.1199 -0.5356  0.4220
   63SAPC  H16R 5061   6.870   6.401   7.232 -0.1759 -0.8705  0.4700
   63SAPC  H16S 5062   6.886   6.259   7.309 -1.7499  0.5087 -0.4833
   63SAPC  C217 5063   6.999   6.272   7.123 -0.0872 -0.2291 -0.1435
   63SAPC  H17R 5064   6.927   6.194   7.093  1.6452 -1.8226 -0.2300
   63SAPC  H17S 5065   7.104   6.237   7.130 -0.1969 -0.5034  0.1468
   63SAPC  C218 5066   6.994   6.379   7.018 -0.6508 -0.3635 -0.4213
   63SAPC  H18R 5067   7.045   6.463   7.070  0.4896 -2.1726  1.4746
   63SAPC  H18S 5068   6.887   6.396   6.994 -1.5601 -3.1615  1.4035
   63SAPC  C219 5069   7.067   6.340   6.886 -0.2331 -0.0426  0.1042
   63SAPC  H19R 5070   7.029   6.257   6.823  0.7180  1.0102 -1.9108
   63SAPC  H19S 5071   7.172   6.314   6.914 -0.5901 -0.2891  1.2666
   63SAPC  C220 5072   7.081   6.464   6.792 -0.0818  0.5043  0.3625
   63SAPC  H20R 5073   7.109   6.419   6.695  0.3064  0.9173  0.2852
   63SAPC  H20S 5074   7.152   6.537   6.837  1.1763 -1.6327  1.9342
   63SAPC  H20T 5075   6.980   6.508   6.777 -0.3635  0.3435  1.7231
   63SAPC   C33 5076   6.594   6.759   6.867  0.4174 -0.3554 -0.3101
   63SAPC   H3X 5077   6.540   6.663   6.880  0.7913 -0.7450 -1.6233
   63SAPC   H3Y 5078   6.527   6.841   6.900  0.1646 -0.8389  0.3893
   63SAPC   C34 5079   6.711   6.761   6.964 -0.1512 -0.1805 -0.5847
   63SAPC   H4X 5080   6.751   6.865   6.956  0.8298 -0.4197  1.0001
   63SAPC   H4Y 5081   6.787   6.690   6.926  1.7100  1.4064  0.0864
   63SAPC   C35 5082   6.689   6.732   7.108 -0.7527 -0.3590  0.2184
   63SAPC   H5X 5083   6.643   6.631   7.116  0.1341 -0.6642  1.5919
   63SAPC   H5Y 5084   6.620   6.813   7.142  1.2573  1.3993  0.1920
   63SAPC   C36 5085   6.813   6.744   7.200  0.1859 -0.1970 -0.5338
   63SAPC   H6X 5086   6.855   6.846   7.193 -0.0059 -0.0797  0.0042
   63SAPC   H6Y 5087   6.892   6.670   7.171 -0.2594 -1.3014  1.0065
   63SAPC   C37 5088   6.778   6.730   7.353 -0.0530  0.0405  0.1290
   63SAPC   H7X 5089   6.864   6.715   7.422  0.5713 -1.1996 -0.8920
   63SAPC   H7Y 5090   6.715   6.638   7.358 -2.5881  1.7642  0.7392
   63SAPC   C38 5091   6.688   6.846   7.410 -0.1202 -0.3415 -0.3210
   63SAPC   H8X 5092   6.582   6.816   7.399 -0.1552  0.3096 -1.9695
   63SAPC   H8Y 5093   6.705   6.939   7.351 -1.1251 -0.4168 -0.7464
   63SAPC   C39 5094   6.725   6.883   7.552  0.1511  0.2443 -0.3816
   63SAPC   H9X 5095   6.662   6.969   7.585  0.5803  0.7643 -0.9066
   63SAPC   H9Y 5096   6.833   6.905   7.544 -0.0125  0.9095 -0.7710
   63SAPC  C310 5097   6.720   6.764   7.646  0.3659  0.1162 -0.5678
   63SAPC  H10X 5098   6.777   6.676   7.609  1.2803 -0.0902  1.2631
   63SAPC  H10Y 5099   6.611   6.742   7.643 -0.3341  3.3450 -1.0110
   63SAPC  C311 5100   6.769   6.800   7.788  0.3623  0.9727  0.7039
   63SAPC  H11X 5101   6.878   6.820   7.780  0.3079 -0.2433 -5.0555
   63SAPC  H11Y 5102   6.760   6.712   7.855  2.4094 -0.6007 -1.0290
   63SAPC  C312 5103   6.697   6.926   7.844 -0.0486  0.4816 -0.3792
   63SAPC  H12X 5104   6.589   6.918   7.820 -1.0526  0.3711  3.8023
   63SAPC  H12Y 5105   6.731   7.015   7.787  3.6672 -0.8579 -0.3602
   63SAPC  C313 5106   6.717   6.941   7.997  0.1104 -0.1969  0.5127
   63SAPC  H13X 5107   6.825   6.945   8.023  0.6238  0.6612 -1.6911
   63SAPC  H13Y 5108   6.658   6.868   8.057 -3.3909 -1.8438 -4.5669
   63SAPC  C314 5109   6.661   7.078   8.043 -0.0622  0.3576 -0.8270
   63SAPC  H14X 5110   6.559   7.082   7.999 -0.0268 -0.0700 -0.9511
   63SAPC  H14Y 5111   6.716   7.162   7.994  0.8765  0.0210 -0.3751
   63SAPC  C315 5112   6.651   7.100   8.198  0.2401 -0.8834 -0.2961
   63SAPC  H15X 5113   6.753   7.099   8.241  0.1185  0.2085  0.0101
   63SAPC  H15Y 5114   6.591   7.015   8.237 -0.5617 -0.1976 -0.0256
   63SAPC  C316 5115   6.573   7.227   8.246  0.2977  0.1186  0.1715
   63SAPC  H16X 5116   6.472   7.233   8.200  0.2186 -0.3596  0.2782
   63SAPC  H16Y 5117   6.624   7.323   8.224 -1.0195  0.7013 -0.4404
   63SAPC  C317 5118   6.555   7.224   8.397  0.6889 -0.6735  0.4148
   63SAPC  H17X 5119   6.501   7.133   8.429 -0.5819 -0.7841 -1.9749
   63SAPC  H17Y 5120   6.501   7.316   8.426  0.5706  0.0684 -2.0493
   63SAPC  C318 5121   6.689   7.236   8.469 -0.4895 -0.3908  0.5610
   63SAPC  H18X 5122   6.678   7.260   8.577  1.0820 -1.8030  1.0488
   63SAPC  H18Y 5123   6.732   7.330   8.427 -1.3643 -0.3966 -0.3942
   63SAPC  H18Z 5124   6.760   7.153   8.454 -3.7183 -3.2980  0.6869
   64SAPC     N 5125   1.979   6.313   5.812  0.0209 -0.0374  0.0222
   64SAPC   C12 5126   2.084   6.292   5.923  0.2491  0.2022  0.4284
   64SAPC  H12A 5127   2.177   6.325   5.877 -0.8032  0.5839 -1.5109
   64SAPC  H12B 5128   2.099   6.188   5.945  3.1143  0.3634 -0.4829
   64SAPC   C13 5129   2.013   6.431   5.727 -0.4798 -0.1574 -0.1063
   64SAPC  H13A 5130   1.983   6.524   5.775  0.0332 -0.0890  0.0790
   64SAPC  H13B 5131   2.118   6.439   5.707 -0.6911 -0.5854 -1.4570
   64SAPC  H13C 5132   1.967   6.419   5.630 -0.2578  1.3368 -0.4183
   64SAPC   C14 5133   1.981   6.198   5.718 -0.3758  0.4710 -0.3413
   64SAPC  H14A 5134   1.917   6.212   5.632  0.7491  3.2954 -0.7803
   64SAPC  H14B 5135   2.079   6.183   5.675 -1.3948 -2.5601 -1.7029
   64SAPC  H14C 5136   1.955   6.101   5.755 -0.1821  0.3229 -0.5907
   64SAPC   C15 5137   1.847   6.320   5.878 -0.3885 -0.4559  0.0897
   64SAPC  H15A 5138   1.770   6.334   5.803 -0.1614 -0.0858 -0.0767
   64SAPC  H15B 5139   1.815   6.231   5.929  0.8467 -1.4670 -0.8553
   64SAPC  H15C 5140   1.842   6.402   5.948  0.8787 -2.1423  2.2189
   64SAPC   C11 5141   2.061   6.360   6.057  0.1140 -1.4122 -0.3160
   64SAPC  H11A 5142   2.145   6.330   6.123  0.5178 -2.3679 -1.2416
   64SAPC  H11B 5143   1.967   6.324   6.104  1.2877 -0.9553  2.4284
   64SAPC     P 5144   2.171   6.598   6.112 -0.0249  0.0709  0.0105
   64SAPC   O13 5145   2.314   6.554   6.082  0.1656 -0.0334  0.3592
   64SAPC   O14 5146   2.135   6.737   6.092  0.0925 -0.4548 -0.2011
   64SAPC   O12 5147   2.067   6.503   6.040 -0.1289 -0.4341 -0.1367
   64SAPC   O11 5148   2.158   6.563   6.268  0.5737  0.0051 -0.0353
   64SAPC    C1 5149   2.022   6.557   6.322  0.2754 -0.2627  0.4753
   64SAPC    HA 5150   1.944   6.609   6.263 -0.0105  0.2959  1.3351
   64SAPC    HB 5151   1.985   6.452   6.327 -1.1351  0.3139  3.1891
   64SAPC    C2 5152   2.015   6.603   6.467  0.4963 -0.5594 -0.6545
   64SAPC    HS 5153   2.051   6.708   6.475  1.8071 -0.8441 -2.3501
   64SAPC   O21 5154   2.081   6.514   6.553  0.8981  0.1207 -0.5530
   64SAPC   C21 5155   2.179   6.568   6.621 -0.4259  0.6917  0.0343
   64SAPC   O22 5156   2.232   6.674   6.602 -0.3760  0.3073 -0.1683
   64SAPC   C22 5157   2.231   6.464   6.724 -0.3053  0.6679 -0.8482
   64SAPC   H2R 5158   2.264   6.374   6.668  0.3479 -0.5993  1.5329
   64SAPC   H2S 5159   2.323   6.498   6.775 -2.2360  0.7121  2.8239
   64SAPC    C3 5160   1.871   6.613   6.518 -0.6520  0.1518  0.3622
   64SAPC    HX 5161   1.829   6.512   6.532 -0.5068  0.1233  0.5985
   64SAPC    HY 5162   1.814   6.667   6.439 -0.8671 -0.2505  0.2457
   64SAPC   O31 5163   1.879   6.683   6.643  0.3403 -0.2709  0.4665
   64SAPC   C31 5164   1.774   6.756   6.667 -0.1566 -0.2871 -0.0469
   64SAPC   O32 5165   1.667   6.756   6.600 -0.2985  0.3353 -0.4207
   64SAPC   C32 5166   1.803   6.820   6.806  0.3082  0.3056 -0.1906
   64SAPC   H2X 5167   1.890   6.890   6.804  1.3840 -1.0305 -0.7596
   64SAPC   H2Y 5168   1.829   6.741   6.880 -0.5808  2.0956  2.1113
   64SAPC   C23 5169   2.116   6.417   6.823 -0.4931 -0.1697 -0.0474
   64SAPC   H3R 5170   2.177   6.355   6.891 -1.0690  0.0939  0.7121
   64SAPC   H3S 5171   2.032   6.356   6.783 -0.2045 -0.4074 -0.2956
   64SAPC   C24 5172   2.061   6.536   6.907 -0.3897 -0.2784 -0.1101
   64SAPC   H4R 5173   2.007   6.480   6.986  0.8146  0.2189  1.0908
   64SAPC   H4S 5174   1.992   6.599   6.846  0.1804  0.3664 -0.1018
   64SAPC   C25 5175   2.164   6.629   6.965 -0.0968  0.2189 -0.0094
   64SAPC   H5R 5176   2.221   6.694   6.897 -1.6782  0.7153 -0.8644
   64SAPC   C26 5177   2.194   6.645   7.096  0.2682  0.1061  0.0594
   64SAPC   H6R 5178   2.273   6.717   7.124  0.0986 -0.2085  1.3688
   64SAPC   C27 5179   2.133   6.564   7.209  0.0760  0.5901 -1.1490
   64SAPC   H7R 5180   2.053   6.496   7.173 -0.6412  0.1897  1.1259
   64SAPC   H7S 5181   2.068   6.633   7.267 -1.8684 -2.6144  0.5981
   64SAPC   C28 5182   2.230   6.492   7.305 -0.0768 -0.3637  0.8109
   64SAPC   H8R 5183   2.326   6.459   7.263  0.4298 -0.2506  1.8742
   64SAPC   C29 5184   2.224   6.472   7.436  0.3407  0.6955  0.4143
   64SAPC   H9R 5185   2.297   6.404   7.482  1.0273  0.7816 -0.5345
   64SAPC  C210 5186   2.115   6.502   7.531 -0.2417  0.7173 -0.3840
   64SAPC  H10R 5187   2.081   6.409   7.581 -0.6308  0.1647 -1.6545
   64SAPC  H10S 5188   2.030   6.537   7.468 -0.5157 -1.6950 -1.3966
   64SAPC  C211 5189   2.159   6.606   7.635  0.3995  1.4741 -0.5015
   64SAPC  H11R 5190   2.172   6.707   7.592  2.4514  1.6969  0.5813
   64SAPC  C212 5191   2.166   6.584   7.768  0.8057 -0.0180 -0.3034
   64SAPC  H12R 5192   2.194   6.677   7.820  1.9810 -0.2880 -0.4557
   64SAPC  C213 5193   2.153   6.462   7.850  0.0143  0.4363  0.0311
   64SAPC  H13R 5194   2.233   6.464   7.927 -0.6379 -1.5164  0.7945
   64SAPC  H13S 5195   2.169   6.372   7.786  0.3440  1.1949 -0.9520
   64SAPC  C214 5196   2.013   6.439   7.908 -0.0377  0.3994  0.5615
   64SAPC  H14R 5197   1.934   6.461   7.834  0.3214  1.4766  0.4825
   64SAPC  C215 5198   1.977   6.385   8.022 -0.3876 -0.1318  0.5388
   64SAPC  H15R 5199   1.875   6.364   8.058 -0.2311  1.6807  2.1615
   64SAPC  C216 5200   2.084   6.348   8.131 -0.0588  0.0765 -0.0389
   64SAPC  H16R 5201   2.124   6.444   8.170 -2.2220  0.3177  1.6673
   64SAPC  H16S 5202   2.166   6.292   8.081 -0.0801 -0.7951  0.8794
   64SAPC  C217 5203   2.057   6.272   8.261 -0.3338  0.3552  0.1633
   64SAPC  H17R 5204   1.987   6.332   8.323 -1.8869  0.5427 -1.7024
   64SAPC  H17S 5205   2.153   6.264   8.316 -0.4252 -1.8541  0.0286
   64SAPC  C218 5206   1.991   6.138   8.234  0.4775 -0.0518 -0.2277
   64SAPC  H18R 5207   2.051   6.070   8.170  0.8742 -1.8049  1.9461
   64SAPC  H18S 5208   1.899   6.160   8.176  0.6998  2.2332  0.2455
   64SAPC  C219 5209   1.954   6.074   8.368  0.4630  0.4741 -1.0027
   64SAPC  H19R 5210   1.858   6.020   8.357 -0.0192  1.1179  0.0021
   64SAPC  H19S 5211   1.937   6.150   8.447 -1.5722 -1.2924  0.2737
   64SAPC  C220 5212   2.066   5.978   8.420 -0.2312  0.3429  0.2172
   64SAPC  H20R 5213   2.055   5.882   8.367 -1.4212  0.7184 -0.2260
   64SAPC  H20S 5214   2.060   5.956   8.529  1.8248  1.6587  0.6331
   64SAPC  H20T 5215   2.168   6.001   8.384 -0.8664  0.3147 -1.6258
   64SAPC   C33 5216   1.677   6.891   6.854 -0.3269 -0.0008  0.0753
   64SAPC   H3X 5217   1.590   6.822   6.861  1.5001 -2.4198 -0.6190
   64SAPC   H3Y 5218   1.642   6.958   6.772  1.8327  2.9578  1.4914
   64SAPC   C34 5219   1.709   6.980   6.977  0.5217  0.1458 -0.8068
   64SAPC   H4X 5220   1.617   7.041   6.987 -0.5842 -1.4025 -1.4679
   64SAPC   H4Y 5221   1.801   7.041   6.964  0.0573  1.0849  0.2169
   64SAPC   C35 5222   1.728   6.900   7.103 -0.2696  0.0998 -0.0669
   64SAPC   H5X 5223   1.805   6.821   7.085 -0.8096 -0.2019 -1.1346
   64SAPC   H5Y 5224   1.627   6.855   7.106 -0.4851  0.6682  1.2124
   64SAPC   C36 5225   1.749   6.982   7.231 -0.2146 -0.1876 -0.1580
   64SAPC   H6X 5226   1.669   7.057   7.248 -1.1134 -1.4863  1.6015
   64SAPC   H6Y 5227   1.839   7.046   7.219  0.7156 -1.4692 -0.2308
   64SAPC   C37 5228   1.778   6.898   7.359 -0.7214  0.1886 -0.4456
   64SAPC   H7X 5229   1.850   6.817   7.337 -1.6262 -1.0274  1.0055
   64SAPC   H7Y 5230   1.681   6.857   7.394 -0.6778  1.7555  1.5595
   64SAPC   C38 5231   1.839   6.982   7.469 -0.4813 -0.4613 -0.3513
   64SAPC   H8X 5232   1.765   7.059   7.500  1.7866  1.0555  1.3579
   64SAPC   H8Y 5233   1.935   7.025   7.434 -1.9146  1.4080 -2.1546
   64SAPC   C39 5234   1.858   6.887   7.594  0.7115 -0.2189 -0.5525
   64SAPC   H9X 5235   1.928   6.802   7.575  0.5403  0.0276 -2.3424
   64SAPC   H9Y 5236   1.757   6.848   7.618  0.6323  0.8484  0.9621
   64SAPC  C310 5237   1.916   6.970   7.706 -0.3763 -0.3805  0.8026
   64SAPC  H10X 5238   1.843   7.053   7.719 -3.4663 -3.2344  2.4901
   64SAPC  H10Y 5239   2.014   7.011   7.675 -0.9571  0.0517 -0.4967
   64SAPC  C311 5240   1.935   6.891   7.840 -0.7923  0.0850  0.2817
   64SAPC  H11X 5241   2.018   6.821   7.817 -1.2853 -0.1111 -0.9761
   64SAPC  H11Y 5242   1.860   6.812   7.864 -0.0754 -0.4737  0.7025
   64SAPC  C312 5243   1.973   6.974   7.958 -0.0282 -0.1826  0.8765
   64SAPC  H12X 5244   1.891   7.043   7.986  2.3002  1.3395  4.3416
   64SAPC  H12Y 5245   2.060   7.039   7.933 -0.2248 -1.0428 -2.3236
   64SAPC  C313 5246   2.004   6.891   8.082 -0.5726 -0.4872 -0.1471
   64SAPC  H13X 5247   2.028   6.964   8.163  2.0330 -1.2144 -0.2089
   64SAPC  H13Y 5248   2.095   6.829   8.076  0.4999  0.8128  1.8248
   64SAPC  C314 5249   1.893   6.802   8.134  0.2603 -0.6119 -0.4829
   64SAPC  H14X 5250   1.881   6.714   8.067  0.0292 -0.3643 -0.7684
   64SAPC  H14Y 5251   1.796   6.857   8.128  0.4242 -0.3626 -0.8582
   64SAPC  C315 5252   1.907   6.765   8.283  0.3758 -0.1383  0.0800
   64SAPC  H15X 5253   1.927   6.854   8.347  1.4122  0.6977 -1.3793
   64SAPC  H15Y 5254   1.992   6.698   8.307  0.2624  0.0870  1.1374
   64SAPC  C316 5255   1.774   6.695   8.328  0.2392 -0.2940 -0.4075
   64SAPC  H16X 5256   1.754   6.603   8.269 -0.7227  0.6072 -1.5234
   64SAPC  H16Y 5257   1.694   6.769   8.308 -1.1397 -1.4756  0.6407
   64SAPC  C317 5258   1.780   6.658   8.479  0.5102 -0.4625 -0.3049
   64SAPC  H17X 5259   1.804   6.756   8.526 -0.9377 -0.3815  0.3013
   64SAPC  H17Y 5260   1.859   6.584   8.503  2.3433  1.1938 -1.1130
   64SAPC  C318 5261   1.640   6.614   8.528  0.0514 -0.0808 -0.1388
   64SAPC  H18X 5262   1.617   6.509   8.500 -2.8173  0.3598  0.3740
   64SAPC  H18Y 5263   1.566   6.691   8.496  2.6513  2.4485 -0.2089
   64SAPC  H18Z 5264   1.645   6.622   8.638  0.1461 -1.2742 -0.0540
   65SAPC     N 5265   3.208   2.276   5.985 -0.7570 -0.7209  0.5997
   65SAPC   C12 5266   3.138   2.355   6.098  0.1938  0.1709  0.5278
   65SAPC  H12A 5267   3.117   2.452   6.055  0.9550 -0.9581 -2.5385
   65SAPC  H12B 5268   3.213   2.369   6.173  0.2672 -0.0361  0.4940
   65SAPC   C13 5269   3.267   2.148   6.045 -0.1707  0.0454 -0.3551
   65SAPC  H13A 5270   3.357   2.179   6.095 -1.7611  2.3024  1.2519
   65SAPC  H13B 5271   3.206   2.096   6.118 -0.6592 -0.0359 -0.8137
   65SAPC  H13C 5272   3.298   2.073   5.974  3.3238  1.2572 -0.1803
   65SAPC   C14 5273   3.119   2.230   5.880  0.3218  0.0166 -0.4285
   65SAPC  H14A 5274   3.160   2.156   5.813 -3.3483 -2.5564 -0.0109
   65SAPC  H14B 5275   3.028   2.188   5.922  0.4293  0.2119  0.0021
   65SAPC  H14C 5276   3.083   2.309   5.816  0.8312 -0.0169 -0.7509
   65SAPC   C15 5277   3.312   2.352   5.920 -0.5151 -0.0358 -0.0426
   65SAPC  H15A 5278   3.354   2.293   5.840  2.8607  0.5114  1.2367
   65SAPC  H15B 5279   3.272   2.438   5.868  0.3545  0.6778  0.4512
   65SAPC  H15C 5280   3.383   2.387   5.993  1.0954  2.0539 -2.5315
   65SAPC   C11 5281   3.000   2.309   6.150  0.0206  0.4964  0.1542
   65SAPC  H11A 5282   2.983   2.356   6.248  0.3383 -1.6574  1.2863
   65SAPC  H11B 5283   3.006   2.198   6.153 -1.4547  0.4235  0.6717
   65SAPC     P 5284   2.837   2.483   6.042  0.0170  0.0488 -0.0040
   65SAPC   O13 5285   2.944   2.578   6.055  0.2978 -0.2628  0.7689
   65SAPC   O14 5286   2.757   2.498   5.921 -0.3064 -0.3697 -0.0728
   65SAPC   O12 5287   2.901   2.339   6.055 -0.1374  0.0764 -0.3520
   65SAPC   O11 5288   2.739   2.500   6.163 -0.2298  0.6559  0.5795
   65SAPC    C1 5289   2.646   2.397   6.202 -0.5020  0.4357 -0.3437
   65SAPC    HA 5290   2.604   2.333   6.121 -1.4835  1.0886 -0.3655
   65SAPC    HB 5291   2.694   2.319   6.264 -2.9864 -0.3100  0.7233
   65SAPC    C2 5292   2.516   2.453   6.271 -0.1871 -0.4942  0.8401
   65SAPC    HS 5293   2.452   2.496   6.192  1.0813 -1.4431 -0.7379
   65SAPC   O21 5294   2.553   2.545   6.380  0.0583  0.7958  0.1669
   65SAPC   C21 5295   2.458   2.615   6.433  1.0220  0.1818 -0.8442
   65SAPC   O22 5296   2.339   2.612   6.394  0.2283 -0.0490  0.0036
   65SAPC   C22 5297   2.509   2.715   6.544  0.2915  0.5300 -0.3918
   65SAPC   H2R 5298   2.606   2.680   6.586 -1.0882 -1.0008  1.5906
   65SAPC   H2S 5299   2.514   2.812   6.489 -1.4970  0.4368 -0.7401
   65SAPC    C3 5300   2.420   2.343   6.321  0.1130 -0.5202  0.0680
   65SAPC    HX 5301   2.401   2.268   6.241 -1.9672  0.8135 -0.7206
   65SAPC    HY 5302   2.321   2.390   6.337  0.7883  1.5761 -1.6498
   65SAPC   O31 5303   2.461   2.282   6.452  0.2114 -0.4086  0.2970
   65SAPC   C31 5304   2.505   2.159   6.443  0.5868 -0.8276  0.0631
   65SAPC   O32 5305   2.540   2.107   6.340 -0.0429 -0.2783 -0.1340
   65SAPC   C32 5306   2.524   2.108   6.589  0.5196 -0.1794 -0.3556
   65SAPC   H2X 5307   2.423   2.096   6.634  0.9098  1.0793  0.8945
   65SAPC   H2Y 5308   2.576   2.188   6.645 -0.1044  1.3043 -1.8851
   65SAPC   C23 5309   2.408   2.721   6.655 -0.0407  0.5349  0.0909
   65SAPC   H3R 5310   2.316   2.776   6.624 -0.3519 -0.6145 -1.1014
   65SAPC   H3S 5311   2.453   2.790   6.729 -0.9348 -1.3792  2.4549
   65SAPC   C24 5312   2.367   2.589   6.733  0.7819 -0.0510 -0.0978
   65SAPC   H4R 5313   2.304   2.524   6.667 -0.1188 -1.2766  1.9173
   65SAPC   H4S 5314   2.301   2.626   6.814  1.3560  0.8826 -0.0563
   65SAPC   C25 5315   2.488   2.523   6.804 -0.1886  0.3662  0.6645
   65SAPC   H5R 5316   2.571   2.500   6.735  0.2774  3.0338  0.2907
   65SAPC   C26 5317   2.497   2.503   6.938 -0.0942  0.0059  0.4228
   65SAPC   H6R 5318   2.586   2.453   6.977 -0.4589 -1.5833 -0.6967
   65SAPC   C27 5319   2.402   2.544   7.054  0.4805  0.8637 -0.1548
   65SAPC   H7R 5320   2.300   2.564   7.014  1.1688  1.8411 -1.4664
   65SAPC   H7S 5321   2.418   2.649   7.088  0.0009  0.6718  0.6844
   65SAPC   C28 5322   2.391   2.436   7.161 -0.7123 -0.3581  0.6452
   65SAPC   H8R 5323   2.342   2.346   7.120 -1.2448  0.9667 -1.6842
   65SAPC   C29 5324   2.450   2.438   7.283 -0.0577 -0.4807  0.5227
   65SAPC   H9R 5325   2.432   2.360   7.358 -3.0236 -1.0385 -0.6771
   65SAPC  C210 5326   2.549   2.548   7.332 -0.2483 -0.5911  0.0454
   65SAPC  H10R 5327   2.525   2.605   7.425  0.7720  1.0486 -0.6896
   65SAPC  H10S 5328   2.570   2.622   7.253  1.2418 -2.1267 -1.0382
   65SAPC  C211 5329   2.677   2.482   7.369  0.6025  0.0743  0.3261
   65SAPC  H11R 5330   2.728   2.450   7.277 -1.2499  0.2061 -0.7570
   65SAPC  C212 5331   2.733   2.454   7.489  1.1026  0.1423 -0.5891
   65SAPC  H12R 5332   2.834   2.409   7.493  1.5524  1.1367 -0.6257
   65SAPC  C213 5333   2.670   2.480   7.624  0.4090  0.2437 -0.3502
   65SAPC  H13R 5334   2.683   2.391   7.690 -0.4845  0.3996  0.0414
   65SAPC  H13S 5335   2.559   2.491   7.626  0.4048  0.1452  2.9995
   65SAPC  C214 5336   2.742   2.598   7.681  0.2864  0.3120  0.2733
   65SAPC  H14R 5337   2.691   2.695   7.670 -0.7039  0.0385  2.2143
   65SAPC  C215 5338   2.857   2.587   7.752  0.6994 -0.4413 -0.0522
   65SAPC  H15R 5339   2.895   2.688   7.776 -0.8094  0.5652 -1.8237
   65SAPC  C216 5340   2.921   2.449   7.797  0.1388  0.0714 -0.4875
   65SAPC  H16R 5341   2.926   2.371   7.718  0.6030 -0.6328  0.2281
   65SAPC  H16S 5342   2.858   2.398   7.873 -0.5158  0.0549 -1.0400
   65SAPC  C217 5343   3.063   2.462   7.856 -0.0483  0.5355 -0.1852
   65SAPC  H17R 5344   3.072   2.359   7.898 -2.1418 -0.5539 -2.3170
   65SAPC  H17S 5345   3.071   2.539   7.935 -2.1555 -0.6074  1.1731
   65SAPC  C218 5346   3.180   2.472   7.750 -0.2725  0.7583  0.6019
   65SAPC  H18R 5347   3.148   2.536   7.664  0.2495 -0.9299 -0.8942
   65SAPC  H18S 5348   3.188   2.370   7.706  0.3266  0.4905  1.3359
   65SAPC  C219 5349   3.318   2.493   7.819  0.4887  0.0180 -0.0623
   65SAPC  H19R 5350   3.318   2.433   7.912  0.6600 -0.2316 -0.2208
   65SAPC  H19S 5351   3.320   2.598   7.854 -0.2323  0.0492 -0.0991
   65SAPC  C220 5352   3.445   2.448   7.747 -0.0522 -0.1680 -0.0595
   65SAPC  H20R 5353   3.529   2.482   7.813  0.1662  0.4018 -0.6215
   65SAPC  H20S 5354   3.471   2.496   7.650  0.7202  0.9657  0.6991
   65SAPC  H20T 5355   3.446   2.339   7.727  0.6327  0.0703 -1.4055
   65SAPC   C33 5356   2.598   1.975   6.591  0.7934 -0.7910 -0.0694
   65SAPC   H3X 5357   2.644   1.948   6.688 -0.1050 -0.3273  0.4961
   65SAPC   H3Y 5358   2.678   1.975   6.514  0.7916  0.2983 -0.0817
   65SAPC   C34 5359   2.500   1.858   6.564  0.3763  0.1094 -0.3123
   65SAPC   H4X 5360   2.558   1.767   6.540  0.6869  0.1148  0.3999
   65SAPC   H4Y 5361   2.426   1.870   6.482 -0.5066 -0.8793  0.3247
   65SAPC   C35 5362   2.441   1.802   6.699  0.2387 -0.7060 -0.1693
   65SAPC   H5X 5363   2.367   1.873   6.743 -1.1016 -1.9674 -0.3524
   65SAPC   H5Y 5364   2.521   1.780   6.773 -0.6550  1.1148  1.3838
   65SAPC   C36 5365   2.373   1.666   6.677 -0.0023  0.2349  0.1240
   65SAPC   H6X 5366   2.451   1.588   6.662  1.2308  1.3084  0.8725
   65SAPC   H6Y 5367   2.312   1.668   6.584 -2.6741  0.6852  1.8242
   65SAPC   C37 5368   2.292   1.618   6.801  0.5804  0.0769 -0.2429
   65SAPC   H7X 5369   2.212   1.694   6.816 -0.1556 -0.5097 -1.1481
   65SAPC   H7Y 5370   2.361   1.621   6.888 -0.8640  0.5007  0.8966
   65SAPC   C38 5371   2.234   1.478   6.809 -0.3258 -0.7518  0.1873
   65SAPC   H8X 5372   2.308   1.412   6.758  0.5703 -0.0925  0.6397
   65SAPC   H8Y 5373   2.140   1.483   6.750  0.3294  3.0476 -0.6103
   65SAPC   C39 5374   2.224   1.417   6.950 -0.4428  0.2977  0.8825
   65SAPC   H9X 5375   2.175   1.317   6.946  1.5612 -0.7187  1.1751
   65SAPC   H9Y 5376   2.154   1.485   7.003  0.3062  1.9264 -0.1656
   65SAPC  C310 5377   2.364   1.417   7.015  0.0647 -0.0391 -0.3517
   65SAPC  H10X 5378   2.384   1.510   7.072 -1.2715  0.5484 -0.8297
   65SAPC  H10Y 5379   2.446   1.408   6.940 -1.3353 -0.9747 -1.7914
   65SAPC  C311 5380   2.381   1.298   7.106 -0.4376 -0.2725 -0.2171
   65SAPC  H11X 5381   2.392   1.209   7.041 -3.1339 -0.6700 -0.1557
   65SAPC  H11Y 5382   2.296   1.281   7.176  0.8299  0.9170  1.6775
   65SAPC  C312 5383   2.506   1.314   7.193  0.0344 -0.5495  0.6930
   65SAPC  H12X 5384   2.590   1.349   7.129 -0.1518  0.3660  0.9343
   65SAPC  H12Y 5385   2.542   1.218   7.235  0.4462 -0.7663 -0.1650
   65SAPC  C313 5386   2.485   1.418   7.305 -0.3089  0.1427  0.1528
   65SAPC  H13X 5387   2.386   1.385   7.345  0.2500 -2.1254 -0.2194
   65SAPC  H13Y 5388   2.486   1.527   7.285 -1.0998  0.2529  0.6834
   65SAPC  C314 5389   2.593   1.413   7.422 -0.2269  0.0039  0.1094
   65SAPC  H14X 5390   2.689   1.433   7.369 -0.2032  0.2116  0.2295
   65SAPC  H14Y 5391   2.599   1.312   7.469 -1.4383 -0.5300 -0.8506
   65SAPC  C315 5392   2.565   1.518   7.523 -0.0056 -0.1124 -0.3717
   65SAPC  H15X 5393   2.460   1.520   7.559  0.6067  0.7766  1.4542
   65SAPC  H15Y 5394   2.585   1.616   7.475  4.6404  0.2982  2.0411
   65SAPC  C316 5395   2.661   1.506   7.634 -0.1607  0.2199 -0.2680
   65SAPC  H16X 5396   2.766   1.497   7.600 -0.6787 -1.7628 -1.3958
   65SAPC  H16Y 5397   2.643   1.408   7.683  2.3493  0.0070  0.2593
   65SAPC  C317 5398   2.637   1.599   7.753  0.5135  0.0281  0.0902
   65SAPC  H17X 5399   2.531   1.608   7.782  0.7126  0.2906  0.7411
   65SAPC  H17Y 5400   2.678   1.697   7.718  1.2849 -0.5824 -0.7542
   65SAPC  C318 5401   2.718   1.540   7.873 -0.3248 -0.2822 -0.1840
   65SAPC  H18X 5402   2.752   1.628   7.931  0.7220 -1.0273  0.3378
   65SAPC  H18Y 5403   2.812   1.489   7.847  0.1902  0.0352  1.0038
   65SAPC  H18Z 5404   2.653   1.465   7.923 -0.4899  0.4186  0.6788
   66SAPC     N 5405   5.930   1.149   6.018 -0.0833  0.0312  0.4954
   66SAPC   C12 5406   6.042   1.111   6.112 -0.4013 -0.2484 -0.7210
   66SAPC  H12A 5407   6.039   1.003   6.110  2.2592 -0.3474 -0.2487
   66SAPC  H12B 5408   6.027   1.151   6.211 -1.2038  1.3816 -1.4816
   66SAPC   C13 5409   5.800   1.091   6.065  0.0434 -0.0140 -0.3557
   66SAPC  H13A 5410   5.724   1.119   5.994  0.6320  0.2603 -0.8757
   66SAPC  H13B 5411   5.794   0.984   6.077 -0.8046 -0.0478 -1.0932
   66SAPC  H13C 5412   5.763   1.130   6.159  1.0838  0.3492 -0.0780
   66SAPC   C14 5413   5.904   1.299   6.023 -0.8100 -0.3689 -0.1604
   66SAPC  H14A 5414   5.992   1.356   6.000 -0.3721 -1.4428 -1.2256
   66SAPC  H14B 5415   5.828   1.333   5.954 -2.3212 -1.8601  0.7111
   66SAPC  H14C 5416   5.885   1.325   6.126  0.8257 -0.5039  0.1901
   66SAPC   C15 5417   5.958   1.104   5.877  0.0976  0.4932 -0.3879
   66SAPC  H15A 5418   6.063   1.117   5.854 -0.6398  1.2104 -3.5167
   66SAPC  H15B 5419   5.942   0.997   5.881 -0.7837  0.6695  0.9369
   66SAPC  H15C 5420   5.887   1.143   5.807  0.0914  1.2779  0.0554
   66SAPC   C11 5421   6.190   1.154   6.080  0.0597  0.0283 -0.2779
   66SAPC  H11A 5422   6.210   1.115   5.978  1.0646 -1.0321  0.3108
   66SAPC  H11B 5423   6.261   1.105   6.150  0.7665 -0.8069 -1.5690
   66SAPC     P 5424   6.204   1.388   6.215 -0.1756 -0.5990 -0.0834
   66SAPC   O13 5425   6.347   1.403   6.257  0.0983 -0.1192 -0.1401
   66SAPC   O14 5426   6.129   1.516   6.195  0.1629 -0.5613  0.1077
   66SAPC   O12 5427   6.203   1.297   6.085 -0.5591 -0.1616  0.4132
   66SAPC   O11 5428   6.127   1.300   6.323 -0.5701  0.2188  0.7018
   66SAPC    C1 5429   6.186   1.207   6.418  0.1156  0.0736 -0.6157
   66SAPC    HA 5430   6.160   1.103   6.389 -0.5455  0.4836 -1.5128
   66SAPC    HB 5431   6.297   1.217   6.423  0.4531 -3.2822  0.4317
   66SAPC    C2 5432   6.131   1.231   6.560 -0.5557 -0.0218 -1.1035
   66SAPC    HS 5433   6.021   1.240   6.555 -0.5166  1.6644  0.6081
   66SAPC   O21 5434   6.191   1.350   6.619 -0.5848 -0.0916  0.3157
   66SAPC   C21 5435   6.131   1.462   6.582  1.1780  0.4700  0.7851
   66SAPC   O22 5436   6.027   1.484   6.522 -0.1777  0.5034  0.6128
   66SAPC   C22 5437   6.208   1.567   6.653 -0.4879 -1.4179 -0.6754
   66SAPC   H2R 5438   6.305   1.557   6.600  1.2500 -1.8894  2.4611
   66SAPC   H2S 5439   6.172   1.666   6.618  4.2506  0.4131 -0.6945
   66SAPC    C3 5440   6.166   1.106   6.649  0.3994 -0.1455  0.2422
   66SAPC    HX 5441   6.271   1.089   6.616  0.0143  0.8686 -1.5735
   66SAPC    HY 5442   6.105   1.025   6.603  0.9372 -2.4115  3.3736
   66SAPC   O31 5443   6.139   1.128   6.788 -0.1278 -0.3890 -0.0780
   66SAPC   C31 5444   6.229   1.087   6.878  0.0375  0.6563 -0.8349
   66SAPC   O32 5445   6.342   1.039   6.852  0.5210  0.1865 -0.0791
   66SAPC   C32 5446   6.173   1.120   7.019  0.7418  0.3034  0.2599
   66SAPC   H2X 5447   6.065   1.093   7.015  0.8408 -0.0547 -0.0032
   66SAPC   H2Y 5448   6.193   1.228   7.035 -1.4317  0.6611  0.6839
   66SAPC   C23 5449   6.217   1.546   6.805  0.0205 -0.6255 -0.2429
   66SAPC   H3R 5450   6.279   1.631   6.840  0.6191 -0.5349 -1.4984
   66SAPC   H3S 5451   6.269   1.454   6.838  0.5106 -0.2373  0.0681
   66SAPC   C24 5452   6.081   1.560   6.872  0.0962  0.1579 -0.3021
   66SAPC   H4R 5453   6.010   1.481   6.842  0.3749 -0.0993 -0.2824
   66SAPC   H4S 5454   6.037   1.652   6.827  0.8961 -0.0880 -1.6015
   66SAPC   C25 5455   6.089   1.570   7.029 -0.1601  0.4183  0.4493
   66SAPC   H5R 5456   6.108   1.474   7.080  0.0357  1.2079  1.8927
   66SAPC   C26 5457   6.113   1.675   7.100  0.2596  0.4138  0.3479
   66SAPC   H6R 5458   6.128   1.666   7.209  0.4457 -1.0601  0.2025
   66SAPC   C27 5459   6.115   1.818   7.046  0.5343 -0.7442  0.0456
   66SAPC   H7R 5460   6.071   1.886   7.122  0.1137 -0.6175 -0.3131
   66SAPC   H7S 5461   6.046   1.831   6.960 -0.8932 -0.3034  1.2528
   66SAPC   C28 5462   6.254   1.865   7.015  0.2611  0.2150 -0.1068
   66SAPC   H8R 5463   6.277   1.843   6.910 -0.9754 -2.5444  0.1443
   66SAPC   C29 5464   6.332   1.950   7.093 -0.2761  0.4780  0.2469
   66SAPC   H9R 5465   6.424   1.996   7.053 -1.1243  0.1331 -2.1831
   66SAPC  C210 5466   6.312   2.010   7.223 -0.0619  0.6962  0.1642
   66SAPC  H10R 5467   6.205   1.992   7.251 -0.1478 -0.2861 -0.7382
   66SAPC  H10S 5468   6.309   2.120   7.235 -1.0093  0.8217 -1.1016
   66SAPC  C211 5469   6.402   1.957   7.333 -0.2068  0.1812  0.2921
   66SAPC  H11R 5470   6.511   1.966   7.320 -0.1449 -0.1893  0.5370
   66SAPC  C212 5471   6.361   1.913   7.455 -0.4714 -0.4889 -0.4277
   66SAPC  H12R 5472   6.435   1.880   7.530 -1.4301 -4.1996 -1.0055
   66SAPC  C213 5473   6.225   1.912   7.525 -0.1145 -0.2874  0.2083
   66SAPC  H13R 5474   6.203   1.830   7.596  2.5886 -1.0789  0.1710
   66SAPC  H13S 5475   6.147   1.898   7.448 -0.2715  0.0166  0.3086
   66SAPC  C214 5476   6.199   2.040   7.606  0.2035 -0.0219 -0.0190
   66SAPC  H14R 5477   6.199   2.135   7.550  1.2538  0.9439  1.5611
   66SAPC  C215 5478   6.179   2.046   7.739  0.5124  0.0048 -0.4440
   66SAPC  H15R 5479   6.175   2.148   7.779 -3.3703 -1.1496  2.4761
   66SAPC  C216 5480   6.164   1.936   7.839 -0.5461 -0.4307  0.1204
   66SAPC  H16R 5481   6.231   1.849   7.821 -1.0673 -1.3211  2.4148
   66SAPC  H16S 5482   6.056   1.909   7.833 -0.3243 -1.1562 -0.6627
   66SAPC  C217 5483   6.192   1.989   7.978 -0.2168 -0.5528  0.1977
   66SAPC  H17R 5484   6.175   1.918   8.062  0.3935 -1.0711 -0.1124
   66SAPC  H17S 5485   6.127   2.078   7.994 -0.5721 -0.9273  0.8921
   66SAPC  C218 5486   6.341   2.010   7.999 -0.7612 -0.7456 -0.7222
   66SAPC  H18R 5487   6.377   2.062   7.907 -1.6353 -0.2695 -0.8032
   66SAPC  H18S 5488   6.396   1.915   8.011 -0.8650 -0.3691  3.6040
   66SAPC  C219 5489   6.355   2.090   8.134  0.4086 -0.0706 -0.1115
   66SAPC  H19R 5490   6.288   2.041   8.207  0.4766 -0.5241 -0.3456
   66SAPC  H19S 5491   6.316   2.191   8.111  1.0981 -0.0149 -1.0572
   66SAPC  C220 5492   6.500   2.090   8.196 -0.4047 -0.2014 -0.8994
   66SAPC  H20R 5493   6.513   2.157   8.285 -0.0273 -1.5776  0.0984
   66SAPC  H20S 5494   6.578   2.120   8.123  0.9824 -3.4915 -0.8437
   66SAPC  H20T 5495   6.522   1.984   8.223 -0.9303  0.2945  1.6692
   66SAPC   C33 5496   6.236   1.035   7.135  0.0472 -0.0227 -0.3477
   66SAPC   H3X 5497   6.346   1.036   7.121 -0.1008 -1.2193 -1.8009
   66SAPC   H3Y 5498   6.224   0.926   7.117  1.8515 -0.9164  3.3632
   66SAPC   C34 5499   6.185   1.070   7.271 -0.1056  0.4418  0.0616
   66SAPC   H4X 5500   6.080   1.036   7.282  0.9089 -3.2025 -0.8676
   66SAPC   H4Y 5501   6.188   1.179   7.292  1.3862  0.2504  0.8907
   66SAPC   C35 5502   6.277   0.997   7.376  0.4790  0.1192 -0.1607
   66SAPC   H5X 5503   6.384   1.025   7.360  0.4967 -0.8991 -1.9724
   66SAPC   H5Y 5504   6.268   0.887   7.360 -0.7969 -0.0172  1.4078
   66SAPC   C36 5505   6.231   1.041   7.520  0.5179 -0.3962 -0.0964
   66SAPC   H6X 5506   6.120   1.045   7.528  0.5548 -0.5436  0.5290
   66SAPC   H6Y 5507   6.264   1.146   7.538 -1.0859 -0.1093  1.3698
   66SAPC   C37 5508   6.301   0.964   7.630 -0.4851  0.2651 -0.4112
   66SAPC   H7X 5509   6.409   0.989   7.634 -0.5141  0.1713  1.3632
   66SAPC   H7Y 5510   6.301   0.853   7.618  0.4892  0.3422 -1.1983
   66SAPC   C38 5511   6.250   0.988   7.773  0.1432  0.6344 -1.1508
   66SAPC   H8X 5512   6.167   0.918   7.797  0.0622  0.0043 -3.1173
   66SAPC   H8Y 5513   6.207   1.089   7.786 -0.9586 -0.0351  0.5991
   66SAPC   C39 5514   6.350   0.953   7.883 -0.4482  0.1114  0.4789
   66SAPC   H9X 5515   6.456   0.987   7.875 -0.9409  1.5170 -0.0607
   66SAPC   H9Y 5516   6.369   0.843   7.881  0.4705  0.2562  0.6113
   66SAPC  C310 5517   6.290   0.977   8.025 -0.3674 -0.4751 -0.5954
   66SAPC  H10X 5518   6.201   0.911   8.034 -0.1473 -0.8350 -1.0525
   66SAPC  H10Y 5519   6.260   1.083   8.041 -1.8781 -0.8789 -0.6833
   66SAPC  C311 5520   6.395   0.931   8.129  0.4790 -0.1696 -0.5533
   66SAPC  H11X 5521   6.474   1.009   8.134  1.5262 -1.1935 -0.8140
   66SAPC  H11Y 5522   6.459   0.849   8.090  0.3380  0.3561 -1.9084
   66SAPC  C312 5523   6.342   0.906   8.273 -0.2009 -0.2920  0.1330
   66SAPC  H12X 5524   6.281   0.817   8.249 -0.7541 -0.6554  2.7550
   66SAPC  H12Y 5525   6.278   0.991   8.303  0.3875 -0.1122  0.8858
   66SAPC  C313 5526   6.431   0.864   8.392 -0.0786  0.3916 -0.2810
   66SAPC  H13X 5527   6.511   0.937   8.418  1.1951 -0.4029 -1.8283
   66SAPC  H13Y 5528   6.492   0.777   8.359  0.3287  0.2396  0.8297
   66SAPC  C314 5529   6.353   0.823   8.517 -0.0982 -0.3454 -0.2245
   66SAPC  H14X 5530   6.287   0.738   8.490  1.7836 -1.9955  0.2875
   66SAPC  H14Y 5531   6.285   0.899   8.561  0.7544  0.1464  0.2450
   66SAPC  C315 5532   6.453   0.785   8.628 -0.0245 -0.0999  0.1249
   66SAPC  H15X 5533   6.497   0.879   8.666  1.4696 -0.8917  0.3977
   66SAPC  H15Y 5534   6.542   0.727   8.595 -0.6925 -1.0112 -0.0888
   66SAPC  C316 5535   6.391   0.722   8.749 -0.4653  0.5730 -0.2383
   66SAPC  H16X 5536   6.389   0.612   8.732 -2.2672  0.2640  1.8079
   66SAPC  H16Y 5537   6.281   0.737   8.754 -0.6139 -0.9877  1.7005
   66SAPC  C317 5538   6.471   0.738   8.887 -0.7674  0.2741 -0.3104
   66SAPC  H17X 5539   6.403   0.679   8.952  2.7871 -2.0268  1.4415
   66SAPC  H17Y 5540   6.478   0.843   8.923 -0.3184  0.1211  0.0467
   66SAPC  C318 5541   6.604   0.664   8.901 -0.6797 -0.6902 -0.1713
   66SAPC  H18X 5542   6.680   0.704   8.830  0.2790 -0.1627  1.1184
   66SAPC  H18Y 5543   6.581   0.558   8.877 -1.4282 -0.2964 -1.2274
   66SAPC  H18Z 5544   6.646   0.685   9.002  0.4381 -1.6441 -0.4286
   67SAPC     N 5545   2.302   3.448   6.340 -0.2663  0.7559 -0.0195
   67SAPC   C12 5546   2.261   3.398   6.474 -0.3853  1.1492 -0.5055
   67SAPC  H12A 5547   2.346   3.363   6.530 -0.0814  0.6675 -1.2704
   67SAPC  H12B 5548   2.200   3.309   6.465  0.7203 -0.2071  3.8723
   67SAPC   C13 5549   2.379   3.578   6.357  0.1108 -0.0789 -0.1441
   67SAPC  H13A 5550   2.337   3.638   6.436 -1.2486 -0.9439 -0.2011
   67SAPC  H13B 5551   2.470   3.538   6.400 -1.9762 -3.1721  1.5606
   67SAPC  H13C 5552   2.415   3.633   6.271  0.2204  0.2136  0.0870
   67SAPC   C14 5553   2.394   3.350   6.282 -0.2311  0.3960 -0.1376
   67SAPC  H14A 5554   2.424   3.381   6.183 -0.7721  0.2383 -0.3523
   67SAPC  H14B 5555   2.481   3.334   6.344 -0.4672 -0.9742 -0.1596
   67SAPC  H14C 5556   2.347   3.254   6.266  2.0778 -0.5197 -1.6737
   67SAPC   C15 5557   2.195   3.458   6.239 -0.6011  0.1572 -0.2660
   67SAPC  H15A 5558   2.223   3.531   6.164  1.1489 -0.0437  0.1817
   67SAPC  H15B 5559   2.160   3.363   6.201  2.4506 -0.6397 -1.2053
   67SAPC  H15C 5560   2.115   3.500   6.299 -1.0852  2.3008 -2.3187
   67SAPC   C11 5561   2.165   3.486   6.565  0.1968  0.3897  1.0218
   67SAPC  H11A 5562   2.225   3.576   6.592  0.1654  0.2201  1.6753
   67SAPC  H11B 5563   2.150   3.422   6.655 -0.9605 -1.8613 -0.7236
   67SAPC     P 5564   1.926   3.426   6.483 -0.0938  0.2699  0.0351
   67SAPC   O13 5565   1.819   3.473   6.578  0.7418  0.2710  0.2027
   67SAPC   O14 5566   1.885   3.413   6.340  0.7494 -0.5756 -0.0793
   67SAPC   O12 5567   2.055   3.527   6.493  0.2862  0.2584  0.2134
   67SAPC   O11 5568   1.985   3.297   6.531  0.3399  0.1426  0.0076
   67SAPC    C1 5569   1.920   3.173   6.557 -0.3388  0.1604 -0.3011
   67SAPC    HA 5570   1.809   3.173   6.557 -0.3375 -0.0079 -0.5494
   67SAPC    HB 5571   1.948   3.102   6.477  2.4195 -0.9754  1.6195
   67SAPC    C2 5572   1.964   3.131   6.705 -0.5376  0.0484 -0.5493
   67SAPC    HS 5573   1.910   3.038   6.731  0.0471  0.2290  1.4098
   67SAPC   O21 5574   1.948   3.228   6.805 -0.0255  0.1471  0.1581
   67SAPC   C21 5575   1.829   3.253   6.852  0.5915 -0.6083 -0.2727
   67SAPC   O22 5576   1.721   3.211   6.814 -0.5666  0.3976 -0.0679
   67SAPC   C22 5577   1.852   3.361   6.954  0.9806  0.0171 -0.1745
   67SAPC   H2R 5578   1.857   3.459   6.902  0.6795  1.0971  1.7421
   67SAPC   H2S 5579   1.765   3.379   7.022  0.3174  1.2812 -1.3299
   67SAPC    C3 5580   2.119   3.089   6.708  0.5736 -0.1402 -0.3050
   67SAPC    HX 5581   2.180   3.181   6.697  0.9303 -0.4095 -0.5853
   67SAPC    HY 5582   2.138   3.024   6.619 -0.0681  1.6224 -1.7606
   67SAPC   O31 5583   2.144   3.021   6.832 -0.1393 -0.3183  0.0544
   67SAPC   C31 5584   2.275   3.042   6.879  0.8323 -0.0504  0.6883
   67SAPC   O32 5585   2.357   3.100   6.812 -0.1791 -1.1644 -0.2526
   67SAPC   C32 5586   2.301   2.966   7.013 -0.5377 -0.0916  0.4990
   67SAPC   H2X 5587   2.307   2.860   6.978 -0.9375 -0.5031  1.6565
   67SAPC   H2Y 5588   2.210   2.984   7.074 -0.5985 -1.7793  0.9430
   67SAPC   C23 5589   1.982   3.358   7.042 -0.0392 -0.3985 -0.4559
   67SAPC   H3R 5590   1.975   3.452   7.101 -2.4688  0.1017 -1.4863
   67SAPC   H3S 5591   2.074   3.367   6.981  0.7448  1.7060  0.9501
   67SAPC   C24 5592   1.994   3.230   7.128 -0.8760  0.4230 -0.0665
   67SAPC   H4R 5593   1.992   3.141   7.063  2.2309 -0.5291  1.0720
   67SAPC   H4S 5594   1.909   3.226   7.200 -1.4111 -1.2181 -0.7685
   67SAPC   C25 5595   2.122   3.244   7.201 -0.2697 -0.2717 -0.3229
   67SAPC   H5R 5596   2.207   3.218   7.136  1.8944  1.0465  1.8783
   67SAPC   C26 5597   2.143   3.267   7.331  0.1765  0.2433  0.0969
   67SAPC   H6R 5598   2.244   3.256   7.373 -0.0532 -1.4542  0.2341
   67SAPC   C27 5599   2.038   3.299   7.432  0.5050 -0.0247  0.5442
   67SAPC   H7R 5600   2.059   3.262   7.535  0.7584  1.0796  0.9005
   67SAPC   H7S 5601   1.947   3.243   7.401 -0.9033  1.3253  2.0710
   67SAPC   C28 5602   1.996   3.446   7.437 -0.4616 -0.4296  0.1767
   67SAPC   H8R 5603   1.981   3.497   7.340  0.7505 -0.6425 -0.1435
   67SAPC   C29 5604   1.992   3.517   7.550  0.3232 -0.0423  0.5446
   67SAPC   H9R 5605   1.967   3.624   7.548  0.8690  0.0604 -2.0250
   67SAPC  C210 5606   2.011   3.472   7.693 -0.5348 -0.9371 -0.7270
   67SAPC  H10R 5607   2.059   3.557   7.745 -2.1154 -1.1729  1.1896
   67SAPC  H10S 5608   2.073   3.380   7.702 -0.4161 -0.7091  1.0368
   67SAPC  C211 5609   1.882   3.435   7.758 -0.1804 -0.0742 -0.8544
   67SAPC  H11R 5610   1.799   3.420   7.688 -0.3596  0.8878 -0.8573
   67SAPC  C212 5611   1.862   3.403   7.883 -0.4321  0.3966 -0.5196
   67SAPC  H12R 5612   1.757   3.390   7.915 -0.4903  0.8640 -0.5183
   67SAPC  C213 5613   1.967   3.392   7.994  0.0288  0.8681 -0.3753
   67SAPC  H13R 5614   2.073   3.401   7.962  0.2920  1.4929  0.6759
   67SAPC  H13S 5615   1.969   3.292   8.042 -0.4967  0.5926 -0.9231
   67SAPC  C214 5616   1.941   3.492   8.107 -0.3985  0.1168  0.2507
   67SAPC  H14R 5617   2.001   3.583   8.093  1.8196 -1.4223 -0.6090
   67SAPC  C215 5618   1.865   3.478   8.215 -0.1311 -0.1204 -0.1235
   67SAPC  H15R 5619   1.835   3.560   8.281  0.0822 -0.0180 -0.1543
   67SAPC  C216 5620   1.782   3.365   8.248  0.5327 -0.1405  0.0031
   67SAPC  H16R 5621   1.813   3.350   8.354  2.3661 -0.5853 -0.5925
   67SAPC  H16S 5622   1.808   3.274   8.191 -0.3458 -1.1341  1.1561
   67SAPC  C217 5623   1.626   3.381   8.245 -0.5779 -0.2563 -0.2320
   67SAPC  H17R 5624   1.601   3.420   8.144  2.1573  3.2599  0.3705
   67SAPC  H17S 5625   1.581   3.439   8.328 -1.5907 -1.6096  0.1923
   67SAPC  C218 5626   1.567   3.238   8.261  0.3806  0.2228 -0.2592
   67SAPC  H18R 5627   1.607   3.170   8.182  0.1437  2.8695 -2.7681
   67SAPC  H18S 5628   1.457   3.241   8.245  0.2518  2.8719  0.8455
   67SAPC  C219 5629   1.605   3.158   8.386 -0.7790  0.5593 -0.6292
   67SAPC  H19R 5630   1.566   3.213   8.474 -0.1410  0.3250 -0.1998
   67SAPC  H19S 5631   1.715   3.169   8.403 -0.8399  0.2111 -0.0128
   67SAPC  C220 5632   1.560   3.013   8.387  0.3500  0.3315 -0.2772
   67SAPC  H20R 5633   1.541   2.973   8.285  0.0847 -0.3420  0.0315
   67SAPC  H20S 5634   1.461   3.013   8.439 -0.4635  3.2178 -1.6914
   67SAPC  H20T 5635   1.634   2.941   8.428 -0.6709 -1.5016 -1.5674
   67SAPC   C33 5636   2.432   3.006   7.085 -0.4763 -0.9161 -0.1923
   67SAPC   H3X 5637   2.430   3.117   7.087  2.7641 -0.8218  1.5605
   67SAPC   H3Y 5638   2.525   2.983   7.031  0.3510 -1.4316  1.4167
   67SAPC   C34 5639   2.447   2.962   7.231  0.0608 -0.3594  0.5824
   67SAPC   H4X 5640   2.459   2.851   7.234  3.5620 -0.0370  0.4101
   67SAPC   H4Y 5641   2.356   2.989   7.289 -3.4119  0.5498 -4.8588
   67SAPC   C35 5642   2.563   3.025   7.301  0.3179  0.3223 -0.1767
   67SAPC   H5X 5643   2.541   3.133   7.308 -1.7319 -0.1169  0.2821
   67SAPC   H5Y 5644   2.651   3.011   7.234  2.6392 -0.3536  2.9085
   67SAPC   C36 5645   2.608   2.958   7.430  0.5235  0.3023 -0.2094
   67SAPC   H6X 5646   2.658   2.863   7.402  0.2523 -0.6952  2.4640
   67SAPC   H6Y 5647   2.514   2.939   7.487  0.1605 -1.5275 -1.3608
   67SAPC   C37 5648   2.713   3.029   7.508  0.9332 -0.4880  0.1422
   67SAPC   H7X 5649   2.666   3.127   7.530 -1.0077 -1.3749  0.0392
   67SAPC   H7Y 5650   2.792   3.056   7.435 -0.7844 -0.9371 -1.9311
   67SAPC   C38 5651   2.763   2.958   7.634  0.8457  0.9940  0.6332
   67SAPC   H8X 5652   2.845   3.021   7.675  3.1358 -0.3845 -1.6777
   67SAPC   H8Y 5653   2.804   2.856   7.620 -1.9859 -0.0984  0.0041
   67SAPC   C39 5654   2.646   2.946   7.735 -0.1402 -0.2081  0.0990
   67SAPC   H9X 5655   2.569   2.873   7.704 -0.6932  1.3969 -2.4767
   67SAPC   H9Y 5656   2.604   3.047   7.750  0.6392  0.3380 -1.2938
   67SAPC  C310 5657   2.697   2.909   7.880 -0.0270  0.0079 -0.1701
   67SAPC  H10X 5658   2.761   2.988   7.925 -0.5071  0.2568  0.0853
   67SAPC  H10Y 5659   2.766   2.822   7.877  1.5370  1.2305  0.0025
   67SAPC  C311 5660   2.573   2.893   7.973 -0.4160  0.1337  0.0555
   67SAPC  H11X 5661   2.616   2.847   8.065  0.7586  0.4235 -0.3357
   67SAPC  H11Y 5662   2.498   2.823   7.930  0.9700 -1.6981  0.5461
   67SAPC  C312 5663   2.503   3.023   7.993 -0.7392  0.0560 -0.0592
   67SAPC  H12X 5664   2.443   3.048   7.903  0.4311  1.5814 -0.4412
   67SAPC  H12Y 5665   2.589   3.093   8.000 -0.1367 -0.6530 -0.2466
   67SAPC  C313 5666   2.401   3.028   8.106  0.7325 -0.0267  0.2694
   67SAPC  H13X 5667   2.433   2.994   8.206 -1.8027 -0.4554  0.9781
   67SAPC  H13Y 5668   2.324   2.952   8.082 -0.0878  0.1549  2.2541
   67SAPC  C314 5669   2.325   3.163   8.129  0.5201 -0.1868  0.2629
   67SAPC  H14X 5670   2.320   3.211   8.029  1.4554  1.7753  1.1373
   67SAPC  H14Y 5671   2.393   3.223   8.193  0.6963 -0.1536  0.0461
   67SAPC  C315 5672   2.205   3.173   8.223  0.7537  0.3627  0.4808
   67SAPC  H15X 5673   2.121   3.114   8.180  0.0804  2.5417 -1.3101
   67SAPC  H15Y 5674   2.156   3.272   8.237 -1.0781 -0.4211 -0.2544
   67SAPC  C316 5675   2.239   3.119   8.364  0.3009  0.0413  0.5193
   67SAPC  H16X 5676   2.343   3.155   8.378  0.3372 -0.5179  1.7473
   67SAPC  H16Y 5677   2.239   3.008   8.365  2.1935  0.0359  0.5976
   67SAPC  C317 5678   2.164   3.174   8.479  0.2091  0.2272  0.3956
   67SAPC  H17X 5679   2.194   3.280   8.492 -1.6733  0.7255  0.7993
   67SAPC  H17Y 5680   2.202   3.131   8.574 -0.6723  0.1663  0.7313
   67SAPC  C318 5681   2.007   3.158   8.458  0.2310 -0.4662  0.3431
   67SAPC  H18X 5682   1.969   3.196   8.361  0.4035 -1.3338 -0.0571
   67SAPC  H18Y 5683   1.953   3.221   8.533 -1.0418 -1.6033  0.3986
   67SAPC  H18Z 5684   1.970   3.055   8.476 -1.5112  0.3235  1.4004
   68SAPC     N 5685   6.597   1.403   5.899 -0.4883  0.0865 -0.3121
   68SAPC   C12 5686   6.724   1.407   5.980  0.0530  0.0173 -1.3385
   68SAPC  H12A 5687   6.736   1.303   6.006  0.4792  0.5135  0.5704
   68SAPC  H12B 5688   6.699   1.475   6.061 -2.4409  0.2179 -2.2525
   68SAPC   C13 5689   6.542   1.539   5.867  0.6062  0.1901 -0.0360
   68SAPC  H13A 5690   6.447   1.512   5.824  1.1021  0.3667 -1.2493
   68SAPC  H13B 5691   6.519   1.595   5.956 -0.8143 -1.6612  0.8047
   68SAPC  H13C 5692   6.607   1.586   5.795 -0.1121 -0.6877 -1.2818
   68SAPC   C14 5693   6.613   1.324   5.773  0.7785 -0.0968 -0.2217
   68SAPC  H14A 5694   6.522   1.320   5.714 -0.0160  0.8614  0.9097
   68SAPC  H14B 5695   6.689   1.374   5.714  0.4521  0.7607  0.0831
   68SAPC  H14C 5696   6.653   1.226   5.794 -0.7334 -1.2122 -2.4212
   68SAPC   C15 5697   6.493   1.330   5.978  0.4178  0.3666  0.3755
   68SAPC  H15A 5698   6.490   1.356   6.082  1.0250  1.4192  0.1402
   68SAPC  H15B 5699   6.398   1.339   5.929 -0.9157 -0.5926  2.7134
   68SAPC  H15C 5700   6.518   1.225   5.972  0.3024  0.3210  0.7321
   68SAPC   C11 5701   6.859   1.458   5.929 -0.2096  0.1507 -0.0282
   68SAPC  H11A 5702   6.889   1.397   5.841 -2.6679 -0.5000 -0.4696
   68SAPC  H11B 5703   6.933   1.449   6.011  1.9545  3.3561 -1.5251
   68SAPC     P 5704   6.879   1.708   5.980  0.0188  0.3989 -0.1438
   68SAPC   O13 5705   7.016   1.676   6.026 -0.3070  0.6541 -0.1153
   68SAPC   O14 5706   6.859   1.836   5.915  0.0899  0.7629 -0.1824
   68SAPC   O12 5707   6.842   1.589   5.882 -0.2971  0.5118 -0.5673
   68SAPC   O11 5708   6.776   1.705   6.097  0.3365 -0.3923  0.5607
   68SAPC    C1 5709   6.806   1.637   6.220  0.3879 -0.1939 -0.7007
   68SAPC    HA 5710   6.710   1.607   6.266 -0.1200  3.4410  0.7709
   68SAPC    HB 5711   6.862   1.542   6.212 -0.7095 -0.8117 -1.1924
   68SAPC    C2 5712   6.889   1.737   6.315  0.2038  0.4471 -0.5952
   68SAPC    HS 5713   6.978   1.768   6.256  0.6615 -1.2248 -0.8105
   68SAPC   O21 5714   6.924   1.666   6.435 -0.3909  0.3064 -0.0833
   68SAPC   C21 5715   7.041   1.680   6.480 -0.9783  0.2360  0.5374
   68SAPC   O22 5716   7.127   1.751   6.435 -0.4379  0.2531 -0.4441
   68SAPC   C22 5717   7.063   1.593   6.606  0.7159  0.7833 -0.3705
   68SAPC   H2R 5718   7.004   1.500   6.594  2.0713 -0.5591  2.8979
   68SAPC   H2S 5719   7.169   1.561   6.614  0.5514  0.3786  0.2658
   68SAPC    C3 5720   6.805   1.867   6.353 -0.4275  0.0214  0.7059
   68SAPC    HX 5721   6.713   1.830   6.403 -1.1843  1.7618  0.6202
   68SAPC    HY 5722   6.764   1.924   6.267  1.5335  0.8563  0.3010
   68SAPC   O31 5723   6.880   1.946   6.444  0.1008 -0.1349 -0.4550
   68SAPC   C31 5724   6.968   2.030   6.385  0.0836 -0.4802  0.2508
   68SAPC   O32 5725   6.984   2.039   6.264 -0.5648  0.0413 -0.3584
   68SAPC   C32 5726   7.045   2.097   6.492  0.2247  0.1005 -0.5587
   68SAPC   H2X 5727   7.129   2.025   6.508 -0.6473 -0.4909  1.4457
   68SAPC   H2Y 5728   6.981   2.098   6.582  0.8408  0.2697 -0.1208
   68SAPC   C23 5729   7.031   1.659   6.739  0.3729 -0.0648 -0.3120
   68SAPC   H3R 5730   6.922   1.679   6.732  0.4177 -0.4119 -2.3529
   68SAPC   H3S 5731   7.092   1.751   6.736 -1.1809  1.1415  3.0088
   68SAPC   C24 5732   7.042   1.561   6.861 -0.0394 -0.1029 -0.6932
   68SAPC   H4R 5733   7.135   1.500   6.857 -0.6554 -1.1382  0.3962
   68SAPC   H4S 5734   6.959   1.488   6.853 -0.0388 -0.2285  0.4563
   68SAPC   C25 5735   7.020   1.647   6.985 -0.0668  0.2933 -0.0138
   68SAPC   H5R 5736   6.917   1.686   6.992  0.3963  1.4962  0.2508
   68SAPC   C26 5737   7.098   1.649   7.102 -0.2184 -0.4719 -0.6388
   68SAPC   H6R 5738   7.061   1.707   7.188  0.6770  1.3569 -1.4652
   68SAPC   C27 5739   7.234   1.582   7.121 -0.0549  0.4806  0.9176
   68SAPC   H7R 5740   7.300   1.641   7.187 -1.4908  1.1109  1.8177
   68SAPC   H7S 5741   7.288   1.566   7.025 -0.3781  0.2166  0.7760
   68SAPC   C28 5742   7.223   1.439   7.162  0.0245  0.4534  0.4125
   68SAPC   H8R 5743   7.129   1.388   7.137  0.0705  0.2943  0.5583
   68SAPC   C29 5744   7.324   1.369   7.229  0.1877 -0.4958 -0.7351
   68SAPC   H9R 5745   7.307   1.265   7.260 -0.8857  0.2500  1.2741
   68SAPC  C210 5746   7.455   1.421   7.281 -0.7180  0.1372 -0.0277
   68SAPC  H10R 5747   7.415   1.497   7.351 -0.3038  1.2581 -1.0029
   68SAPC  H10S 5748   7.500   1.482   7.201  1.3046 -0.7589  0.4090
   68SAPC  C211 5749   7.558   1.332   7.353 -0.0268 -0.2489 -0.1716
   68SAPC  H11R 5750   7.629   1.291   7.280  0.8436  1.1126 -0.0999
   68SAPC  C212 5751   7.574   1.307   7.480 -0.3071  0.2309  0.3198
   68SAPC  H12R 5752   7.652   1.235   7.511 -0.2883 -0.1893 -0.6935
   68SAPC  C213 5753   7.487   1.356   7.592  1.0254 -0.1129  0.0227
   68SAPC  H13R 5754   7.393   1.302   7.566  2.0533 -1.1085 -1.7619
   68SAPC  H13S 5755   7.475   1.467   7.592 -0.9835 -0.2820  2.6980
   68SAPC  C214 5756   7.510   1.291   7.728 -0.2142  0.0339 -0.4553
   68SAPC  H14R 5757   7.501   1.181   7.729  0.6000 -0.0378  2.2168
   68SAPC  C215 5758   7.552   1.348   7.842  0.0992 -0.5397 -0.2936
   68SAPC  H15R 5759   7.579   1.284   7.927 -1.2365 -0.5880  0.1060
   68SAPC  C216 5760   7.582   1.493   7.859 -0.5658  0.2776  0.1457
   68SAPC  H16R 5761   7.562   1.553   7.768 -2.1175 -2.8468 -1.6345
   68SAPC  H16S 5762   7.685   1.506   7.900 -0.6262 -2.5492  1.2921
   68SAPC  C217 5763   7.493   1.543   7.971 -0.6667  0.6351  1.1232
   68SAPC  H17R 5764   7.504   1.476   8.058  0.1546 -0.5791  0.0963
   68SAPC  H17S 5765   7.388   1.535   7.934 -0.5155  0.7879  0.6548
   68SAPC  C218 5766   7.524   1.684   8.005  0.6430 -0.2279  0.4395
   68SAPC  H18R 5767   7.542   1.754   7.920 -2.3881 -0.4974 -0.4790
   68SAPC  H18S 5768   7.617   1.684   8.066  1.2364 -3.6539 -0.3833
   68SAPC  C219 5769   7.404   1.735   8.100 -0.2893 -0.9388 -0.3339
   68SAPC  H19R 5770   7.414   1.680   8.196  2.4971  2.8792  1.6832
   68SAPC  H19S 5771   7.308   1.713   8.048 -1.2437  1.1129  0.5289
   68SAPC  C220 5772   7.430   1.884   8.128  0.3397  0.3359  0.3003
   68SAPC  H20R 5773   7.526   1.893   8.183  1.2071 -0.2962 -1.1064
   68SAPC  H20S 5774   7.354   1.916   8.203 -1.0071  0.0292 -0.9105
   68SAPC  H20T 5775   7.416   1.949   8.039 -0.9810  3.6757  2.8315
   68SAPC   C33 5776   7.090   2.243   6.466  0.1810 -0.2689 -0.3649
   68SAPC   H3X 5777   6.998   2.304   6.486  2.3168  2.3986  1.7667
   68SAPC   H3Y 5778   7.130   2.255   6.363  0.4992 -0.0770 -0.2200
   68SAPC   C34 5779   7.200   2.293   6.560 -0.1937  0.2519 -0.4577
   68SAPC   H4X 5780   7.213   2.401   6.541  1.5657  0.2012  0.3849
   68SAPC   H4Y 5781   7.291   2.245   6.518 -1.4095 -2.1249 -0.4698
   68SAPC   C35 5782   7.185   2.258   6.710 -0.3214  0.1033 -0.0975
   68SAPC   H5X 5783   7.277   2.260   6.773 -0.1173 -1.3156 -0.3313
   68SAPC   H5Y 5784   7.133   2.162   6.728 -0.1399  0.3221  1.6422
   68SAPC   C36 5785   7.104   2.365   6.777  0.1279  0.4490 -0.0517
   68SAPC   H6X 5786   7.056   2.331   6.871 -1.9826 -1.4301 -1.7205
   68SAPC   H6Y 5787   7.024   2.398   6.707  0.4526 -1.0048 -1.1473
   68SAPC   C37 5788   7.189   2.484   6.803  0.3685 -0.9207 -0.5020
   68SAPC   H7X 5789   7.244   2.524   6.715 -1.7130 -0.4155 -1.6189
   68SAPC   H7Y 5790   7.263   2.453   6.880 -0.3359 -0.8744  0.1999
   68SAPC   C38 5791   7.127   2.610   6.862 -0.1521 -0.2017 -0.0646
   68SAPC   H8X 5792   7.019   2.619   6.839 -0.0746 -0.4903 -0.5444
   68SAPC   H8Y 5793   7.174   2.696   6.809 -0.3439 -0.0259  0.0513
   68SAPC   C39 5794   7.151   2.610   7.013 -0.2221 -0.6429  0.3380
   68SAPC   H9X 5795   7.106   2.707   7.043 -1.0627 -0.5442 -1.1903
   68SAPC   H9Y 5796   7.259   2.619   7.036  0.2194 -3.1614 -0.6212
   68SAPC  C310 5797   7.088   2.492   7.096  0.2896 -0.2553 -0.1826
   68SAPC  H10X 5798   7.142   2.397   7.075 -0.7019 -0.6520 -0.9669
   68SAPC  H10Y 5799   6.980   2.483   7.070  0.5086 -1.9669 -0.5387
   68SAPC  C311 5800   7.092   2.519   7.249 -0.1238 -0.3136 -0.6531
   68SAPC  H11X 5801   7.046   2.619   7.269  0.6274 -0.1603  0.3082
   68SAPC  H11Y 5802   7.195   2.529   7.287 -1.4728  0.5098  2.9335
   68SAPC  C312 5803   7.037   2.408   7.341  0.3722 -0.2072 -0.0725
   68SAPC  H12X 5804   7.081   2.307   7.326  2.2265  0.6849 -0.8218
   68SAPC  H12Y 5805   6.927   2.399   7.326  0.0176  2.0043  0.9515
   68SAPC  C313 5806   7.061   2.434   7.489 -0.1416 -0.7100  0.1372
   68SAPC  H13X 5807   7.040   2.541   7.509  2.3725 -0.1827  0.0317
   68SAPC  H13Y 5808   7.168   2.419   7.513 -0.0577 -0.2101  0.0678
   68SAPC  C314 5809   6.999   2.338   7.588  0.7818 -0.0203 -0.6206
   68SAPC  H14X 5810   7.073   2.255   7.598  2.7677  2.0047  2.4268
   68SAPC  H14Y 5811   6.907   2.298   7.540 -1.1217  2.1777  1.0642
   68SAPC  C315 5812   6.969   2.395   7.731  0.1569 -0.3550  0.0053
   68SAPC  H15X 5813   6.889   2.472   7.727  0.5436  0.0418 -0.2070
   68SAPC  H15Y 5814   7.064   2.446   7.759 -0.7946  1.0328  0.7247
   68SAPC  C316 5815   6.928   2.291   7.834  0.4898  0.0971  0.1551
   68SAPC  H16X 5816   6.980   2.195   7.812  0.1959  0.0662 -0.4119
   68SAPC  H16Y 5817   6.819   2.272   7.826  0.4669 -0.4154  1.5039
   68SAPC  C317 5818   6.977   2.320   7.984 -0.1211 -0.1302  0.3246
   68SAPC  H17X 5819   6.907   2.397   8.021  0.5740 -0.0027  1.4227
   68SAPC  H17Y 5820   7.081   2.354   7.964  0.4268 -1.4141  0.9432
   68SAPC  C318 5821   6.988   2.191   8.073  0.3669  0.2215 -0.0399
   68SAPC  H18X 5822   6.887   2.176   8.115  1.0955  0.7541  1.9317
   68SAPC  H18Y 5823   7.062   2.217   8.151  1.6376 -0.7347 -0.9025
   68SAPC  H18Z 5824   7.033   2.107   8.015  1.4580  0.5717  0.2892
   69SLPC     N 5825   4.218   0.740  11.086  0.3166  0.1109 -0.2244
   69SLPC   C13 5826   4.163   0.819  10.969 -0.6260  0.2786 -0.1479
   69SLPC  H13A 5827   4.206   0.917  10.960  1.9157 -0.6204  1.5503
   69SLPC  H13B 5828   4.186   0.771  10.875 -1.4307  1.7415 -1.1027
   69SLPC  H13C 5829   4.057   0.823  10.987 -0.4890 -1.4261  1.2226
   69SLPC   C14 5830   4.173   0.801  11.214 -0.5779 -0.0568  0.3928
   69SLPC  H14A 5831   4.186   0.908  11.224  2.3453 -0.1221 -1.9770
   69SLPC  H14B 5832   4.069   0.784  11.235 -0.7544 -0.5615 -0.8377
   69SLPC  H14C 5833   4.216   0.754  11.301  0.1593  0.8905  0.5483
   69SLPC   C15 5834   4.372   0.754  11.084 -0.0888  0.3075  0.2569
   69SLPC  H15A 5835   4.419   0.701  11.166  0.5593  0.6479  0.1076
   69SLPC  H15B 5836   4.408   0.714  10.990  0.0642 -0.8186  0.7745
   69SLPC  H15C 5837   4.412   0.854  11.094 -1.7770  0.8975  1.1913
   69SLPC   C12 5838   4.177   0.596  11.082 -0.5435  0.3279 -0.0568
   69SLPC  H12A 5839   4.076   0.587  11.120 -0.1850 -0.9295  0.6029
   69SLPC  H12B 5840   4.235   0.546  11.158 -0.2306 -1.2782 -1.3403
   69SLPC   C11 5841   4.194   0.507  10.955  0.2831 -0.2207  0.1864
   69SLPC  H11A 5842   4.116   0.531  10.880 -0.2107 -0.4522  0.6279
   69SLPC  H11B 5843   4.162   0.407  10.989  0.1078 -1.4220 -3.3120
   69SLPC     P 5844   4.418   0.379  10.931  0.3857  0.5101  0.0426
   69SLPC   O13 5845   4.555   0.434  10.892 -0.0615  0.1508 -0.2327
   69SLPC   O14 5846   4.409   0.306  11.062 -0.5904 -0.4665 -0.2751
   69SLPC   O12 5847   4.326   0.502  10.908 -0.3562  0.1884 -0.1038
   69SLPC   O11 5848   4.371   0.283  10.819  0.4590  0.9642  0.3794
   69SLPC    C1 5849   4.375   0.322  10.683  0.1780  0.8258  0.9666
   69SLPC    HA 5850   4.304   0.253  10.631 -0.2972  1.8197  0.2801
   69SLPC    HB 5851   4.346   0.426  10.656 -2.7153 -0.6954 -2.2001
   69SLPC    C2 5852   4.515   0.286  10.618 -0.0483  0.5418 -0.2644
   69SLPC    HS 5853   4.589   0.367  10.639 -0.8024  2.3308 -4.1533
   69SLPC   O21 5854   4.499   0.276  10.474  0.0182 -0.1986 -0.4263
   69SLPC   C21 5855   4.479   0.386  10.400 -0.0629 -1.2221 -0.3283
   69SLPC   O22 5856   4.454   0.496  10.440 -0.0345 -0.0818  0.0062
   69SLPC   C22 5857   4.482   0.346  10.254  0.8479  0.2759 -0.6640
   69SLPC   H2R 5858   4.582   0.374  10.217  1.1635  0.5759  0.4093
   69SLPC   H2S 5859   4.485   0.235  10.248  0.8256  0.2865 -0.8802
   69SLPC    C3 5860   4.588   0.150  10.658  0.1477  0.4812  0.3980
   69SLPC    HX 5861   4.618   0.157  10.765 -4.7719 -1.9527  2.0823
   69SLPC    HY 5862   4.681   0.152  10.598 -0.5883  0.4209 -0.7490
   69SLPC   O31 5863   4.512   0.035  10.637 -0.2171 -0.0427  0.5689
   69SLPC   C31 5864   4.544  -0.052  10.547  0.0761  0.0330  0.1284
   69SLPC   O32 5865   4.633  -0.045  10.466  0.2222 -0.5004  0.0151
   69SLPC   C32 5866   4.438  -0.165  10.556 -0.3508  0.4587 -0.6585
   69SLPC   H2X 5867   4.421  -0.190  10.663  1.5904  1.7916 -0.0189
   69SLPC   H2Y 5868   4.479  -0.249  10.496 -0.0900 -0.0335  0.2077
   69SLPC   C23 5869   4.382   0.414  10.169  0.7732  0.0027  0.1518
   69SLPC   H3R 5870   4.385   0.524  10.184 -3.1372  0.1880  0.0961
   69SLPC   H3S 5871   4.278   0.380  10.192  1.1844 -1.9669 -0.7921
   69SLPC   C24 5872   4.402   0.382  10.012 -0.3896  0.5502  0.4053
   69SLPC   H4R 5873   4.348   0.460   9.955 -0.8355  0.1468  0.2787
   69SLPC   H4S 5874   4.377   0.275   9.995 -2.5979  1.2427 -0.7838
   69SLPC   C25 5875   4.552   0.388   9.968 -0.8265  0.1514  0.2709
   69SLPC   H5R 5876   4.612   0.309  10.019 -0.1170 -0.9442 -2.1822
   69SLPC   H5S 5877   4.591   0.491   9.985 -0.7656  0.3639 -1.1277
   69SLPC   C26 5878   4.577   0.354   9.819  1.0810 -0.1147 -0.4955
   69SLPC   H6R 5879   4.529   0.254   9.808  0.2404  0.2795 -0.4326
   69SLPC   H6S 5880   4.687   0.342   9.807  1.0921  0.0072 -0.5110
   69SLPC   C27 5881   4.520   0.466   9.729 -0.1061 -0.0286  0.2239
   69SLPC   H7R 5882   4.567   0.559   9.769 -1.2761  0.1857  1.1312
   69SLPC   H7S 5883   4.410   0.471   9.745 -0.0382 -0.6494  0.8862
   69SLPC   C28 5884   4.556   0.454   9.581  0.0563 -0.2880  0.3762
   69SLPC   H8R 5885   4.662   0.428   9.561  0.1940 -0.1682  0.9518
   69SLPC   H8S 5886   4.539   0.557   9.544  3.5984  0.7305  1.4254
   69SLPC   C29 5887   4.469   0.347   9.524  0.5764 -0.1840 -0.1310
   69SLPC   H9R 5888   4.438   0.271   9.598  0.7846  0.1066  0.2511
   69SLPC  C210 5889   4.421   0.333   9.399 -0.1254 -0.3481 -0.3380
   69SLPC  H10R 5890   4.363   0.244   9.370  0.3433 -0.5603 -0.6436
   69SLPC  C211 5891   4.445   0.430   9.287 -0.0174 -0.8543 -0.9792
   69SLPC  H11R 5892   4.551   0.417   9.255  0.4666 -0.2346  0.3237
   69SLPC  H11S 5893   4.437   0.528   9.340  1.3526 -0.8212 -0.8107
   69SLPC  C212 5894   4.362   0.411   9.162 -0.2671  0.2789  0.0822
   69SLPC  H12R 5895   4.278   0.481   9.148  0.8044  2.0959  2.3552
   69SLPC  C213 5896   4.383   0.327   9.059 -0.0280 -0.1342  0.3231
   69SLPC  H13R 5897   4.311   0.331   8.976  0.1569  1.6950  0.2366
   69SLPC  C214 5898   4.494   0.223   9.044 -0.0686  0.0335  0.0966
   69SLPC  H14R 5899   4.450   0.122   9.051 -2.4687  0.9141 -1.5734
   69SLPC  H14S 5900   4.582   0.239   9.110 -1.1306 -0.3670  1.6348
   69SLPC  C215 5901   4.545   0.226   8.893 -0.2223 -0.1743  0.2636
   69SLPC  H15R 5902   4.466   0.197   8.820  0.2455  0.6998 -0.5886
   69SLPC  H15S 5903   4.621   0.145   8.894  0.4561  0.4371 -0.8016
   69SLPC  C216 5904   4.607   0.361   8.855 -0.8936  0.2414 -0.3309
   69SLPC  H16R 5905   4.674   0.394   8.937 -1.3134  0.5791 -0.1261
   69SLPC  H16S 5906   4.536   0.445   8.841  0.5765  1.6366  0.4032
   69SLPC  C217 5907   4.687   0.356   8.722  0.1478 -0.5007 -0.4584
   69SLPC  H17R 5908   4.610   0.329   8.647 -0.4118  1.2808 -0.5531
   69SLPC  H17S 5909   4.764   0.276   8.732  0.6092 -0.1117 -0.8843
   69SLPC  C218 5910   4.747   0.487   8.684  0.5131 -1.2431 -0.1249
   69SLPC  H18R 5911   4.770   0.544   8.777  0.7618 -1.5111 -0.0220
   69SLPC  H18S 5912   4.680   0.542   8.615 -0.2987 -0.4072  1.2904
   69SLPC  H18T 5913   4.835   0.474   8.618  1.6859  0.9649  0.9523
   69SLPC   C33 5914   4.307  -0.135  10.483  0.1456  0.1996  0.2325
   69SLPC   H3X 5915   4.281  -0.033  10.517 -1.0572 -0.1098  0.2665
   69SLPC   H3Y 5916   4.232  -0.207  10.523  0.3286 -0.1219  0.0010
   69SLPC   C34 5917   4.301  -0.152  10.334 -0.4536  0.0707  0.6777
   69SLPC   H4X 5918   4.195  -0.154  10.298 -0.3247 -1.6654  0.3022
   69SLPC   H4Y 5919   4.344  -0.251  10.308 -1.4580  0.3843 -2.3974
   69SLPC   C35 5920   4.364  -0.058  10.232  0.7664 -1.1153 -0.6470
   69SLPC   H5X 5921   4.472  -0.065  10.256  0.4220  0.5416  1.4942
   69SLPC   H5Y 5922   4.334   0.046  10.257  1.4784 -1.0220 -0.1884
   69SLPC   C36 5923   4.352  -0.089  10.086 -0.0656 -0.4073  0.1402
   69SLPC   H6X 5924   4.253  -0.053  10.051  0.3102  0.4329 -0.0756
   69SLPC   H6Y 5925   4.368  -0.198  10.071  1.0095 -0.4020  1.1614
   69SLPC   C37 5926   4.461  -0.024   9.997 -0.0438 -0.0953 -0.3902
   69SLPC   H7X 5927   4.559  -0.054  10.041 -0.2418 -1.3152 -0.7744
   69SLPC   H7Y 5928   4.460   0.087   9.991  1.8600  0.0245  0.9937
   69SLPC   C38 5929   4.460  -0.064   9.852  0.8146 -0.4759 -0.0472
   69SLPC   H8X 5930   4.465  -0.175   9.847 -0.6454 -0.6191  1.3391
   69SLPC   H8Y 5931   4.551  -0.020   9.806 -0.2169 -0.6831 -2.3866
   69SLPC   C39 5932   4.340  -0.032   9.772  0.1955  0.0875 -0.3240
   69SLPC   H9X 5933   4.305   0.073   9.780  0.8404  0.1439  2.0175
   69SLPC   H9Y 5934   4.262  -0.109   9.790  2.4709 -2.5244 -1.2329
   69SLPC  C310 5935   4.361  -0.041   9.617  0.0077 -0.1581  0.2070
   69SLPC  H10X 5936   4.392  -0.144   9.589 -1.0402  0.1422 -2.1978
   69SLPC  H10Y 5937   4.448   0.023   9.594 -1.6034  1.2152 -2.4206
   69SLPC  C311 5938   4.239   0.014   9.541  0.4810 -0.6919  0.3114
   69SLPC  H11X 5939   4.232   0.123   9.564 -2.7942 -0.6896 -0.5298
   69SLPC  H11Y 5940   4.141  -0.021   9.578 -0.2559  2.6695  1.7872
   69SLPC  C312 5941   4.246  -0.008   9.389 -0.2521 -0.8919 -0.2441
   69SLPC  H12X 5942   4.284  -0.111   9.371 -0.1450 -0.9265  0.1698
   69SLPC  H12Y 5943   4.338   0.050   9.364  0.0876 -0.4316  1.9222
   69SLPC  C313 5944   4.125   0.021   9.308  0.2708 -0.4996  0.0030
   69SLPC  H13X 5945   4.088   0.123   9.329  1.4344 -0.1558  0.3767
   69SLPC  H13Y 5946   4.042  -0.049   9.336 -0.6638  0.0859 -1.2593
   69SLPC  C314 5947   4.147   0.006   9.163 -0.3176  0.3010  0.0210
   69SLPC  H14X 5948   4.186  -0.092   9.126 -1.0250  0.3255 -0.8275
   69SLPC  H14Y 5949   4.215   0.086   9.125 -0.7868  0.8412  0.3256
   69SLPC  C315 5950   4.011   0.025   9.091  0.9627  0.5449  0.4847
   69SLPC  H15X 5951   3.956   0.120   9.111  0.6782  0.5753 -0.4271
   69SLPC  H15Y 5952   3.945  -0.063   9.101 -0.4554  1.7121  1.6889
   69SLPC  C316 5953   4.045   0.027   8.940  0.3323 -0.4761 -0.4386
   69SLPC  H16X 5954   3.953   0.035   8.877 -0.3382  0.3479  0.6156
   69SLPC  H16Y 5955   4.107  -0.062   8.917 -0.5580 -0.8473 -1.4217
   69SLPC  C317 5956   4.123   0.147   8.884  0.2270  0.1060  0.7613
   69SLPC  H17X 5957   4.234   0.137   8.893  0.8208  3.0202 -2.3339
   69SLPC  H17Y 5958   4.085   0.235   8.940 -0.9853 -1.1410  1.9526
   69SLPC  C318 5959   4.107   0.169   8.729 -0.3668 -0.6317  0.4268
   69SLPC  H18X 5960   3.998   0.169   8.705 -0.1467 -0.5943 -0.5863
   69SLPC  H18Y 5961   4.149   0.089   8.665 -1.0367 -1.0540  0.5060
   69SLPC  H18Z 5962   4.146   0.266   8.693 -0.8479 -1.1317 -1.4808
   70SLPC     N 5963   5.690   4.159  11.419  0.2840 -0.0561  0.3944
   70SLPC   C13 5964   5.808   4.157  11.516 -0.0293 -0.7848 -0.2626
   70SLPC  H13A 5965   5.859   4.251  11.527  0.2635 -0.6708 -2.4355
   70SLPC  H13B 5966   5.763   4.134  11.612 -0.4661  2.1252  0.2640
   70SLPC  H13C 5967   5.873   4.078  11.480 -0.1182 -1.0520  0.1514
   70SLPC   C14 5968   5.589   4.254  11.477  0.8634  0.3106  0.5767
   70SLPC  H14A 5969   5.508   4.263  11.407  0.7939 -1.0588  0.4721
   70SLPC  H14B 5970   5.546   4.226  11.573  0.4724 -1.4138 -0.0806
   70SLPC  H14C 5971   5.635   4.351  11.490  3.0251 -0.4018 -1.4378
   70SLPC   C15 5972   5.636   4.024  11.418  0.3590  0.4515  0.3069
   70SLPC  H15A 5973   5.589   3.994  11.510 -2.3191  2.5641 -0.2956
   70SLPC  H15B 5974   5.550   4.024  11.352  0.2108  1.6039  0.4858
   70SLPC  H15C 5975   5.706   3.948  11.390 -0.9735 -0.4268 -0.7117
   70SLPC   C12 5976   5.743   4.210  11.289  0.3859  0.2374  0.3108
   70SLPC  H12A 5977   5.828   4.148  11.265 -0.2516 -0.3404 -0.5021
   70SLPC  H12B 5978   5.779   4.310  11.306 -0.7080  0.6040  0.4906
   70SLPC   C11 5979   5.630   4.221  11.180 -0.1152  1.0363  0.7121
   70SLPC  H11A 5980   5.534   4.253  11.226 -0.3458  1.0255  0.2395
   70SLPC  H11B 5981   5.606   4.133  11.117  2.3960  1.0287 -0.2948
   70SLPC     P 5982   5.762   4.318  10.954 -0.3309 -0.0315  0.0469
   70SLPC   O13 5983   5.812   4.457  10.924  0.6024 -0.3738  0.2463
   70SLPC   O14 5984   5.859   4.207  10.982  0.6728 -0.3782 -0.4606
   70SLPC   O12 5985   5.662   4.331  11.086 -0.1236  1.2506  0.0524
   70SLPC   O11 5986   5.673   4.277  10.841 -0.8010  0.0732 -0.0410
   70SLPC    C1 5987   5.605   4.150  10.831  0.1290 -0.1412  0.2303
   70SLPC    HA 5988   5.661   4.065  10.876 -0.3499 -0.9414 -0.6744
   70SLPC    HB 5989   5.513   4.163  10.893 -0.1784  0.9867 -0.4446
   70SLPC    C2 5990   5.573   4.114  10.684 -0.1334  0.0203 -0.8309
   70SLPC    HS 5991   5.472   4.068  10.671 -0.3216 -0.3828  1.7601
   70SLPC   O21 5992   5.678   4.028  10.627 -0.3009 -0.7633 -0.4751
   70SLPC   C21 5993   5.688   3.904  10.677 -0.3339  0.3924 -0.0027
   70SLPC   O22 5994   5.612   3.856  10.764 -0.4105  0.2529  0.4796
   70SLPC   C22 5995   5.799   3.827  10.606  0.2102  0.0349  1.2773
   70SLPC   H2R 5996   5.864   3.899  10.551 -0.5115 -0.3396 -0.0865
   70SLPC   H2S 5997   5.860   3.774  10.683  1.2060 -0.5189  0.1205
   70SLPC    C3 5998   5.573   4.243  10.597  0.3520  0.0324 -0.3106
   70SLPC    HX 5999   5.666   4.299  10.619  0.1985 -0.0816  0.6529
   70SLPC    HY 6000   5.488   4.307  10.631  1.6101  0.7876  1.4428
   70SLPC   O31 6001   5.566   4.213  10.459  0.2634  0.0470 -0.6154
   70SLPC   C31 6002   5.440   4.196  10.418 -0.5909  0.2078  0.0864
   70SLPC   O32 6003   5.338   4.212  10.485 -0.0977 -0.3866  0.4933
   70SLPC   C32 6004   5.438   4.135  10.277  0.7947  0.4449 -0.1400
   70SLPC   H2X 6005   5.339   4.173  10.245 -0.0771 -0.2412  1.6520
   70SLPC   H2Y 6006   5.447   4.026  10.297 -0.6067  0.1999 -0.8029
   70SLPC   C23 6007   5.739   3.722  10.512 -0.1263 -0.0458 -0.2126
   70SLPC   H3R 6008   5.656   3.661  10.553 -0.3872  2.2076  2.7238
   70SLPC   H3S 6009   5.826   3.654  10.495  2.0825  2.9415 -1.3887
   70SLPC   C24 6010   5.694   3.786  10.389 -0.0679  0.7053 -0.2789
   70SLPC   H4R 6011   5.780   3.844  10.352 -0.8992  0.2540 -3.0190
   70SLPC   H4S 6012   5.611   3.858  10.409 -2.9114 -2.5438  0.0910
   70SLPC   C25 6013   5.654   3.682  10.276 -0.0332 -0.4741 -0.2693
   70SLPC   H5R 6014   5.583   3.615  10.329  0.0661  1.0973  1.8879
   70SLPC   H5S 6015   5.741   3.632  10.227  0.7390 -1.1148  1.6818
   70SLPC   C26 6016   5.575   3.762  10.169  0.4112  0.1144  0.8663
   70SLPC   H6R 6017   5.634   3.855  10.151  0.7240  0.0229  1.3894
   70SLPC   H6S 6018   5.482   3.794  10.221 -0.5667 -1.6843  0.2467
   70SLPC   C27 6019   5.556   3.683  10.037 -0.0408  0.2680 -0.5568
   70SLPC   H7R 6020   5.488   3.748   9.977 -0.3023  0.6606  0.1571
   70SLPC   H7S 6021   5.506   3.586  10.056  1.8250 -0.7198 -0.6150
   70SLPC   C28 6022   5.687   3.670   9.963 -0.0394 -0.6196  0.9924
   70SLPC   H8R 6023   5.770   3.615  10.014 -0.8754  0.0877  3.1958
   70SLPC   H8S 6024   5.726   3.774   9.967 -2.0511  0.1607  0.9884
   70SLPC   C29 6025   5.658   3.603   9.838 -0.1756  0.4850 -0.2050
   70SLPC   H9R 6026   5.657   3.494   9.851  0.9188  0.8438  3.5354
   70SLPC  C210 6027   5.641   3.652   9.713  0.9083  0.6653 -0.2503
   70SLPC  H10R 6028   5.643   3.573   9.636 -0.8945 -0.5097  0.8805
   70SLPC  C211 6029   5.638   3.802   9.676 -1.1212 -0.6221  0.6677
   70SLPC  H11R 6030   5.733   3.827   9.623 -1.2178 -0.1281  0.7235
   70SLPC  H11S 6031   5.648   3.863   9.769  0.3530  0.4560 -0.1785
   70SLPC  C212 6032   5.514   3.835   9.592 -0.1053  0.7621  0.5901
   70SLPC  H12R 6033   5.424   3.861   9.650 -1.8801 -0.6536 -1.4458
   70SLPC  C213 6034   5.507   3.840   9.457  0.2002  0.0385  0.1546
   70SLPC  H13R 6035   5.411   3.863   9.411 -0.3132 -0.6243  0.8758
   70SLPC  C214 6036   5.622   3.810   9.366  0.1824 -0.0673  0.5144
   70SLPC  H14R 6037   5.639   3.701   9.355  3.2319  0.5432 -1.5902
   70SLPC  H14S 6038   5.709   3.879   9.376  1.1147 -0.7341 -2.3817
   70SLPC  C215 6039   5.573   3.849   9.226 -0.3129  0.0967  0.2803
   70SLPC  H15R 6040   5.557   3.956   9.203  0.0161  0.5919  2.3359
   70SLPC  H15S 6041   5.476   3.797   9.206 -0.6521  0.9231 -0.2501
   70SLPC  C216 6042   5.678   3.811   9.124  0.3683  0.4481 -0.1421
   70SLPC  H16R 6043   5.712   3.708   9.149  0.1384  0.3785 -0.1132
   70SLPC  H16S 6044   5.769   3.875   9.131  0.5515  0.1778 -0.0563
   70SLPC  C217 6045   5.618   3.815   8.986  0.2120  0.3816  0.3991
   70SLPC  H17R 6046   5.571   3.914   8.968 -1.9484 -0.5492  0.7983
   70SLPC  H17S 6047   5.535   3.741   8.989  0.3933  0.1858  0.5611
   70SLPC  C218 6048   5.718   3.786   8.877  0.3919 -0.3040 -0.3639
   70SLPC  H18R 6049   5.670   3.761   8.780 -1.9929 -0.0218  0.6972
   70SLPC  H18S 6050   5.787   3.702   8.900 -0.0095 -1.2444 -2.4161
   70SLPC  H18T 6051   5.790   3.870   8.869  0.9706 -0.5864  1.5948
   70SLPC   C33 6052   5.547   4.189  10.189 -0.2409  0.2145  0.1134
   70SLPC   H3X 6053   5.643   4.138  10.214 -1.6366 -2.2567  0.6219
   70SLPC   H3Y 6054   5.560   4.297  10.210  2.8808  0.1169 -1.0411
   70SLPC   C34 6055   5.514   4.150  10.039  0.4635  0.1779  0.6056
   70SLPC   H4X 6056   5.521   4.039  10.039  1.0768  0.2093  2.5768
   70SLPC   H4Y 6057   5.596   4.183   9.971  0.5428  0.9662  1.0802
   70SLPC   C35 6058   5.383   4.207   9.978 -0.4702 -0.0249 -0.3261
   70SLPC   H5X 6059   5.371   4.316   9.997  0.1067  0.0702 -0.4790
   70SLPC   H5Y 6060   5.301   4.146  10.020  0.9132 -1.1744  0.7340
   70SLPC   C36 6061   5.394   4.188   9.828  0.0613  0.0222 -0.1448
   70SLPC   H6X 6062   5.424   4.083   9.808  2.0709  0.4071  0.6855
   70SLPC   H6Y 6063   5.474   4.255   9.789 -0.6188  0.4118 -0.8896
   70SLPC   C37 6064   5.260   4.221   9.751  0.7076 -0.1214  1.0228
   70SLPC   H7X 6065   5.219   4.316   9.791  1.2032  0.4191  0.2435
   70SLPC   H7Y 6066   5.180   4.145   9.765  1.7381 -0.8048  3.6331
   70SLPC   C38 6067   5.284   4.236   9.601 -0.6323 -0.3902  0.0760
   70SLPC   H8X 6068   5.311   4.136   9.559  1.0605  0.3895 -0.7248
   70SLPC   H8Y 6069   5.368   4.306   9.582 -0.9773  0.1410  0.5104
   70SLPC   C39 6070   5.171   4.298   9.519 -0.6867 -0.1263  0.2561
   70SLPC   H9X 6071   5.151   4.396   9.566 -0.4584  0.1734 -0.2801
   70SLPC   H9Y 6072   5.082   4.232   9.536  0.5367 -1.6073  1.1421
   70SLPC  C310 6073   5.210   4.307   9.366 -0.0272 -0.3498  0.2567
   70SLPC  H10X 6074   5.312   4.350   9.365  1.1955 -3.1495  0.2138
   70SLPC  H10Y 6075   5.139   4.377   9.317  1.9280  0.1077 -1.9557
   70SLPC  C311 6076   5.212   4.166   9.307 -0.6163 -0.2096  0.2284
   70SLPC  H11X 6077   5.124   4.105   9.335  0.2004 -0.6695  1.8993
   70SLPC  H11Y 6078   5.302   4.109   9.338  1.0003  1.3444 -1.4394
   70SLPC  C312 6079   5.233   4.180   9.154  0.3774  0.4906  0.1993
   70SLPC  H12X 6080   5.334   4.224   9.135  0.4078  0.4579  0.2866
   70SLPC  H12Y 6081   5.160   4.255   9.117  2.0461  2.7011  1.2686
   70SLPC  C313 6082   5.238   4.042   9.087  0.1011  0.2821 -0.3695
   70SLPC  H13X 6083   5.143   3.993   9.119  0.8617  0.8023  2.8439
   70SLPC  H13Y 6084   5.315   3.972   9.124 -2.3849 -1.9829  0.7318
   70SLPC  C314 6085   5.254   4.053   8.934 -0.1450 -0.5850  0.0630
   70SLPC  H14X 6086   5.358   4.088   8.915 -0.2437  0.4044  1.3019
   70SLPC  H14Y 6087   5.183   4.129   8.895  0.0965 -0.0038  0.7421
   70SLPC  C315 6088   5.231   3.927   8.856 -0.3441  0.0754 -0.8634
   70SLPC  H15X 6089   5.133   3.893   8.897  0.2699  1.2597  1.6539
   70SLPC  H15Y 6090   5.306   3.846   8.868  0.8572  1.0602 -1.5990
   70SLPC  C316 6091   5.210   3.948   8.703  0.2965  0.1096 -0.7359
   70SLPC  H16X 6092   5.305   3.992   8.664 -0.6154  3.1323  0.2906
   70SLPC  H16Y 6093   5.138   4.032   8.692 -1.1492 -0.7070  2.1794
   70SLPC  C317 6094   5.179   3.821   8.622  0.5060 -0.1089 -0.1834
   70SLPC  H17X 6095   5.211   3.736   8.685  1.3291  0.1540 -0.2468
   70SLPC  H17Y 6096   5.241   3.822   8.530 -1.0977  0.2615 -1.2854
   70SLPC  C318 6097   5.032   3.814   8.579 -0.0939  0.1128 -0.0784
   70SLPC  H18X 6098   5.014   3.714   8.533  2.7411  0.4474 -2.0102
   70SLPC  H18Y 6099   4.997   3.902   8.522 -2.1298 -0.4269  0.2868
   70SLPC  H18Z 6100   4.966   3.810   8.669 -0.9045  0.8161 -0.6344
   71SLPC     N 6101   4.774   2.047  10.842 -0.5566 -0.2178  0.0525
   71SLPC   C13 6102   4.749   1.927  10.759  0.5915 -0.1216 -0.1800
   71SLPC  H13A 6103   4.762   1.941  10.652  2.1454  0.9129  0.1262
   71SLPC  H13B 6104   4.800   1.835  10.783 -1.2302 -0.5159  2.3004
   71SLPC  H13C 6105   4.644   1.903  10.771  0.3338  1.8668  1.9016
   71SLPC   C14 6106   4.744   2.013  10.986  0.4092  0.0771 -1.0261
   71SLPC  H14A 6107   4.641   1.983  10.998 -0.0101  2.1303  0.7504
   71SLPC  H14B 6108   4.808   1.932  11.017  3.9564  2.7495 -1.0207
   71SLPC  H14C 6109   4.756   2.101  11.049  0.3561 -1.4742  1.2206
   71SLPC   C15 6110   4.668   2.144  10.791  0.2368  0.1698 -0.1063
   71SLPC  H15A 6111   4.666   2.228  10.858 -0.0525  0.4854 -0.5091
   71SLPC  H15B 6112   4.689   2.185  10.693 -1.8897  1.5146 -0.0391
   71SLPC  H15C 6113   4.567   2.105  10.781 -0.5529  1.5391  2.2989
   71SLPC   C12 6114   4.907   2.106  10.824  0.1292 -0.5236 -0.2052
   71SLPC  H12A 6115   4.927   2.118  10.719 -3.1284  1.3159 -0.6835
   71SLPC  H12B 6116   4.979   2.037  10.866  1.1236  0.1379 -0.8112
   71SLPC   C11 6117   4.942   2.241  10.897 -1.4046  0.5817  0.1243
   71SLPC  H11A 6118   5.053   2.245  10.886 -1.3267 -1.4979  0.0414
   71SLPC  H11B 6119   4.903   2.238  11.001  3.0576  1.3760  1.9382
   71SLPC     P 6120   4.935   2.410  10.698 -0.0910 -0.2344 -0.1197
   71SLPC   O13 6121   4.940   2.554  10.720 -0.1425 -0.0232  0.2793
   71SLPC   O14 6122   5.051   2.332  10.650  0.3160 -0.0485  0.2358
   71SLPC   O12 6123   4.885   2.363  10.842 -0.0272  0.1637  0.3166
   71SLPC   O11 6124   4.815   2.379  10.595  0.6928 -0.4151 -0.0401
   71SLPC    C1 6125   4.688   2.456  10.578 -0.6457  0.5502 -0.2992
   71SLPC    HA 6126   4.604   2.386  10.563 -0.7462  0.5164  0.4096
   71SLPC    HB 6127   4.676   2.526  10.663  0.2278 -0.3877  0.6172
   71SLPC    C2 6128   4.690   2.535  10.441 -0.4996 -0.2878 -0.1688
   71SLPC    HS 6129   4.590   2.584  10.434 -0.5567 -0.2361  0.8301
   71SLPC   O21 6130   4.720   2.446  10.334 -0.0815  0.4588 -0.0542
   71SLPC   C21 6131   4.610   2.388  10.287 -0.3987 -0.0067  0.4710
   71SLPC   O22 6132   4.499   2.385  10.335  0.0589 -0.4358 -0.1449
   71SLPC   C22 6133   4.641   2.324  10.154 -0.0546  1.0610 -0.7184
   71SLPC   H2R 6134   4.744   2.348  10.121  0.4281 -1.7896 -1.4145
   71SLPC   H2S 6135   4.629   2.214  10.167 -1.0433  1.1172 -1.1088
   71SLPC    C3 6136   4.794   2.649  10.460  0.1936  0.0443  1.1857
   71SLPC    HX 6137   4.893   2.627  10.504  0.3569  0.9633  1.2726
   71SLPC    HY 6138   4.737   2.728  10.512  1.8470  2.9037 -1.1958
   71SLPC   O31 6139   4.815   2.717  10.336 -0.5872  0.5549 -0.2000
   71SLPC   C31 6140   4.914   2.673  10.265  0.0498  0.2974  0.1002
   71SLPC   O32 6141   4.995   2.582  10.296 -0.0158  0.4296  0.1854
   71SLPC   C32 6142   4.897   2.731  10.126 -0.2838  0.6466  0.1389
   71SLPC   H2X 6143   4.988   2.786  10.093  0.1539  0.1159  0.4453
   71SLPC   H2Y 6144   4.821   2.812  10.122 -1.8303 -0.8412 -1.4358
   71SLPC   C23 6145   4.559   2.395  10.046  0.4514  0.6596 -0.6107
   71SLPC   H3R 6146   4.571   2.505  10.056 -0.5023  0.7864 -0.7969
   71SLPC   H3S 6147   4.452   2.366  10.049  0.0518  1.3288 -4.8657
   71SLPC   C24 6148   4.603   2.355   9.899 -0.3590  0.2638 -0.0385
   71SLPC   H4R 6149   4.597   2.245   9.885 -1.7967  0.0184  2.2812
   71SLPC   H4S 6150   4.712   2.374   9.886 -0.0073  0.2555  2.6629
   71SLPC   C25 6151   4.525   2.432   9.786 -0.5961  0.6783 -0.1310
   71SLPC   H5R 6152   4.554   2.539   9.780  0.2706  0.4611  0.0133
   71SLPC   H5S 6153   4.415   2.418   9.784 -0.2780 -2.0478 -1.2857
   71SLPC   C26 6154   4.574   2.372   9.652 -0.7558 -0.1399 -1.0146
   71SLPC   H6R 6155   4.539   2.267   9.659  1.6828 -0.8361  1.9671
   71SLPC   H6S 6156   4.685   2.376   9.648 -0.7695  2.4060  0.3512
   71SLPC   C27 6157   4.526   2.456   9.530  0.1253  0.3820  0.3156
   71SLPC   H7R 6158   4.529   2.562   9.561  0.1957 -0.0954  1.9611
   71SLPC   H7S 6159   4.423   2.422   9.503 -0.6320  2.7498  0.0801
   71SLPC   C28 6160   4.601   2.437   9.404 -0.0726  0.2933 -0.2645
   71SLPC   H8R 6161   4.629   2.330   9.407  1.8041  0.8018  1.0729
   71SLPC   H8S 6162   4.694   2.496   9.416  0.3266 -0.7922  2.3644
   71SLPC   C29 6163   4.547   2.490   9.273 -0.0979 -0.8012 -0.1072
   71SLPC   H9R 6164   4.481   2.577   9.290 -1.7678 -2.1312  0.3477
   71SLPC  C210 6165   4.580   2.451   9.150  0.1499 -0.5409  0.9175
   71SLPC  H10R 6166   4.538   2.511   9.069  0.1308 -0.9814  0.5988
   71SLPC  C211 6167   4.672   2.341   9.109  0.1150  1.1619 -0.6084
   71SLPC  H11R 6168   4.616   2.261   9.056  1.5704  0.1505 -0.6232
   71SLPC  H11S 6169   4.718   2.298   9.200  1.1429  2.0216 -0.7163
   71SLPC  C212 6170   4.792   2.388   9.023  0.0305 -0.1621 -1.2043
   71SLPC  H12R 6171   4.874   2.429   9.083 -0.8491  3.3469 -2.3200
   71SLPC  C213 6172   4.816   2.376   8.890  0.2011 -0.0676 -0.1039
   71SLPC  H13R 6173   4.904   2.421   8.842 -2.0220  0.6423 -3.7116
   71SLPC  C214 6174   4.721   2.310   8.795 -0.0044 -0.3449  0.1962
   71SLPC  H14R 6175   4.653   2.239   8.846 -0.9629 -0.3788 -1.1024
   71SLPC  H14S 6176   4.770   2.244   8.721 -1.5300  1.1437 -2.2442
   71SLPC  C215 6177   4.640   2.408   8.716  0.0264 -0.4981  0.0166
   71SLPC  H15R 6178   4.579   2.466   8.788  2.6028 -1.6773  3.2546
   71SLPC  H15S 6179   4.560   2.368   8.651  0.6818 -0.0422 -1.0998
   71SLPC  C216 6180   4.728   2.492   8.622  0.0624 -0.5517 -0.6312
   71SLPC  H16R 6181   4.789   2.417   8.567  2.4336  1.3104 -0.6385
   71SLPC  H16S 6182   4.801   2.551   8.681  0.4120 -0.8627 -0.7517
   71SLPC  C217 6183   4.658   2.589   8.526 -0.3686  0.4447 -0.2518
   71SLPC  H17R 6184   4.728   2.675   8.518  1.5928 -1.0431  0.4635
   71SLPC  H17S 6185   4.560   2.631   8.557 -1.8439 -3.1322  0.1579
   71SLPC  C218 6186   4.630   2.524   8.394  0.0386 -0.1562  0.6566
   71SLPC  H18R 6187   4.551   2.581   8.340 -0.4693 -2.3445 -0.9944
   71SLPC  H18S 6188   4.592   2.419   8.399  0.3555 -0.2014  2.4882
   71SLPC  H18T 6189   4.717   2.526   8.324  0.2658  1.1270  0.9652
   71SLPC   C33 6190   4.869   2.627  10.017  0.2390 -0.0541  0.4227
   71SLPC   H3X 6191   4.780   2.568  10.048 -1.0953  2.9554  2.5672
   71SLPC   H3Y 6192   4.946   2.547  10.018  0.5974  0.2788 -0.2087
   71SLPC   C34 6193   4.843   2.702   9.887  0.0720 -1.0354  0.2618
   71SLPC   H4X 6194   4.796   2.801   9.904 -3.3441 -2.1768 -2.1041
   71SLPC   H4Y 6195   4.773   2.640   9.828  2.0983 -2.6952 -0.4884
   71SLPC   C35 6196   4.973   2.726   9.798  0.1525 -0.1057 -0.2113
   71SLPC   H5X 6197   5.004   2.624   9.767  0.9401  1.0394 -3.3762
   71SLPC   H5Y 6198   5.056   2.768   9.858  0.1727 -1.7432  0.9368
   71SLPC   C36 6199   4.945   2.813   9.677 -0.1990 -0.2915  0.1692
   71SLPC   H6X 6200   5.041   2.847   9.633  0.3923  0.3796  1.9385
   71SLPC   H6Y 6201   4.888   2.905   9.701  0.4133  0.1441 -0.0484
   71SLPC   C37 6202   4.865   2.741   9.564  0.8075  0.3896  0.6046
   71SLPC   H7X 6203   4.786   2.681   9.614  2.2464 -0.1176  2.3191
   71SLPC   H7Y 6204   4.943   2.676   9.517 -0.0477 -2.0361  2.4278
   71SLPC   C38 6205   4.814   2.849   9.468 -0.4191  0.6127  0.4239
   71SLPC   H8X 6206   4.897   2.921   9.456 -0.1105  0.0743 -0.7744
   71SLPC   H8Y 6207   4.736   2.910   9.518 -1.1680 -2.5758  3.3471
   71SLPC   C39 6208   4.785   2.794   9.329 -0.1707  0.8905  0.0234
   71SLPC   H9X 6209   4.687   2.743   9.333  0.1491  0.3683  1.4952
   71SLPC   H9Y 6210   4.863   2.718   9.305  2.6842  3.2000  1.6293
   71SLPC  C310 6211   4.779   2.902   9.224 -0.2052  0.7623  0.0500
   71SLPC  H10X 6212   4.870   2.965   9.228  1.1297 -1.2201  1.7967
   71SLPC  H10Y 6213   4.692   2.969   9.244 -0.7411  0.4785 -1.2729
   71SLPC  C311 6214   4.763   2.851   9.081  0.5125  1.5828 -0.4529
   71SLPC  H11X 6215   4.680   2.779   9.064  1.0382  0.6426  0.9013
   71SLPC  H11Y 6216   4.852   2.791   9.052 -1.0475 -0.8309 -0.3814
   71SLPC  C312 6217   4.735   2.957   8.971 -0.0990 -0.1044  0.0789
   71SLPC  H12X 6218   4.825   3.018   8.947 -0.9363  0.8876 -0.6155
   71SLPC  H12Y 6219   4.651   3.023   9.004  0.8030 -0.0865  2.4062
   71SLPC  C313 6220   4.684   2.894   8.839 -0.9917  0.0736 -0.0212
   71SLPC  H13X 6221   4.577   2.867   8.855 -0.4626 -2.2556 -0.3204
   71SLPC  H13Y 6222   4.738   2.798   8.824  0.5421  0.6509  1.6121
   71SLPC  C314 6223   4.686   2.985   8.718  0.0112  0.2580  0.0858
   71SLPC  H14X 6224   4.783   2.968   8.666 -0.5515  2.3946 -1.6940
   71SLPC  H14Y 6225   4.699   3.088   8.759  1.2162 -0.5386  1.7977
   71SLPC  C315 6226   4.567   2.966   8.625 -0.5490  1.1542  0.3192
   71SLPC  H15X 6227   4.471   2.981   8.680  0.0535  1.0268  1.4187
   71SLPC  H15Y 6228   4.572   2.861   8.588  0.6780  0.9454  1.0577
   71SLPC  C316 6229   4.572   3.051   8.499  0.0237 -0.7046  0.1523
   71SLPC  H16X 6230   4.670   3.049   8.446 -0.3492  1.7156 -0.6961
   71SLPC  H16Y 6231   4.574   3.161   8.517 -0.8360 -0.5534 -0.6635
   71SLPC  C317 6232   4.457   3.025   8.398  0.2798 -0.1162  0.4307
   71SLPC  H17X 6233   4.439   3.120   8.344  0.0431  0.0694  0.8377
   71SLPC  H17Y 6234   4.366   3.008   8.458  0.2976  0.8641  0.7378
   71SLPC  C318 6235   4.485   2.911   8.298  0.2185  0.7866  0.7578
   71SLPC  H18X 6236   4.401   2.866   8.241  1.3158 -0.6136  0.2380
   71SLPC  H18Y 6237   4.534   2.825   8.349  1.2544  1.4715  0.9311
   71SLPC  H18Z 6238   4.562   2.941   8.224 -1.8093 -1.6763 -2.4743
   72SLPC     N 6239   6.365   0.946  10.797 -0.6236 -0.0096 -0.2219
   72SLPC   C13 6240   6.479   0.846  10.788 -0.0595  0.5232 -0.1966
   72SLPC  H13A 6241   6.497   0.821  10.684  1.0158 -0.9506  0.3213
   72SLPC  H13B 6242   6.569   0.890  10.829 -1.0617  1.5756  0.9086
   72SLPC  H13C 6243   6.448   0.758  10.843 -0.9966  1.1674  0.3132
   72SLPC   C14 6244   6.376   1.010  10.935 -0.0513 -0.4360 -0.1925
   72SLPC  H14A 6245   6.304   1.091  10.942  1.7385  1.1710  0.2089
   72SLPC  H14B 6246   6.358   0.939  11.014 -0.1939 -0.4007 -0.1937
   72SLPC  H14C 6247   6.476   1.051  10.944 -0.1508 -0.2671  0.1880
   72SLPC   C15 6248   6.237   0.873  10.778  0.7303  0.1407  0.0877
   72SLPC  H15A 6249   6.222   0.796  10.853 -0.8333  0.5305  0.1894
   72SLPC  H15B 6250   6.151   0.938  10.787 -0.7213 -1.8194  0.6838
   72SLPC  H15C 6251   6.236   0.826  10.681 -0.3957 -1.0281  0.6565
   72SLPC   C12 6252   6.379   1.049  10.692  0.6443  0.9897  0.1991
   72SLPC  H12A 6253   6.294   1.115  10.702  0.4664  1.1554 -2.1595
   72SLPC  H12B 6254   6.373   1.004  10.594  0.3796 -4.8879  2.7127
   72SLPC   C11 6255   6.515   1.124  10.688 -0.3643 -0.4670 -0.2602
   72SLPC  H11A 6256   6.524   1.172  10.588  1.7724  0.7683  0.4924
   72SLPC  H11B 6257   6.603   1.057  10.692  0.9961  1.3942  2.0409
   72SLPC     P 6258   6.463   1.362  10.774 -0.4305 -0.2653 -0.3373
   72SLPC   O13 6259   6.318   1.342  10.763  0.0961 -0.6465 -0.5261
   72SLPC   O14 6260   6.504   1.453  10.883  0.3494 -0.0192  0.4520
   72SLPC   O12 6261   6.531   1.225  10.794 -0.3019  0.6291 -0.8175
   72SLPC   O11 6262   6.533   1.422  10.646  0.6459 -0.2920  0.2894
   72SLPC    C1 6263   6.441   1.506  10.561 -1.3094 -0.2156 -0.2051
   72SLPC    HA 6264   6.339   1.521  10.603 -0.6154  0.9672  1.1104
   72SLPC    HB 6265   6.478   1.611  10.562 -1.0413 -0.3125  0.0671
   72SLPC    C2 6266   6.427   1.440  10.420 -0.5108 -0.2859  0.2006
   72SLPC    HS 6267   6.401   1.335  10.447  0.0125 -0.4158  0.2029
   72SLPC   O21 6268   6.554   1.460  10.346 -0.4271 -0.4129 -0.1128
   72SLPC   C21 6269   6.621   1.343  10.308  0.2189 -0.2087 -0.1538
   72SLPC   O22 6270   6.581   1.230  10.332 -0.2318 -0.3546  0.1176
   72SLPC   C22 6271   6.751   1.384  10.238  0.5145  0.3929 -0.3646
   72SLPC   H2R 6272   6.754   1.493  10.215 -0.3771  0.3846 -0.5164
   72SLPC   H2S 6273   6.836   1.349  10.301 -0.0434  0.4252  0.4085
   72SLPC    C3 6274   6.307   1.488  10.335 -0.3284 -0.1089 -0.1276
   72SLPC    HX 6275   6.329   1.595  10.312  1.5359 -0.7089 -1.2877
   72SLPC    HY 6276   6.207   1.487  10.383 -1.0332 -0.9427 -1.5964
   72SLPC   O31 6277   6.309   1.424  10.203 -0.5587  0.0014  0.3444
   72SLPC   C31 6278   6.253   1.300  10.195  0.1813 -0.8481 -0.0062
   72SLPC   O32 6279   6.197   1.246  10.285 -0.1909  0.1688 -0.1005
   72SLPC   C32 6280   6.270   1.247  10.050  0.5193 -0.0199 -0.1044
   72SLPC   H2X 6281   6.184   1.179  10.032  2.0656 -2.3330  1.0253
   72SLPC   H2Y 6282   6.363   1.185  10.049  0.7909  0.3959 -1.0686
   72SLPC   C23 6283   6.770   1.302  10.106 -0.3363 -0.5592 -0.4393
   72SLPC   H3R 6284   6.733   1.198  10.113 -0.2879 -0.4796  1.1837
   72SLPC   H3S 6285   6.878   1.284  10.090 -0.4103 -0.8628 -0.5919
   72SLPC   C24 6286   6.723   1.369   9.974  0.4255  0.2564  0.4068
   72SLPC   H4R 6287   6.774   1.466   9.957  2.9664 -0.5952  2.8328
   72SLPC   H4S 6288   6.614   1.391   9.978  0.1069 -1.2382  0.2086
   72SLPC   C25 6289   6.737   1.275   9.845 -0.1940  0.0893  0.0209
   72SLPC   H5R 6290   6.682   1.181   9.864  0.7563  0.1717  3.4689
   72SLPC   H5S 6291   6.840   1.235   9.836 -0.0013  0.4881  0.3970
   72SLPC   C26 6292   6.695   1.348   9.718  0.4396  0.6321 -0.2060
   72SLPC   H6R 6293   6.726   1.454   9.709  0.6821  0.5100 -0.8214
   72SLPC   H6S 6294   6.584   1.349   9.721  0.3251  4.4604 -2.4049
   72SLPC   C27 6295   6.741   1.274   9.591  0.0616  0.1521  0.0269
   72SLPC   H7R 6296   6.711   1.167   9.599  1.4289 -0.2689 -0.1969
   72SLPC   H7S 6297   6.852   1.275   9.580 -0.0244 -1.5439 -1.2941
   72SLPC   C28 6298   6.681   1.327   9.459 -0.6865 -0.2927 -0.1352
   72SLPC   H8R 6299   6.701   1.437   9.454  1.7221 -0.6825 -0.0257
   72SLPC   H8S 6300   6.571   1.321   9.466 -0.7352  0.4156 -0.2153
   72SLPC   C29 6301   6.746   1.265   9.339 -0.0226 -0.5050  0.4386
   72SLPC   H9R 6302   6.829   1.330   9.308 -0.2413 -0.5673 -0.2763
   72SLPC  C210 6303   6.711   1.157   9.273 -0.0937 -0.0070  0.2415
   72SLPC  H10R 6304   6.775   1.127   9.189 -1.9738 -0.7611 -0.9571
   72SLPC  C211 6305   6.598   1.072   9.306 -0.2887  0.3158 -0.9989
   72SLPC  H11R 6306   6.538   1.058   9.213 -0.1001  0.3889 -1.1336
   72SLPC  H11S 6307   6.525   1.109   9.381  1.9373 -1.0820  1.9388
   72SLPC  C212 6308   6.650   0.943   9.368  0.1343  0.2723  0.1333
   72SLPC  H12R 6309   6.735   0.947   9.437 -0.0460  0.3642  0.3503
   72SLPC  C213 6310   6.597   0.823   9.340 -0.0571  0.4801  0.2780
   72SLPC  H13R 6311   6.650   0.736   9.382  1.3397  0.6913 -0.9938
   72SLPC  C214 6312   6.483   0.785   9.248 -0.4144  0.4750  0.3289
   72SLPC  H14R 6313   6.518   0.722   9.163  0.0232  2.5052 -1.0152
   72SLPC  H14S 6314   6.440   0.866   9.185 -0.7613  0.4076  0.4762
   72SLPC  C215 6315   6.368   0.704   9.324 -0.0047  0.4604 -0.1286
   72SLPC  H15R 6316   6.348   0.736   9.429 -1.8767  0.7225 -0.5540
   72SLPC  H15S 6317   6.401   0.598   9.325 -0.4628  0.2771 -2.4910
   72SLPC  C216 6318   6.245   0.726   9.233  0.1623  0.6810  0.1472
   72SLPC  H16R 6319   6.270   0.743   9.126 -1.8017 -1.7084 -0.7531
   72SLPC  H16S 6320   6.192   0.812   9.279  2.4196  1.1135  2.0376
   72SLPC  C217 6321   6.139   0.617   9.244  0.2316  0.1595  0.6722
   72SLPC  H17R 6322   6.168   0.532   9.179 -0.9552 -0.9286  1.5565
   72SLPC  H17S 6323   6.043   0.658   9.206 -0.0405 -0.1785  1.0026
   72SLPC  C218 6324   6.122   0.572   9.389 -0.7461 -0.1586 -0.3949
   72SLPC  H18R 6325   6.209   0.516   9.429 -0.0584  1.2811  0.1403
   72SLPC  H18S 6326   6.032   0.507   9.396 -2.1475  2.0760  3.2756
   72SLPC  H18T 6327   6.104   0.665   9.447 -0.7591  0.1079 -0.8214
   72SLPC   C33 6328   6.277   1.352   9.939  0.0655 -0.3735  0.3362
   72SLPC   H3X 6329   6.301   1.303   9.842 -1.5110  0.4994 -0.5230
   72SLPC   H3Y 6330   6.339   1.439   9.970  0.7951 -0.3287 -1.1747
   72SLPC   C34 6331   6.137   1.415   9.908 -0.9745 -0.0729  0.1909
   72SLPC   H4X 6332   6.110   1.472   9.999 -0.5727 -0.7353  0.7285
   72SLPC   H4Y 6333   6.061   1.336   9.887 -1.0029 -0.5081  1.8654
   72SLPC   C35 6334   6.148   1.502   9.785  0.0618 -0.1043 -0.5689
   72SLPC   H5X 6335   6.213   1.451   9.711 -0.3421  1.9085 -2.3538
   72SLPC   H5Y 6336   6.185   1.605   9.800  1.5064 -0.5102 -1.2586
   72SLPC   C36 6337   6.018   1.506   9.699  0.3471 -0.2687  0.1347
   72SLPC   H6X 6338   5.935   1.552   9.756 -0.7263 -1.0177 -0.7968
   72SLPC   H6Y 6339   5.979   1.403   9.688 -0.6505  0.0432  0.6653
   72SLPC   C37 6340   6.030   1.586   9.566  0.3754  0.8699  0.5629
   72SLPC   H7X 6341   6.131   1.564   9.526  0.5700  1.3125  0.8033
   72SLPC   H7Y 6342   6.046   1.696   9.574  1.1118  1.0227 -2.5535
   72SLPC   C38 6343   5.916   1.547   9.469 -0.3482  0.5949 -0.6660
   72SLPC   H8X 6344   5.830   1.606   9.508  0.1668  0.2071  1.0992
   72SLPC   H8Y 6345   5.890   1.439   9.476  0.3402  0.5565  1.8347
   72SLPC   C39 6346   5.946   1.594   9.324  0.4853  0.6399 -0.5232
   72SLPC   H9X 6347   6.004   1.507   9.287  4.1059  1.1716  3.3919
   72SLPC   H9Y 6348   6.007   1.687   9.323  0.8201  0.5001  1.9399
   72SLPC  C310 6349   5.821   1.619   9.247 -0.3385 -0.0535  0.0502
   72SLPC  H10X 6350   5.760   1.704   9.285 -0.1630 -0.7959  2.0819
   72SLPC  H10Y 6351   5.753   1.532   9.258  0.0002 -0.5642 -1.7355
   72SLPC  C311 6352   5.832   1.633   9.091  0.0616  0.6008  0.1881
   72SLPC  H11X 6353   5.735   1.603   9.045 -1.3195  1.4418  2.4626
   72SLPC  H11Y 6354   5.899   1.554   9.051 -0.4160  0.2589  0.0569
   72SLPC  C312 6355   5.866   1.775   9.045  0.5382 -0.3326 -0.3367
   72SLPC  H12X 6356   5.939   1.827   9.110 -0.0674  1.7155 -1.2567
   72SLPC  H12Y 6357   5.775   1.834   9.066 -0.1760 -1.7027  0.5239
   72SLPC  C313 6358   5.911   1.781   8.898 -0.3753  0.3321  0.9187
   72SLPC  H13X 6359   5.854   1.701   8.846  0.9355 -0.9363  1.4153
   72SLPC  H13Y 6360   6.016   1.747   8.888 -0.6574 -0.0986 -0.5602
   72SLPC  C314 6361   5.885   1.925   8.839  0.3994 -0.6317 -0.5842
   72SLPC  H14X 6362   5.935   1.999   8.906  0.4171 -1.8070  0.7245
   72SLPC  H14Y 6363   5.776   1.949   8.849  0.9223  1.8424 -0.5035
   72SLPC  C315 6364   5.933   1.956   8.701 -0.5484  0.0612  0.0369
   72SLPC  H15X 6365   5.881   2.044   8.659  1.2036  1.4329  0.6400
   72SLPC  H15Y 6366   5.912   1.874   8.629  0.1380 -0.8596  0.8590
   72SLPC  C316 6367   6.082   1.984   8.681 -0.4027 -0.3327 -0.2065
   72SLPC  H16X 6368   6.146   1.894   8.698  0.4793  0.3688  0.2232
   72SLPC  H16Y 6369   6.112   2.064   8.752  2.3916 -0.3664 -1.2636
   72SLPC  C317 6370   6.115   2.032   8.537  0.4365 -0.1987 -0.0855
   72SLPC  H17X 6371   6.223   2.055   8.547  0.8525 -2.6355  1.6691
   72SLPC  H17Y 6372   6.047   2.117   8.514  0.3016 -0.9599 -2.6450
   72SLPC  C318 6373   6.079   1.930   8.430  0.1015  0.2790  0.4022
   72SLPC  H18X 6374   6.103   1.965   8.327 -0.6288 -0.6875 -0.1000
   72SLPC  H18Y 6375   5.971   1.906   8.429  0.1507  0.0662 -0.1810
   72SLPC  H18Z 6376   6.133   1.834   8.444 -0.5193  0.0452  1.2256
   73SLPC     N 6377   6.105   5.597  11.127 -0.9009 -0.2753  0.1068
   73SLPC   C13 6378   5.987   5.685  11.155 -0.4034  0.5558  0.0250
   73SLPC  H13A 6379   5.983   5.753  11.072  0.4957 -0.0278 -0.5084
   73SLPC  H13B 6380   5.891   5.636  11.158 -0.0158 -0.2257 -0.3358
   73SLPC  H13C 6381   6.003   5.746  11.242  2.0858 -0.0794  0.0429
   73SLPC   C14 6382   6.071   5.494  11.023  0.1705  0.1490 -0.0594
   73SLPC  H14A 6383   6.036   5.557  10.942 -0.1271 -0.6110 -0.5249
   73SLPC  H14B 6384   6.157   5.444  10.980  0.5524  1.0971 -0.4361
   73SLPC  H14C 6385   6.006   5.417  11.061  1.6246  0.5285  3.3047
   73SLPC   C15 6386   6.157   5.530  11.251  0.7270 -0.4350  0.3730
   73SLPC  H15A 6387   6.070   5.493  11.304 -0.0952  1.7229  0.5709
   73SLPC  H15B 6388   6.230   5.451  11.237 -0.1838 -1.6538  2.2562
   73SLPC  H15C 6389   6.186   5.602  11.326 -0.8855 -0.1415  0.7401
   73SLPC   C12 6390   6.216   5.690  11.067  0.1994  0.4306  0.1875
   73SLPC  H12A 6391   6.314   5.645  11.078 -0.5687 -1.6087 -0.9693
   73SLPC  H12B 6392   6.211   5.782  11.122 -3.2108  1.2508 -1.3392
   73SLPC   C11 6393   6.194   5.738  10.920  0.2833 -0.8359  0.0134
   73SLPC  H11A 6394   6.199   5.652  10.850  0.8892 -1.8412  1.2638
   73SLPC  H11B 6395   6.281   5.804  10.898  2.8797 -2.7827  3.7570
   73SLPC     P 6396   5.962   5.794  10.794  0.5422  0.0480 -0.3198
   73SLPC   O13 6397   5.902   5.662  10.795  0.1010 -0.5401  0.2069
   73SLPC   O14 6398   5.881   5.912  10.804  0.2261 -0.0481 -0.2068
   73SLPC   O12 6399   6.068   5.803  10.913 -0.3293  0.2365 -0.5836
   73SLPC   O11 6400   6.064   5.801  10.670  0.2938 -0.3546 -0.3086
   73SLPC    C1 6401   6.134   5.914  10.620  0.2930  0.5672 -0.5142
   73SLPC    HA 6402   6.198   5.954  10.702  2.0251 -0.8369 -1.1332
   73SLPC    HB 6403   6.202   5.880  10.539  1.1950  1.6762 -0.2469
   73SLPC    C2 6404   6.041   6.030  10.562 -0.4949 -0.3598  1.5960
   73SLPC    HS 6405   5.999   6.076  10.654 -2.1919 -1.0902  1.2070
   73SLPC   O21 6406   5.943   5.974  10.481  0.1559  0.0873  0.4370
   73SLPC   C21 6407   5.818   6.018  10.506  0.2056 -0.1389 -0.0989
   73SLPC   O22 6408   5.788   6.107  10.580  0.3027  0.3322  0.0341
   73SLPC   C22 6409   5.713   5.927  10.431  0.1343 -0.3504  0.0250
   73SLPC   H2R 6410   5.763   5.839  10.385  0.3919 -0.9530  1.4453
   73SLPC   H2S 6411   5.642   5.894  10.510  0.6441  1.3127  1.2222
   73SLPC    C3 6412   6.117   6.141  10.479 -0.1182 -0.4044 -0.6385
   73SLPC    HX 6413   6.182   6.192  10.553  0.4823 -2.4139  0.2413
   73SLPC    HY 6414   6.041   6.210  10.437  0.8413  1.2321  0.2505
   73SLPC   O31 6415   6.214   6.090  10.384 -1.1660  0.4298  0.3227
   73SLPC   C31 6416   6.179   6.075  10.258  0.3483 -0.4905 -0.4167
   73SLPC   O32 6417   6.081   6.128  10.208  0.4642 -0.3752 -0.3921
   73SLPC   C32 6418   6.282   5.984  10.189  0.1775 -0.3954  0.5400
   73SLPC   H2X 6419   6.287   5.892  10.252  2.2278 -1.5466 -1.1847
   73SLPC   H2Y 6420   6.380   6.036  10.188 -1.6752  3.1799  0.1471
   73SLPC   C23 6421   5.633   6.021  10.334 -0.3826  0.2781 -0.2349
   73SLPC   H3R 6422   5.600   6.111  10.390 -2.3294 -1.8321  2.1700
   73SLPC   H3S 6423   5.537   5.975  10.301 -1.4017  1.1533  1.3917
   73SLPC   C24 6424   5.718   6.054  10.210 -0.8422 -0.8720 -0.5765
   73SLPC   H4R 6425   5.826   6.057  10.236 -1.2043  0.0807  0.8490
   73SLPC   H4S 6426   5.684   6.147  10.161  1.3112 -0.3708 -1.1551
   73SLPC   C25 6427   5.712   5.931  10.106  0.0428 -0.1716  0.9957
   73SLPC   H5R 6428   5.607   5.925  10.072  0.6823 -0.7689 -0.9146
   73SLPC   H5S 6429   5.744   5.837  10.156  0.2443 -0.0155  1.1639
   73SLPC   C26 6430   5.795   5.975   9.975 -0.2814 -0.1896 -0.0240
   73SLPC   H6R 6431   5.901   5.983  10.009 -0.1340  2.9111 -1.0475
   73SLPC   H6S 6432   5.758   6.069   9.930 -0.8892 -0.5396 -0.2620
   73SLPC   C27 6433   5.777   5.874   9.865  0.0413 -0.3494  0.2787
   73SLPC   H7R 6434   5.669   5.857   9.846 -0.0837 -0.6239  1.1967
   73SLPC   H7S 6435   5.819   5.779   9.905 -1.9073 -1.0901  0.6030
   73SLPC   C28 6436   5.839   5.904   9.735  0.3188  0.2955 -0.2413
   73SLPC   H8R 6437   5.793   6.002   9.712  0.0528  0.0738 -0.6596
   73SLPC   H8S 6438   5.795   5.837   9.658  0.7818 -2.1422  1.5628
   73SLPC   C29 6439   5.988   5.914   9.742 -0.2577  0.6720 -0.6021
   73SLPC   H9R 6440   6.040   5.903   9.838 -2.4965  4.7608  1.1801
   73SLPC  C210 6441   6.072   5.946   9.640  0.9319 -0.0735  0.8004
   73SLPC  H10R 6442   6.177   5.969   9.661  0.7574  1.4123  0.1545
   73SLPC  C211 6443   6.024   5.964   9.497  0.0854  0.3337  0.2381
   73SLPC  H11R 6444   6.082   6.042   9.443 -2.4070  2.2787  0.2432
   73SLPC  H11S 6445   5.915   5.988   9.501 -0.0187 -0.2077  0.7029
   73SLPC  C212 6446   6.033   5.831   9.417  0.8393  0.9782  0.7788
   73SLPC  H12R 6447   6.077   5.744   9.466  0.1447 -0.8745 -1.7750
   73SLPC  C213 6448   5.993   5.811   9.287  0.5411  0.4169  0.0177
   73SLPC  H13R 6449   6.025   5.722   9.231  1.6480 -0.1565  1.5362
   73SLPC  C214 6450   5.933   5.912   9.187  0.1667 -0.5583 -1.1062
   73SLPC  H14R 6451   5.934   6.013   9.233 -0.2407 -0.4654 -1.2933
   73SLPC  H14S 6452   5.834   5.883   9.145 -0.8282  1.9001 -0.5736
   73SLPC  C215 6453   6.005   5.925   9.053 -0.7396 -0.2640 -0.0350
   73SLPC  H15R 6454   6.109   5.964   9.062 -0.8793  0.1850 -0.3863
   73SLPC  H15S 6455   5.954   6.010   9.004 -1.2235 -1.0258 -0.8751
   73SLPC  C216 6456   6.022   5.795   8.975  0.3785  0.5481  0.4891
   73SLPC  H16R 6457   6.099   5.731   9.023 -0.3518 -0.1808  0.7130
   73SLPC  H16S 6458   6.055   5.806   8.869  1.9251 -0.5171  0.8468
   73SLPC  C217 6459   5.885   5.722   8.946 -0.6738  0.3938  0.3792
   73SLPC  H17R 6460   5.817   5.792   8.893 -0.1957  1.3042  0.9624
   73SLPC  H17S 6461   5.821   5.704   9.036 -2.3068  1.4311 -0.5483
   73SLPC  C218 6462   5.904   5.589   8.876 -0.0408 -0.2366 -0.2421
   73SLPC  H18R 6463   5.962   5.612   8.784  0.0531 -0.3021 -0.1998
   73SLPC  H18S 6464   5.805   5.541   8.860  0.1656 -0.5191 -0.6881
   73SLPC  H18T 6465   5.966   5.521   8.938  1.3259  0.7534 -0.5055
   73SLPC   C33 6466   6.238   5.949  10.051  0.2800 -0.2715 -0.3569
   73SLPC   H3X 6467   6.258   6.036   9.985 -0.2625  1.5407  1.8134
   73SLPC   H3Y 6468   6.128   5.935  10.037  0.4340 -0.4664 -1.4180
   73SLPC   C34 6469   6.308   5.830   9.998 -0.1867 -0.0748 -0.6911
   73SLPC   H4X 6470   6.283   5.808   9.892 -2.7999 -0.8102  0.0580
   73SLPC   H4Y 6471   6.281   5.740  10.056  0.4052  0.7933  0.9762
   73SLPC   C35 6472   6.466   5.844  10.002  0.3612 -0.6664 -0.0637
   73SLPC   H5X 6473   6.523   5.752   9.975 -1.2148 -1.8242  0.5367
   73SLPC   H5Y 6474   6.494   5.848  10.110  2.2312  0.0524 -0.5454
   73SLPC   C36 6475   6.522   5.964   9.925 -0.2911 -0.3393  0.9964
   73SLPC   H6X 6476   6.633   5.970   9.937 -0.3941 -0.6149  2.0746
   73SLPC   H6Y 6477   6.461   6.055   9.942 -0.6969 -0.7584  1.8275
   73SLPC   C37 6478   6.506   5.936   9.769  0.2392  0.5390  0.3738
   73SLPC   H7X 6479   6.415   5.988   9.731  0.8311  1.8656  0.7218
   73SLPC   H7Y 6480   6.494   5.831   9.735  1.7983  0.2218  0.7628
   73SLPC   C38 6481   6.626   5.984   9.690  0.1569 -0.0501 -0.9724
   73SLPC   H8X 6482   6.722   5.935   9.715  0.9304  1.8166 -0.1350
   73SLPC   H8Y 6483   6.634   6.094   9.709  0.5998  0.0709 -1.8441
   73SLPC   C39 6484   6.609   5.981   9.543  0.3973  0.6837 -0.1051
   73SLPC   H9X 6485   6.537   6.065   9.533 -0.3619  0.3670  2.3178
   73SLPC   H9Y 6486   6.568   5.883   9.510  2.2388 -0.3182  0.5025
   73SLPC  C310 6487   6.740   6.003   9.468 -0.1995  0.0548 -0.3730
   73SLPC  H10X 6488   6.806   5.913   9.473 -1.1492 -0.5735  1.1334
   73SLPC  H10Y 6489   6.793   6.091   9.509  0.9448 -0.0143 -1.6774
   73SLPC  C311 6490   6.718   6.038   9.322  0.0295 -0.3583  0.3026
   73SLPC  H11X 6491   6.814   6.031   9.266  0.8251 -1.2586  1.7502
   73SLPC  H11Y 6492   6.683   6.143   9.320  1.5214  0.2441  3.2791
   73SLPC  C312 6493   6.620   5.940   9.258 -0.1054  0.3897  0.4520
   73SLPC  H12X 6494   6.514   5.940   9.292 -0.2019  0.3238  0.1493
   73SLPC  H12Y 6495   6.662   5.841   9.285  2.0998  0.6906 -1.7239
   73SLPC  C313 6496   6.617   5.962   9.102 -0.1520  0.5272  0.2103
   73SLPC  H13X 6497   6.716   5.941   9.057 -0.2641 -0.9809  0.6215
   73SLPC  H13Y 6498   6.583   6.067   9.089 -2.0287 -0.2361 -1.2854
   73SLPC  C314 6499   6.503   5.876   9.035 -0.3064  0.1702 -0.4096
   73SLPC  H14X 6500   6.411   5.920   9.078  1.6824  1.1111  3.1350
   73SLPC  H14Y 6501   6.519   5.773   9.073 -0.6791 -0.2774 -1.4785
   73SLPC  C315 6502   6.499   5.886   8.890  1.0650 -0.5388  0.0628
   73SLPC  H15X 6503   6.601   5.871   8.849  0.8124  1.5982 -1.3967
   73SLPC  H15Y 6504   6.466   5.991   8.877 -1.3773 -1.1124  1.3296
   73SLPC  C316 6505   6.405   5.788   8.820  0.9310  0.0530  0.1641
   73SLPC  H16X 6506   6.304   5.806   8.861  0.6089 -0.3006 -0.4733
   73SLPC  H16Y 6507   6.420   5.681   8.847  0.7094  0.0332  0.2074
   73SLPC  C317 6508   6.398   5.810   8.666  0.7044 -0.3825  0.6172
   73SLPC  H17X 6509   6.477   5.741   8.628 -0.3290 -0.6623 -1.0624
   73SLPC  H17Y 6510   6.433   5.913   8.645 -0.5643  0.1507  1.1465
   73SLPC  C318 6511   6.257   5.775   8.602  0.4129  0.1781  0.0374
   73SLPC  H18X 6512   6.214   5.678   8.635  0.2214 -0.0907 -0.9998
   73SLPC  H18Y 6513   6.269   5.773   8.492  1.5517 -1.5911  0.1675
   73SLPC  H18Z 6514   6.178   5.847   8.633 -1.4878  0.2878 -4.7093
   74SLPC     N 6515   0.090   1.630  10.649  0.7189  0.0044  0.1673
   74SLPC   C13 6516   0.032   1.496  10.682  0.0315 -0.1782  0.1565
   74SLPC  H13A 6517   0.030   1.421  10.604  1.2254  0.4804 -0.5278
   74SLPC  H13B 6518   0.080   1.461  10.773 -0.7365 -1.5167  0.0578
   74SLPC  H13C 6519  -0.072   1.513  10.702  0.3311 -0.6553  2.2488
   74SLPC   C14 6520   0.106   1.709  10.775  0.5717 -0.3996  0.5478
   74SLPC  H14A 6521   0.161   1.653  10.848 -2.0472 -0.2318  2.7362
   74SLPC  H14B 6522   0.158   1.803  10.761  0.8603 -0.6383 -0.0121
   74SLPC  H14C 6523   0.015   1.732  10.829  1.0908 -1.1437  1.7564
   74SLPC   C15 6524  -0.009   1.687  10.555  0.5281 -0.2329  0.3185
   74SLPC  H15A 6525   0.023   1.651  10.459  1.8482 -1.9091  1.3458
   74SLPC  H15B 6526  -0.108   1.646  10.570 -0.4447  2.2065  0.8487
   74SLPC  H15C 6527  -0.005   1.794  10.564 -0.7886  0.0727 -2.3310
   74SLPC   C12 6528   0.217   1.614  10.571 -0.2982  0.4483  0.3549
   74SLPC  H12A 6529   0.303   1.596  10.633  0.1258 -2.4692 -0.9835
   74SLPC  H12B 6530   0.247   1.712  10.537  0.4953  0.4148  0.9648
   74SLPC   C11 6531   0.224   1.514  10.450  0.1024 -0.2122 -0.9498
   74SLPC  H11A 6532   0.318   1.530  10.394  2.6112  1.2723  3.3937
   74SLPC  H11B 6533   0.146   1.535  10.374  0.4367  0.0373 -1.2236
   74SLPC     P 6534   0.325   1.300  10.571  0.2664 -0.2375  0.1526
   74SLPC   O13 6535   0.397   1.395  10.654  0.7152  0.0728 -0.9670
   74SLPC   O14 6536   0.278   1.181  10.639  0.0140 -0.0331  0.3045
   74SLPC   O12 6537   0.209   1.377  10.504  0.3638 -0.1179  0.9938
   74SLPC   O11 6538   0.419   1.256  10.451  0.5806  0.8368  0.0531
   74SLPC    C1 6539   0.364   1.177  10.340 -0.0435 -0.0317 -0.3559
   74SLPC    HA 6540   0.372   1.067  10.354  2.4710  0.3142  1.2713
   74SLPC    HB 6541   0.259   1.203  10.314 -0.1007  0.4607  0.3652
   74SLPC    C2 6542   0.444   1.210  10.208 -0.3005  0.4950 -0.4333
   74SLPC    HS 6543   0.541   1.158  10.223 -0.5011 -0.1302 -1.2507
   74SLPC   O21 6544   0.464   1.350  10.208  0.3164 -0.5050  0.0046
   74SLPC   C21 6545   0.585   1.400  10.216  0.5808  0.4209 -0.5152
   74SLPC   O22 6546   0.689   1.339  10.246 -0.0375  0.3141 -0.5909
   74SLPC   C22 6547   0.577   1.550  10.199 -0.2416 -0.8773 -0.4363
   74SLPC   H2R 6548   0.476   1.588  10.175  0.1203  0.8406  0.6228
   74SLPC   H2S 6549   0.604   1.602  10.294  0.8495 -0.3933 -0.9900
   74SLPC    C3 6550   0.382   1.160  10.080 -0.4015  0.2937  0.0094
   74SLPC    HX 6551   0.298   1.231  10.063 -0.6239  0.2288  0.8317
   74SLPC    HY 6552   0.346   1.056  10.095  0.6353  0.1170  1.3884
   74SLPC   O31 6553   0.482   1.168   9.972 -0.1410 -0.2870 -0.0570
   74SLPC   C31 6554   0.578   1.077   9.969  0.1482  0.2287  0.3072
   74SLPC   O32 6555   0.577   0.974  10.030  0.5066  0.1148  0.4736
   74SLPC   C32 6556   0.685   1.120   9.874  0.1186  0.1595  0.0250
   74SLPC   H2X 6557   0.759   1.039   9.857 -0.9294 -0.9060  0.4534
   74SLPC   H2Y 6558   0.732   1.215   9.907 -1.6490  0.7284  0.9810
   74SLPC   C23 6559   0.674   1.604  10.095 -0.1895 -0.3773  0.1205
   74SLPC   H3R 6560   0.778   1.572  10.116 -0.4721 -2.3047 -1.3163
   74SLPC   H3S 6561   0.666   1.714  10.103  0.8172 -0.3607  0.9378
   74SLPC   C24 6562   0.644   1.572   9.951  0.7624  0.5124  0.5468
   74SLPC   H4R 6563   0.534   1.575   9.935  0.8764 -1.8493 -0.8385
   74SLPC   H4S 6564   0.673   1.468   9.925 -0.7483  0.2603 -0.1787
   74SLPC   C25 6565   0.702   1.660   9.843 -0.5041  0.6330  0.6822
   74SLPC   H5R 6566   0.811   1.672   9.860 -0.2026  0.6659 -1.2659
   74SLPC   H5S 6567   0.648   1.756   9.853 -0.2507  1.0803 -2.0992
   74SLPC   C26 6568   0.673   1.623   9.695 -0.4105  0.2723  0.6395
   74SLPC   H6R 6569   0.567   1.647   9.673 -0.5498  0.7007  1.7535
   74SLPC   H6S 6570   0.685   1.514   9.681 -3.4522  0.0679 -0.8261
   74SLPC   C27 6571   0.771   1.691   9.598 -0.1306  0.5058  0.3356
   74SLPC   H7R 6572   0.872   1.647   9.616 -0.5662 -0.0869  1.3324
   74SLPC   H7S 6573   0.782   1.795   9.635  0.1145 -0.1114  2.0508
   74SLPC   C28 6574   0.724   1.666   9.451 -0.0825 -0.0464 -0.4291
   74SLPC   H8R 6575   0.622   1.699   9.421 -0.3535  0.5560  1.1345
   74SLPC   H8S 6576   0.712   1.559   9.422  0.9883 -0.3007  0.0485
   74SLPC   C29 6577   0.824   1.731   9.362 -0.2527 -0.0278  0.2476
   74SLPC   H9R 6578   0.893   1.800   9.412  0.3369 -2.1238  2.4378
   74SLPC  C210 6579   0.834   1.710   9.229  0.7933  0.4007  0.7185
   74SLPC  H10R 6580   0.903   1.784   9.185 -0.7253  2.0269  1.0277
   74SLPC  C211 6581   0.748   1.626   9.141  0.5613 -0.1281 -0.3226
   74SLPC  H11R 6582   0.693   1.546   9.196 -0.2846  1.2785  0.9128
   74SLPC  H11S 6583   0.812   1.567   9.072 -0.2401 -1.0282 -0.3094
   74SLPC  C212 6584   0.644   1.702   9.058  0.3735  0.5483 -0.8735
   74SLPC  H12R 6585   0.573   1.758   9.121  1.3264  0.6923  0.0934
   74SLPC  C213 6586   0.647   1.706   8.920  0.3610  0.3391  0.3109
   74SLPC  H13R 6587   0.569   1.773   8.879  1.1730  0.2075 -1.5212
   74SLPC  C214 6588   0.738   1.638   8.816 -0.4193  0.5198  0.1525
   74SLPC  H14R 6589   0.828   1.605   8.873 -0.5308  0.1104  0.0968
   74SLPC  H14S 6590   0.789   1.710   8.749  1.4022 -2.5034 -1.8352
   74SLPC  C215 6591   0.676   1.526   8.728  0.7501  0.3937  0.5753
   74SLPC  H15R 6592   0.566   1.538   8.717  0.8885  0.9857 -0.2728
   74SLPC  H15S 6593   0.706   1.429   8.771  1.8441 -0.7649 -2.6338
   74SLPC  C216 6594   0.733   1.528   8.584  0.1481 -0.8772 -1.0730
   74SLPC  H16R 6595   0.844   1.542   8.587 -0.0059  0.2207 -0.3018
   74SLPC  H16S 6596   0.708   1.622   8.530 -0.6163 -0.8373 -0.6395
   74SLPC  C217 6597   0.691   1.417   8.490 -0.3533  0.5186 -0.0382
   74SLPC  H17R 6598   0.582   1.431   8.474 -0.5750  0.8029  1.5642
   74SLPC  H17S 6599   0.703   1.323   8.548 -2.6757  1.2116  1.6513
   74SLPC  C218 6600   0.784   1.413   8.364  0.4591  0.0215 -0.1648
   74SLPC  H18R 6601   0.887   1.446   8.387  0.8299  1.3094 -3.4000
   74SLPC  H18S 6602   0.731   1.476   8.288 -1.0835 -0.2149  0.6900
   74SLPC  H18T 6603   0.786   1.312   8.318 -0.7934 -0.6104  1.1553
   74SLPC   C33 6604   0.635   1.155   9.731 -0.0283  0.4757 -0.1357
   74SLPC   H3X 6605   0.570   1.244   9.744  0.3356  0.5690  1.1513
   74SLPC   H3Y 6606   0.570   1.075   9.690 -0.2479  0.5220  0.1214
   74SLPC   C34 6607   0.747   1.197   9.638 -0.7014 -0.2789  0.6964
   74SLPC   H4X 6608   0.822   1.115   9.633  0.3710  0.7894 -1.3042
   74SLPC   H4Y 6609   0.796   1.290   9.674 -2.6910  0.9900  0.1885
   74SLPC   C35 6610   0.705   1.222   9.499  0.3660 -0.2812 -0.3872
   74SLPC   H5X 6611   0.648   1.317   9.486 -3.2972 -2.2342  0.9543
   74SLPC   H5Y 6612   0.639   1.139   9.465 -0.5797  1.0445 -1.8620
   74SLPC   C36 6613   0.829   1.236   9.412  0.0966 -0.1039  0.1511
   74SLPC   H6X 6614   0.880   1.138   9.420  2.1215  0.7512 -1.9631
   74SLPC   H6Y 6615   0.886   1.323   9.451  1.3040  0.0871 -1.9824
   74SLPC   C37 6616   0.796   1.251   9.263  0.0402  0.2756  0.5989
   74SLPC   H7X 6617   0.749   1.348   9.235 -1.4595 -0.5003  0.3562
   74SLPC   H7Y 6618   0.726   1.168   9.238 -1.5012  0.9736  2.4619
   74SLPC   C38 6619   0.918   1.233   9.172  1.2229 -0.0234 -0.9959
   74SLPC   H8X 6620   0.942   1.125   9.163  0.4163 -0.1490 -1.6938
   74SLPC   H8Y 6621   1.011   1.287   9.200  1.2408 -1.0050  0.9279
   74SLPC   C39 6622   0.878   1.271   9.028 -0.3813  0.2525 -0.2491
   74SLPC   H9X 6623   0.841   1.376   9.019 -1.2708  0.0761  1.2282
   74SLPC   H9Y 6624   0.806   1.197   8.987 -0.8894  0.8653 -0.4859
   74SLPC  C310 6625   0.998   1.252   8.938 -0.4878  0.5905  0.3327
   74SLPC  H10X 6626   1.036   1.148   8.951  0.1436  0.7478 -0.2005
   74SLPC  H10Y 6627   1.077   1.318   8.981  1.0374 -0.9058 -0.1273
   74SLPC  C311 6628   0.975   1.270   8.788  0.0824 -0.2834 -0.2179
   74SLPC  H11X 6629   0.922   1.366   8.770  2.1847  0.9372 -0.1021
   74SLPC  H11Y 6630   0.908   1.200   8.734  1.6860 -3.5465  1.8734
   74SLPC  C312 6631   1.100   1.260   8.703 -0.4503 -0.7494 -0.1653
   74SLPC  H12X 6632   1.141   1.157   8.703 -2.5032 -1.6133  1.0614
   74SLPC  H12Y 6633   1.178   1.329   8.741  0.1432  0.2921 -3.0983
   74SLPC  C313 6634   1.060   1.310   8.564 -0.6503 -0.5534  0.4738
   74SLPC  H13X 6635   1.025   1.416   8.562  0.9177 -0.0076  0.9762
   74SLPC  H13Y 6636   0.968   1.256   8.535  0.6077 -2.8008  0.6021
   74SLPC  C314 6637   1.165   1.282   8.450  0.0246 -0.0133 -0.1184
   74SLPC  H14X 6638   1.205   1.179   8.466  2.7724  1.0641  0.2234
   74SLPC  H14Y 6639   1.260   1.339   8.461  0.8348 -1.7404  2.1430
   74SLPC  C315 6640   1.104   1.289   8.306 -0.2354 -0.0880 -0.3116
   74SLPC  H15X 6641   1.072   1.393   8.284 -4.8620 -1.1335  1.0873
   74SLPC  H15Y 6642   1.023   1.214   8.300  0.4309 -1.0031  1.8795
   74SLPC  C316 6643   1.210   1.245   8.199 -1.0907 -0.5512 -0.8679
   74SLPC  H16X 6644   1.249   1.146   8.233  0.6107  0.7605  1.1496
   74SLPC  H16Y 6645   1.301   1.308   8.205 -0.2313 -1.8502  0.0833
   74SLPC  C317 6646   1.174   1.240   8.051  0.4805  0.2699 -0.4562
   74SLPC  H17X 6647   1.079   1.183   8.047  0.8317 -0.3574  0.0367
   74SLPC  H17Y 6648   1.257   1.183   8.003  1.0078  0.9037 -0.3018
   74SLPC  C318 6649   1.168   1.380   7.988  0.4603 -1.0591  0.6966
   74SLPC  H18X 6650   1.244   1.451   8.028  1.0002 -1.1227 -0.2090
   74SLPC  H18Y 6651   1.077   1.436   8.017  1.0451  0.2639  0.0201
   74SLPC  H18Z 6652   1.177   1.380   7.877 -0.4429  0.4475  0.6035
   75SLPC     N 6653   5.101   4.631   6.054  0.6428 -0.7735 -0.4926
   75SLPC   C13 6654   4.967   4.613   5.997  0.2497  0.0601  0.3076
   75SLPC  H13A 6655   4.903   4.643   6.079 -0.6118 -0.2858 -0.2228
   75SLPC  H13B 6656   4.955   4.677   5.911  1.4638 -0.5635 -0.3290
   75SLPC  H13C 6657   4.960   4.509   5.971  1.5248  0.0263  0.1057
   75SLPC   C14 6658   5.109   4.776   6.092  0.8408 -0.3300  0.5234
   75SLPC  H14A 6659   5.035   4.792   6.169 -0.0316  0.3843 -0.4405
   75SLPC  H14B 6660   5.199   4.802   6.145  2.2954 -2.2430 -0.9335
   75SLPC  H14C 6661   5.096   4.834   6.002  0.8903 -0.1347  0.6441
   75SLPC   C15 6662   5.201   4.607   5.947 -0.6748 -0.2867  0.4968
   75SLPC  H15A 6663   5.173   4.520   5.890 -0.5819  1.0804 -1.6813
   75SLPC  H15B 6664   5.209   4.700   5.893 -0.0650 -0.3737  0.4311
   75SLPC  H15C 6665   5.299   4.584   5.985 -0.8696 -0.0483  1.1497
   75SLPC   C12 6666   5.124   4.536   6.169 -0.0813 -0.4107 -0.0501
   75SLPC  H12A 6667   5.222   4.567   6.202 -0.5065  2.1152 -1.0740
   75SLPC  H12B 6668   5.134   4.435   6.132 -1.5049 -0.2581 -0.9002
   75SLPC   C11 6669   5.029   4.526   6.290 -0.4834  0.6210  0.2490
   75SLPC  H11A 6670   5.081   4.463   6.366 -0.1049  0.8360  0.1700
   75SLPC  H11B 6671   4.940   4.463   6.267 -0.2345 -0.8577  3.0526
   75SLPC     P 6672   5.058   4.716   6.469  0.0365 -0.0419  0.0701
   75SLPC   O13 6673   5.200   4.746   6.446 -0.0458  0.7580 -0.2629
   75SLPC   O14 6674   4.983   4.827   6.522  0.4120  0.0544 -0.0203
   75SLPC   O12 6675   4.986   4.653   6.342  0.6373 -0.4555 -0.0032
   75SLPC   O11 6676   5.054   4.603   6.578 -0.8680 -0.1572  0.1367
   75SLPC    C1 6677   4.939   4.593   6.661 -0.1417  0.3088  0.4478
   75SLPC    HA 6678   4.850   4.646   6.621  0.8522 -0.5454 -3.0048
   75SLPC    HB 6679   4.918   4.484   6.665 -1.3458  0.5566  1.3443
   75SLPC    C2 6680   4.967   4.655   6.799 -0.2105  0.2881  0.5531
   75SLPC    HS 6681   4.987   4.763   6.781 -0.1429  0.0649 -0.8129
   75SLPC   O21 6682   5.075   4.593   6.862 -0.5576  0.2262  0.1785
   75SLPC   C21 6683   5.153   4.666   6.946  0.4127 -0.7005  0.1076
   75SLPC   O22 6684   5.152   4.788   6.967 -0.1273 -0.5445  0.2123
   75SLPC   C22 6685   5.248   4.568   7.014  0.2142 -0.3328  0.7222
   75SLPC   H2R 6686   5.196   4.471   7.032 -1.1457  0.7004  2.4992
   75SLPC   H2S 6687   5.329   4.550   6.939 -2.3273 -0.3332 -2.1341
   75SLPC    C3 6688   4.847   4.626   6.885 -0.2805 -0.0820 -0.2965
   75SLPC    HX 6689   4.844   4.515   6.885  1.5651 -0.1570  1.2949
   75SLPC    HY 6690   4.759   4.669   6.832  0.9489  1.6120 -0.9956
   75SLPC   O31 6691   4.860   4.671   7.020  0.5548 -0.0591 -0.5555
   75SLPC   C31 6692   4.823   4.796   7.043 -0.2262  0.3816 -0.1664
   75SLPC   O32 6693   4.777   4.869   6.954  0.5288 -0.1477 -0.5159
   75SLPC   C32 6694   4.852   4.823   7.188  0.2556 -0.2675 -0.1292
   75SLPC   H2X 6695   4.810   4.924   7.211  2.5490  1.1211 -1.7152
   75SLPC   H2Y 6696   4.962   4.833   7.177  0.3595  0.5925  1.5929
   75SLPC   C23 6697   5.309   4.621   7.145 -0.0979  0.4148  0.1248
   75SLPC   H3R 6698   5.315   4.731   7.128  0.0698  0.3745 -0.0721
   75SLPC   H3S 6699   5.406   4.574   7.173 -1.5025 -2.2248  0.7436
   75SLPC   C24 6700   5.223   4.607   7.271 -0.6333 -0.4102  0.8549
   75SLPC   H4R 6701   5.184   4.502   7.270  1.4973 -1.2155 -0.2809
   75SLPC   H4S 6702   5.134   4.674   7.272  1.0603  1.9166 -0.9704
   75SLPC   C25 6703   5.307   4.627   7.393 -0.8006 -0.4589 -0.3109
   75SLPC   H5R 6704   5.348   4.730   7.397  0.4886 -1.0075  1.4624
   75SLPC   H5S 6705   5.396   4.561   7.395  0.6694  1.4417 -1.6746
   75SLPC   C26 6706   5.231   4.613   7.528 -0.0440  0.4482 -0.6416
   75SLPC   H6R 6707   5.177   4.517   7.525  1.4032 -0.3691 -1.0830
   75SLPC   H6S 6708   5.151   4.690   7.534  0.3488  0.8433 -0.3835
   75SLPC   C27 6709   5.315   4.618   7.654  0.0858 -0.2658  0.1596
   75SLPC   H7R 6710   5.354   4.722   7.662 -2.2981  0.8128 -1.5996
   75SLPC   H7S 6711   5.408   4.559   7.640 -1.0234 -2.2591  0.9809
   75SLPC   C28 6712   5.236   4.586   7.786 -0.2808  0.0277  0.0431
   75SLPC   H8R 6713   5.147   4.652   7.774 -0.7902 -0.3402  1.6504
   75SLPC   H8S 6714   5.285   4.635   7.872 -0.0081  0.4810 -0.3707
   75SLPC   C29 6715   5.183   4.445   7.786  0.2562 -0.2330  0.0619
   75SLPC   H9R 6716   5.092   4.451   7.726 -0.0196  1.4417  0.6244
   75SLPC  C210 6717   5.236   4.341   7.849  0.0027  0.4398  0.4425
   75SLPC  H10R 6718   5.186   4.244   7.858 -2.0707  1.3804 -0.5265
   75SLPC  C211 6719   5.366   4.355   7.930  0.0618 -0.2178 -0.4237
   75SLPC  H11R 6720   5.370   4.455   7.978  0.2395  1.2662 -3.4779
   75SLPC  H11S 6721   5.454   4.358   7.862 -0.6477  0.7166 -1.3052
   75SLPC  C212 6722   5.391   4.268   8.046 -0.3186  0.2197  0.0205
   75SLPC  H12R 6723   5.324   4.181   8.055  0.9853 -0.8947 -0.7976
   75SLPC  C213 6724   5.499   4.287   8.127  0.1321  0.5567 -0.1659
   75SLPC  H13R 6725   5.504   4.211   8.207 -1.3956  0.8577  0.2292
   75SLPC  C214 6726   5.613   4.381   8.120 -0.1507  0.0224  0.6773
   75SLPC  H14R 6727   5.595   4.466   8.052 -0.4507  0.3209  1.1251
   75SLPC  H14S 6728   5.705   4.325   8.093 -1.5602 -1.1621 -1.8184
   75SLPC  C215 6729   5.635   4.430   8.260 -0.2674  0.1370 -0.3920
   75SLPC  H15R 6730   5.632   4.348   8.335 -1.4382 -0.1442 -0.7387
   75SLPC  H15S 6731   5.569   4.515   8.287 -1.2786 -0.7066 -0.1612
   75SLPC  C216 6732   5.778   4.480   8.270 -0.1564 -0.0738 -0.1337
   75SLPC  H16R 6733   5.789   4.573   8.211  1.2436 -2.1054 -3.2315
   75SLPC  H16S 6734   5.858   4.411   8.236  0.6264  1.2046 -0.9454
   75SLPC  C217 6735   5.819   4.515   8.413  0.4521  0.2035  0.1180
   75SLPC  H17R 6736   5.831   4.416   8.461  4.4500 -0.6712 -2.4173
   75SLPC  H17S 6737   5.745   4.579   8.467  1.4821  0.4059  1.2992
   75SLPC  C218 6738   5.956   4.576   8.436  0.2976  0.1057  0.1573
   75SLPC  H18R 6739   5.963   4.610   8.541  0.1778 -0.4891  0.3581
   75SLPC  H18S 6740   5.959   4.662   8.365  0.2968 -0.1105 -0.1072
   75SLPC  H18T 6741   6.038   4.508   8.405  1.0593  1.5878 -1.1589
   75SLPC   C33 6742   4.803   4.701   7.273 -0.0806  0.0429  0.2301
   75SLPC   H3X 6743   4.694   4.702   7.255 -0.1512 -1.7987  0.4468
   75SLPC   H3Y 6744   4.844   4.607   7.229  0.5984 -0.0717  1.0909
   75SLPC   C34 6745   4.851   4.718   7.423  0.4851 -0.3007 -0.0648
   75SLPC   H4X 6746   4.962   4.712   7.421  0.5243 -0.8230  2.7012
   75SLPC   H4Y 6747   4.809   4.634   7.482 -2.4884  1.1743  0.0420
   75SLPC   C35 6748   4.806   4.842   7.499  0.3045 -0.1763 -0.2469
   75SLPC   H5X 6749   4.696   4.850   7.488 -0.0916 -1.6013  2.3826
   75SLPC   H5Y 6750   4.861   4.934   7.468 -0.1535  0.4179  0.6885
   75SLPC   C36 6751   4.843   4.825   7.645  0.4429 -0.1839  0.5544
   75SLPC   H6X 6752   4.851   4.923   7.696  1.7452  0.4248 -0.7762
   75SLPC   H6Y 6753   4.942   4.775   7.653  0.0761 -0.8295  1.1072
   75SLPC   C37 6754   4.741   4.738   7.727 -0.3659  0.3981 -0.5947
   75SLPC   H7X 6755   4.705   4.651   7.668  2.3227 -0.8576 -0.4413
   75SLPC   H7Y 6756   4.649   4.799   7.742 -1.0221 -1.0031  1.2585
   75SLPC   C38 6757   4.794   4.674   7.850 -0.2518 -0.5301  0.4909
   75SLPC   H8X 6758   4.891   4.623   7.830  0.7400 -0.5335  4.8127
   75SLPC   H8Y 6759   4.724   4.595   7.884 -0.5219 -1.4766 -2.1485
   75SLPC   C39 6760   4.817   4.772   7.965 -0.8141  0.1656  0.1339
   75SLPC   H9X 6761   4.736   4.848   7.959 -1.5505 -0.7206 -1.1440
   75SLPC   H9Y 6762   4.899   4.844   7.942 -2.0019  1.7356  0.7380
   75SLPC  C310 6763   4.829   4.711   8.103 -0.1928  0.0655  0.0378
   75SLPC  H10X 6764   4.917   4.643   8.100  0.7097  1.1413  1.6250
   75SLPC  H10Y 6765   4.735   4.654   8.121 -0.6356  0.7624 -0.0327
   75SLPC  C311 6766   4.855   4.822   8.201  0.0468 -0.0266 -0.3334
   75SLPC  H11X 6767   4.772   4.896   8.194 -1.2854 -1.4338  0.1666
   75SLPC  H11Y 6768   4.950   4.875   8.183 -0.1109 -0.6154 -3.0786
   75SLPC  C312 6769   4.874   4.770   8.354 -0.1536  0.9125  1.3059
   75SLPC  H12X 6770   4.950   4.831   8.405  1.6258 -0.7202  0.6682
   75SLPC  H12Y 6771   4.913   4.666   8.347 -0.3998  0.6606  3.3602
   75SLPC  C313 6772   4.744   4.779   8.440 -0.7733 -0.3957 -0.7554
   75SLPC  H13X 6773   4.667   4.715   8.392 -0.3351 -1.0009 -0.6591
   75SLPC  H13Y 6774   4.708   4.884   8.433 -1.4812 -0.5835 -0.0165
   75SLPC  C314 6775   4.760   4.733   8.587 -0.1688 -0.1957 -0.1179
   75SLPC  H14X 6776   4.835   4.801   8.634  1.1593 -1.7062 -0.0107
   75SLPC  H14Y 6777   4.800   4.630   8.593  0.5819  0.1238  0.3964
   75SLPC  C315 6778   4.626   4.729   8.656  0.7395 -0.4912  0.1384
   75SLPC  H15X 6779   4.585   4.831   8.640  1.3773  0.0495  1.8344
   75SLPC  H15Y 6780   4.641   4.722   8.766  3.1248 -0.2076 -0.1385
   75SLPC  C316 6781   4.516   4.620   8.610  0.1588  0.4299 -0.2171
   75SLPC  H16X 6782   4.567   4.527   8.642 -0.6405 -0.0655 -0.3983
   75SLPC  H16Y 6783   4.498   4.617   8.500  2.1312 -1.5187 -0.5156
   75SLPC  C317 6784   4.386   4.637   8.690  0.1255 -0.3301  0.3649
   75SLPC  H17X 6785   4.414   4.621   8.796  0.7908  0.6912  0.3445
   75SLPC  H17Y 6786   4.312   4.557   8.665  0.2562 -0.3425  0.0096
   75SLPC  C318 6787   4.308   4.771   8.667  0.4461 -0.1024  0.5113
   75SLPC  H18X 6788   4.221   4.757   8.735 -0.0115 -0.2650 -0.1015
   75SLPC  H18Y 6789   4.270   4.786   8.563  1.2045 -0.8527  0.1234
   75SLPC  H18Z 6790   4.368   4.856   8.704 -0.3440  1.2404 -1.2212
   76SLPC     N 6791   6.404   3.136   6.318  0.3293  0.0020 -0.3141
   76SLPC   C13 6792   6.373   3.279   6.277 -0.2907 -0.7888  1.6384
   76SLPC  H13A 6793   6.434   3.343   6.340 -0.0202  0.7383 -0.1397
   76SLPC  H13B 6794   6.385   3.300   6.172  0.2632 -0.5672  1.7457
   76SLPC  H13C 6795   6.271   3.299   6.307 -0.6410  1.3202 -0.7749
   76SLPC   C14 6796   6.291   3.055   6.265 -0.1858  0.0571 -0.0330
   76SLPC  H14A 6797   6.312   2.950   6.284  1.9226  0.3557 -0.5977
   76SLPC  H14B 6798   6.200   3.085   6.316 -1.3975 -2.6214 -0.5269
   76SLPC  H14C 6799   6.270   3.066   6.160 -0.6171 -0.8645 -0.0493
   76SLPC   C15 6800   6.408   3.132   6.470  0.2272  0.3416 -0.2977
   76SLPC  H15A 6801   6.491   3.192   6.503 -1.3150  2.4660 -0.1903
   76SLPC  H15B 6802   6.319   3.189   6.495  0.1187 -0.1065  0.3442
   76SLPC  H15C 6803   6.411   3.032   6.510 -0.7625  0.9537  1.3419
   76SLPC   C12 6804   6.534   3.088   6.262  0.7047 -1.0771 -0.3438
   76SLPC  H12A 6805   6.610   3.153   6.302  0.3270  0.0967 -1.5077
   76SLPC  H12B 6806   6.532   3.116   6.158 -0.5027 -0.7880 -0.2454
   76SLPC   C11 6807   6.561   2.938   6.286 -0.3786 -0.0485  0.0561
   76SLPC  H11A 6808   6.561   2.921   6.396  1.5687  1.6511  0.3354
   76SLPC  H11B 6809   6.661   2.923   6.242  0.6012  0.4287  2.0445
   76SLPC     P 6810   6.486   2.706   6.203 -0.1156 -0.0536 -0.0640
   76SLPC   O13 6811   6.358   2.658   6.148 -0.3680 -0.3715  0.0981
   76SLPC   O14 6812   6.602   2.696   6.110 -0.2457 -0.3240 -0.1171
   76SLPC   O12 6813   6.465   2.854   6.228 -0.2531  0.3450  0.0375
   76SLPC   O11 6814   6.516   2.643   6.346  0.0525 -0.3079 -0.5546
   76SLPC    C1 6815   6.406   2.633   6.442  0.2272  0.2474 -0.0067
   76SLPC    HA 6816   6.350   2.729   6.446 -0.0071  0.1555 -1.1986
   76SLPC    HB 6817   6.330   2.560   6.408  0.2619  0.8190 -1.3389
   76SLPC    C2 6818   6.456   2.607   6.585  0.5283 -0.0394  0.3545
   76SLPC    HS 6819   6.372   2.637   6.652 -0.0720 -1.5587  0.2929
   76SLPC   O21 6820   6.577   2.678   6.615 -0.3309  0.5191 -0.4677
   76SLPC   C21 6821   6.572   2.805   6.659  0.2289 -0.0571 -0.3489
   76SLPC   O22 6822   6.470   2.863   6.687  0.1740 -0.4749  0.1620
   76SLPC   C22 6823   6.710   2.855   6.672 -0.6898  0.2563 -0.2278
   76SLPC   H2R 6824   6.766   2.841   6.577  1.4514  0.2605  0.9986
   76SLPC   H2S 6825   6.717   2.965   6.683 -0.4561  0.1825  0.4207
   76SLPC    C3 6826   6.473   2.459   6.613 -0.0358 -0.2766  0.1236
   76SLPC    HX 6827   6.525   2.415   6.526  1.6608  2.4306 -0.2841
   76SLPC    HY 6828   6.376   2.405   6.609 -0.1266 -0.0650 -0.5142
   76SLPC   O31 6829   6.541   2.430   6.739 -0.4659  0.8398  0.3211
   76SLPC   C31 6830   6.669   2.427   6.727 -1.2580  0.2913 -0.0076
   76SLPC   O32 6831   6.738   2.418   6.626  0.1975  1.1250  0.3772
   76SLPC   C32 6832   6.731   2.417   6.870 -0.4706 -0.7692  0.7913
   76SLPC   H2X 6833   6.771   2.518   6.894  0.1851 -0.9072  0.2909
   76SLPC   H2Y 6834   6.805   2.334   6.872 -1.3404 -1.5231  2.1958
   76SLPC   C23 6835   6.782   2.787   6.789 -0.0098  0.2276 -1.2806
   76SLPC   H3R 6836   6.884   2.830   6.800 -1.3054  3.1494 -0.5688
   76SLPC   H3S 6837   6.803   2.679   6.772  5.6471  0.9601  0.0475
   76SLPC   C24 6838   6.712   2.811   6.921  0.2893 -0.6089 -0.4666
   76SLPC   H4R 6839   6.618   2.751   6.924  0.1937 -0.5104 -1.4344
   76SLPC   H4S 6840   6.668   2.912   6.932 -0.8385 -1.2098  0.7110
   76SLPC   C25 6841   6.784   2.778   7.053  1.0276  0.2783 -0.1628
   76SLPC   H5R 6842   6.865   2.848   7.084 -0.7940  2.3279  0.1598
   76SLPC   H5S 6843   6.830   2.678   7.039 -1.7002 -1.5252  3.0042
   76SLPC   C26 6844   6.679   2.795   7.169 -0.4464  0.2275 -0.2277
   76SLPC   H6R 6845   6.585   2.737   7.161  0.3703 -0.9046 -2.0883
   76SLPC   H6S 6846   6.653   2.902   7.180  0.5799  0.4701 -0.0628
   76SLPC   C27 6847   6.741   2.753   7.304 -0.3765 -0.5303  0.8711
   76SLPC   H7R 6848   6.827   2.819   7.326 -1.2850  0.9454  0.0328
   76SLPC   H7S 6849   6.785   2.651   7.317  2.1625  0.5268  0.7989
   76SLPC   C28 6850   6.646   2.752   7.422 -0.0409 -0.4353  0.6042
   76SLPC   H8R 6851   6.570   2.672   7.411  0.8783 -1.1687 -0.5496
   76SLPC   H8S 6852   6.714   2.743   7.510  3.0652 -2.4188 -1.8915
   76SLPC   C29 6853   6.583   2.887   7.426  0.4405  0.1034  0.1817
   76SLPC   H9R 6854   6.481   2.890   7.384  0.8783  1.5220 -0.8202
   76SLPC  C210 6855   6.635   3.001   7.477 -0.2033 -0.1762 -0.6616
   76SLPC  H10R 6856   6.575   3.092   7.491  0.0476  0.0936 -1.3450
   76SLPC  C211 6857   6.770   3.033   7.546 -0.0641 -0.9530 -0.6177
   76SLPC  H11R 6858   6.837   3.071   7.466 -1.0740  0.8976 -0.6224
   76SLPC  H11S 6859   6.814   2.937   7.580  0.3536 -1.0445 -1.4130
   76SLPC  C212 6860   6.777   3.140   7.658 -0.2473  0.0349 -0.2822
   76SLPC  H12R 6861   6.779   3.241   7.616 -1.0328  0.2369  0.1575
   76SLPC  C213 6862   6.774   3.119   7.792  0.0418  0.3653  0.0864
   76SLPC  H13R 6863   6.776   3.207   7.859  3.7082 -0.9573  1.8169
   76SLPC  C214 6864   6.766   2.980   7.855 -0.1414 -0.2420 -0.6208
   76SLPC  H14R 6865   6.708   2.905   7.797 -0.4298  0.1687 -0.8693
   76SLPC  H14S 6866   6.718   2.980   7.955  0.7666 -1.4973 -0.1786
   76SLPC  C215 6867   6.910   2.920   7.860  0.7311 -0.6960  0.3803
   76SLPC  H15R 6868   6.971   2.990   7.921  0.6373  0.7814 -1.1872
   76SLPC  H15S 6869   6.953   2.917   7.758 -0.3407 -1.7245 -0.0551
   76SLPC  C216 6870   6.918   2.786   7.935  0.0196  0.5997 -0.1192
   76SLPC  H16R 6871   6.872   2.712   7.865  0.9312  0.6343 -0.7611
   76SLPC  H16S 6872   6.854   2.790   8.026  0.4478  1.7092  0.1342
   76SLPC  C217 6873   7.059   2.740   7.976  0.0262  0.1536 -0.8744
   76SLPC  H17R 6874   7.128   2.723   7.891  1.0552  0.8319 -0.1798
   76SLPC  H17S 6875   7.054   2.634   8.010  0.3060 -0.7819 -3.6361
   76SLPC  C218 6876   7.115   2.839   8.088 -0.3296  1.1698 -0.0345
   76SLPC  H18R 6877   7.045   2.843   8.174  2.1670  1.0751  2.0666
   76SLPC  H18S 6878   7.134   2.939   8.044  2.4617  0.5012 -0.4601
   76SLPC  H18T 6879   7.214   2.807   8.127 -0.9487 -0.5622  0.1873
   76SLPC   C33 6880   6.623   2.402   6.981  0.5727 -0.2427  0.2321
   76SLPC   H3X 6881   6.552   2.320   6.956  1.1351 -0.0577 -2.1182
   76SLPC   H3Y 6882   6.563   2.495   6.984  0.8320 -0.0650 -0.0847
   76SLPC   C34 6883   6.687   2.376   7.121  0.2773 -0.4244  0.1559
   76SLPC   H4X 6884   6.737   2.472   7.144 -2.5100  1.1837 -0.3561
   76SLPC   H4Y 6885   6.764   2.298   7.100 -1.7594 -1.5051 -3.9591
   76SLPC   C35 6886   6.583   2.343   7.230  0.1710 -0.6965  0.3450
   76SLPC   H5X 6887   6.542   2.241   7.213  0.8689 -1.1990  1.6279
   76SLPC   H5Y 6888   6.506   2.422   7.221 -0.1125 -0.9818  0.2230
   76SLPC   C36 6889   6.639   2.362   7.373 -0.1736  0.7419  0.2410
   76SLPC   H6X 6890   6.693   2.459   7.375  0.4667  0.4191 -0.7291
   76SLPC   H6Y 6891   6.727   2.294   7.377 -1.9833 -1.6609 -0.0785
   76SLPC   C37 6892   6.541   2.329   7.479  0.1405  0.3381  0.2642
   76SLPC   H7X 6893   6.514   2.222   7.466 -1.4443  0.8068 -0.4609
   76SLPC   H7Y 6894   6.452   2.393   7.464 -0.7097 -1.0615 -0.8114
   76SLPC   C38 6895   6.599   2.332   7.625  0.2064  0.5620  0.2399
   76SLPC   H8X 6896   6.630   2.431   7.664  2.9426 -0.5769  1.1433
   76SLPC   H8Y 6897   6.687   2.263   7.630 -0.4133 -0.1585  1.5430
   76SLPC   C39 6898   6.499   2.277   7.725  0.6370  0.3186  0.3142
   76SLPC   H9X 6899   6.477   2.169   7.706 -1.5375  0.9575 -1.0413
   76SLPC   H9Y 6900   6.398   2.323   7.714  0.5115 -0.1474 -0.5220
   76SLPC  C310 6901   6.535   2.296   7.868  0.1973  1.2278 -0.3340
   76SLPC  H10X 6902   6.621   2.226   7.872 -0.1185  0.8194 -0.6448
   76SLPC  H10Y 6903   6.452   2.258   7.932  0.6198  0.2804 -0.3438
   76SLPC  C311 6904   6.575   2.444   7.910  0.5965  0.2591  0.1471
   76SLPC  H11X 6905   6.674   2.478   7.874  1.1426  0.5419  1.9202
   76SLPC  H11Y 6906   6.578   2.444   8.021 -0.5855  1.0675  0.1827
   76SLPC  C312 6907   6.479   2.566   7.879  0.4086 -0.5036 -0.1225
   76SLPC  H12X 6908   6.379   2.524   7.904 -0.1281 -0.0276 -1.4477
   76SLPC  H12Y 6909   6.502   2.577   7.771 -0.6569 -1.9953 -0.5148
   76SLPC  C313 6910   6.500   2.681   7.976  0.4713 -0.1153  0.3949
   76SLPC  H13X 6911   6.463   2.781   7.947 -0.9593  0.0680  2.7567
   76SLPC  H13Y 6912   6.602   2.689   8.018  0.0043 -1.5919  1.8867
   76SLPC  C314 6913   6.415   2.654   8.103 -0.2442  0.3787 -0.2388
   76SLPC  H14X 6914   6.442   2.552   8.137 -0.3790  0.8609  1.3327
   76SLPC  H14Y 6915   6.309   2.639   8.074 -0.1957 -1.3671  0.4347
   76SLPC  C315 6916   6.448   2.754   8.218  0.2809 -0.4481 -0.5253
   76SLPC  H15X 6917   6.427   2.860   8.190  1.9999  0.0334 -0.0219
   76SLPC  H15Y 6918   6.557   2.752   8.239  0.7699  1.3555 -2.6121
   76SLPC  C316 6919   6.351   2.747   8.344 -0.7296 -0.7626  1.5367
   76SLPC  H16X 6920   6.326   2.640   8.364  1.1116 -1.1586  1.7491
   76SLPC  H16Y 6921   6.264   2.790   8.290  1.6351  0.2559 -1.6219
   76SLPC  C317 6922   6.403   2.819   8.463 -0.1741 -0.0116 -0.6603
   76SLPC  H17X 6923   6.438   2.919   8.430 -1.2608  1.9618  3.7285
   76SLPC  H17Y 6924   6.494   2.770   8.502  0.1730  0.1208 -1.3040
   76SLPC  C318 6925   6.296   2.838   8.570  0.1332 -0.4740 -0.7237
   76SLPC  H18X 6926   6.340   2.890   8.658 -1.4215  0.6896 -0.6163
   76SLPC  H18Y 6927   6.264   2.740   8.610 -1.6954  0.3934  0.0087
   76SLPC  H18Z 6928   6.212   2.903   8.535 -0.1219  1.7224  3.5984
   77SLPC     N 6929   2.904   3.154   6.216  0.2005  0.1981 -0.2495
   77SLPC   C13 6930   3.019   3.170   6.124 -0.0094 -0.8133 -0.5842
   77SLPC  H13A 6931   3.105   3.107   6.141 -0.7406 -1.3569  1.2252
   77SLPC  H13B 6932   2.982   3.137   6.028 -0.8016  0.9047 -0.8946
   77SLPC  H13C 6933   3.069   3.266   6.133 -0.5346 -0.6105  0.2500
   77SLPC   C14 6934   2.852   3.018   6.184 -1.0186 -0.2404  0.0614
   77SLPC  H14A 6935   2.934   2.948   6.191 -1.7341 -0.9281  1.6554
   77SLPC  H14B 6936   2.779   2.986   6.256 -0.8597 -0.1428  0.2666
   77SLPC  H14C 6937   2.806   3.011   6.086  0.1248  0.5136 -0.5504
   77SLPC   C15 6938   2.801   3.255   6.184  0.2611 -0.0247  0.2696
   77SLPC  H15A 6939   2.747   3.240   6.092 -1.1046  0.9943  0.8808
   77SLPC  H15B 6940   2.725   3.269   6.259 -0.3611 -0.9147 -0.1908
   77SLPC  H15C 6941   2.853   3.350   6.175  2.4423 -1.0447  1.5883
   77SLPC   C12 6942   2.948   3.169   6.362 -0.0587  1.3387  0.6697
   77SLPC  H12A 6943   2.996   3.265   6.375 -0.5697  1.6002  0.6466
   77SLPC  H12B 6944   3.022   3.094   6.387  0.0466  1.6132  1.1905
   77SLPC   C11 6945   2.832   3.158   6.466 -0.1257 -0.2519  0.7975
   77SLPC  H11A 6946   2.760   3.241   6.453 -1.2446 -1.1326  1.3042
   77SLPC  H11B 6947   2.878   3.173   6.567  1.0692  3.3946 -0.2158
   77SLPC     P 6948   2.834   2.905   6.513  0.0308  0.3033  0.0876
   77SLPC   O13 6949   2.812   2.796   6.414 -0.4610 -0.2981  0.1378
   77SLPC   O14 6950   2.967   2.924   6.569 -0.1533 -0.9838  0.5267
   77SLPC   O12 6951   2.762   3.035   6.453  0.3791  0.0859  0.2578
   77SLPC   O11 6952   2.737   2.878   6.639  0.1469  0.6143 -0.0382
   77SLPC    C1 6953   2.729   2.951   6.756 -0.1621  0.6776 -0.2954
   77SLPC    HA 6954   2.707   3.055   6.726 -0.3948  1.5020  2.5840
   77SLPC    HB 6955   2.641   2.907   6.808  0.2557 -0.0381 -0.1789
   77SLPC    C2 6956   2.850   2.942   6.862  0.2188 -0.3099  0.0520
   77SLPC    HS 6957   2.946   2.937   6.805 -0.2027  1.9127 -0.9142
   77SLPC   O21 6958   2.828   2.831   6.946  0.0011 -0.0905  0.4502
   77SLPC   C21 6959   2.931   2.767   6.996 -0.1490 -0.1322  0.5969
   77SLPC   O22 6960   3.046   2.791   6.965 -0.2613 -0.1422 -0.3511
   77SLPC   C22 6961   2.883   2.654   7.090 -0.2189  0.0721  0.0339
   77SLPC   H2R 6962   2.845   2.707   7.180 -0.6851  0.9656 -0.6781
   77SLPC   H2S 6963   2.788   2.615   7.047 -0.7622 -0.2750  1.5042
   77SLPC    C3 6964   2.856   3.078   6.940  0.6526  0.4364 -0.6026
   77SLPC    HX 6965   2.761   3.115   6.984  0.3667  2.5841 -2.8640
   77SLPC    HY 6966   2.883   3.156   6.866  0.8086 -0.9458 -2.0322
   77SLPC   O31 6967   2.949   3.067   7.051 -0.6622 -0.0681 -0.0593
   77SLPC   C31 6968   3.074   3.098   7.014  1.0283 -0.6875 -0.3063
   77SLPC   O32 6969   3.110   3.155   6.912  0.0933  0.1353  0.7918
   77SLPC   C32 6970   3.172   3.047   7.119  0.3287  0.3507 -0.4434
   77SLPC   H2X 6971   3.273   3.082   7.090  0.1019  0.9507 -0.5095
   77SLPC   H2Y 6972   3.175   2.936   7.118  0.1261  0.3354  0.6423
   77SLPC   C23 6973   2.985   2.553   7.138 -0.3573  0.1802  0.0788
   77SLPC   H3R 6974   3.043   2.514   7.052  0.3050  0.7867  0.2555
   77SLPC   H3S 6975   2.940   2.456   7.170  0.8243 -0.5261 -0.3877
   77SLPC   C24 6976   3.088   2.601   7.239  0.3521 -0.4167 -0.7407
   77SLPC   H4R 6977   3.042   2.608   7.340  3.3968  0.0563  0.6373
   77SLPC   H4S 6978   3.123   2.704   7.218 -1.6350 -0.1887 -3.1770
   77SLPC   C25 6979   3.212   2.520   7.250 -0.3408 -0.7138 -0.1571
   77SLPC   H5R 6980   3.269   2.553   7.340  0.1798 -0.9832 -0.3842
   77SLPC   H5S 6981   3.279   2.538   7.163  0.5376  0.3085  0.7122
   77SLPC   C26 6982   3.195   2.376   7.270  0.2905 -0.1553 -0.1337
   77SLPC   H6R 6983   3.291   2.322   7.278 -0.3344 -1.4474 -1.1250
   77SLPC   H6S 6984   3.154   2.330   7.177  0.8916 -0.7459 -0.1087
   77SLPC   C27 6985   3.111   2.332   7.393  0.3547 -0.4414  0.4654
   77SLPC   H7R 6986   3.006   2.347   7.361  0.2770 -1.0811  0.4264
   77SLPC   H7S 6987   3.141   2.400   7.476 -1.7643  2.3011 -0.9349
   77SLPC   C28 6988   3.116   2.175   7.422  0.3896  0.6344 -0.2685
   77SLPC   H8R 6989   3.069   2.157   7.521  0.5208 -0.3510 -0.3788
   77SLPC   H8S 6990   3.215   2.129   7.445 -0.5218  0.0316  2.5447
   77SLPC   C29 6991   3.034   2.108   7.310  0.0699 -0.2524  0.8601
   77SLPC   H9R 6992   2.927   2.134   7.306  0.0716 -0.1168  1.7336
   77SLPC  C210 6993   3.088   2.016   7.224 -0.1462 -0.3524  0.5832
   77SLPC  H10R 6994   3.019   1.970   7.151  0.2268 -1.2455  0.7812
   77SLPC  C211 6995   3.234   1.975   7.217 -0.1258  0.0571  0.3089
   77SLPC  H11R 6996   3.258   1.871   7.189  1.2287  0.7556 -1.2322
   77SLPC  H11S 6997   3.290   1.975   7.313  3.2044  1.0757 -1.5310
   77SLPC  C212 6998   3.311   2.058   7.119 -0.2261  0.0558  0.5122
   77SLPC  H12R 6999   3.246   2.125   7.061 -1.6189 -3.0943 -1.6596
   77SLPC  C213 7000   3.442   2.054   7.098 -0.9900 -0.0595 -0.0419
   77SLPC  H13R 7001   3.480   2.121   7.019  0.8249 -0.2013  0.6955
   77SLPC  C214 7002   3.545   1.974   7.167 -0.1310  0.2287 -0.6103
   77SLPC  H14R 7003   3.600   1.892   7.114 -1.4708 -0.5170 -0.8671
   77SLPC  H14S 7004   3.484   1.935   7.251 -2.0387  2.7732 -0.7772
   77SLPC  C215 7005   3.651   2.062   7.237  0.3737 -0.7872 -0.7667
   77SLPC  H15R 7006   3.708   2.109   7.154  1.8634 -0.8537  0.1860
   77SLPC  H15S 7007   3.719   2.000   7.300  1.7455  0.0983 -1.3611
   77SLPC  C216 7008   3.589   2.169   7.333  0.2505  0.3617  1.1550
   77SLPC  H16R 7009   3.577   2.115   7.430 -2.2770 -0.6333  0.3233
   77SLPC  H16S 7010   3.486   2.201   7.305 -0.3962 -1.1539  1.7419
   77SLPC  C217 7011   3.680   2.286   7.350 -0.3827  0.4150 -0.4431
   77SLPC  H17R 7012   3.782   2.250   7.324 -0.1345 -1.1569  2.4641
   77SLPC  H17S 7013   3.682   2.312   7.458 -0.9699  0.2191 -0.3853
   77SLPC  C218 7014   3.643   2.406   7.267  0.9038 -0.3801  0.4343
   77SLPC  H18R 7015   3.723   2.483   7.270 -0.2569  0.8696  0.1262
   77SLPC  H18S 7016   3.551   2.446   7.314  1.0440 -1.0142  1.2671
   77SLPC  H18T 7017   3.612   2.380   7.163  2.8067  2.7620 -0.9919
   77SLPC   C33 7018   3.146   3.093   7.264 -0.0383  0.1814  0.4859
   77SLPC   H3X 7019   3.043   3.067   7.298  1.1620 -0.9829  3.4368
   77SLPC   H3Y 7020   3.167   3.201   7.271 -1.4382  0.5965 -1.2810
   77SLPC   C34 7021   3.232   3.026   7.371  0.2321 -0.0930 -0.5887
   77SLPC   H4X 7022   3.327   3.080   7.389  0.5401 -0.9331  0.3385
   77SLPC   H4Y 7023   3.255   2.923   7.336 -2.3265 -0.9734  0.2393
   77SLPC   C35 7024   3.162   3.002   7.511 -0.3962 -0.4476 -0.4282
   77SLPC   H5X 7025   3.052   2.993   7.496 -0.5429  2.8461 -1.9108
   77SLPC   H5Y 7026   3.179   3.096   7.568  0.6122 -1.1989  0.5283
   77SLPC   C36 7027   3.205   2.879   7.588 -0.2343 -0.6656  0.2249
   77SLPC   H6X 7028   3.314   2.879   7.609 -0.1879  0.9916  0.1140
   77SLPC   H6Y 7029   3.191   2.791   7.521  0.7783 -0.2241 -0.5873
   77SLPC   C37 7030   3.116   2.851   7.715 -0.2955  0.4125  0.3159
   77SLPC   H7X 7031   3.159   2.762   7.765 -2.0400 -0.3262  0.5364
   77SLPC   H7Y 7032   3.017   2.831   7.669 -1.0813  2.5496  0.9784
   77SLPC   C38 7033   3.095   2.963   7.813 -0.2287 -0.0429 -0.0378
   77SLPC   H8X 7034   3.008   2.948   7.882 -0.9534 -2.2757 -1.3949
   77SLPC   H8Y 7035   3.070   3.059   7.763  0.3124 -0.7147 -1.6276
   77SLPC   C39 7036   3.223   2.999   7.898  0.5039  0.1157  0.8862
   77SLPC   H9X 7037   3.291   3.054   7.830  0.3764  2.1571  2.3806
   77SLPC   H9Y 7038   3.277   2.907   7.928  1.0599 -0.9327 -3.0888
   77SLPC  C310 7039   3.191   3.085   8.024 -0.2390 -0.9646 -0.2550
   77SLPC  H10X 7040   3.133   3.169   7.979 -1.2466 -0.9487  1.0447
   77SLPC  H10Y 7041   3.281   3.124   8.076 -2.4691  2.8078  0.9820
   77SLPC  C311 7042   3.112   3.013   8.130 -0.3539 -0.3630 -0.9256
   77SLPC  H11X 7043   3.152   2.912   8.154  0.7933 -0.1144 -1.7777
   77SLPC  H11Y 7044   3.013   2.992   8.083  0.2480  1.2238 -2.9642
   77SLPC  C312 7045   3.072   3.116   8.237 -0.3130  0.3916  0.3822
   77SLPC  H12X 7046   3.017   3.204   8.198  2.0671  1.7119 -0.0813
   77SLPC  H12Y 7047   3.163   3.161   8.282  0.1467  0.6115 -0.7528
   77SLPC  C313 7048   2.993   3.050   8.352  0.5171 -0.3813  0.5615
   77SLPC  H13X 7049   2.965   3.120   8.434 -0.9184 -1.1813  0.7640
   77SLPC  H13Y 7050   3.061   2.976   8.400 -0.4499 -0.8749  1.1873
   77SLPC  C314 7051   2.866   2.978   8.309 -0.2536 -0.0910 -0.4926
   77SLPC  H14X 7052   2.900   2.889   8.251  1.2498 -0.0192  0.2625
   77SLPC  H14Y 7053   2.811   3.042   8.236 -0.3052  1.5696  0.9725
   77SLPC  C315 7054   2.764   2.941   8.420 -0.2373 -0.3481 -0.3589
   77SLPC  H15X 7055   2.692   3.025   8.409 -0.2732 -0.2716  0.4447
   77SLPC  H15Y 7056   2.818   2.948   8.517 -0.6519 -0.0088 -0.1525
   77SLPC  C316 7057   2.698   2.797   8.411 -0.3538  0.3947 -0.8440
   77SLPC  H16X 7058   2.778   2.720   8.418 -0.1313  0.6810 -0.1593
   77SLPC  H16Y 7059   2.649   2.779   8.314 -0.3582  0.2183 -0.8096
   77SLPC  C317 7060   2.604   2.766   8.527 -0.2809 -0.0767 -0.8717
   77SLPC  H17X 7061   2.532   2.685   8.504 -2.9878  1.2243  2.5816
   77SLPC  H17Y 7062   2.542   2.855   8.549  0.8907  1.0104 -1.8778
   77SLPC  C318 7063   2.675   2.723   8.649 -0.7105  0.2557  0.0956
   77SLPC  H18X 7064   2.612   2.684   8.731 -1.1712 -2.2556 -1.4013
   77SLPC  H18Y 7065   2.719   2.819   8.683 -1.1276  0.8120 -0.9464
   77SLPC  H18Z 7066   2.761   2.655   8.631 -2.4996 -1.8572 -0.6886
   78SLPC     N 7067   5.541   3.401   6.380  1.0163  0.2343 -0.0851
   78SLPC   C13 7068   5.462   3.286   6.326  0.3312 -0.5878 -0.2989
   78SLPC  H13A 7069   5.526   3.200   6.314  1.8721  0.1765  2.1385
   78SLPC  H13B 7070   5.385   3.253   6.394  0.5517 -0.6055 -0.0589
   78SLPC  H13C 7071   5.408   3.320   6.238 -0.3880  1.5286  0.9153
   78SLPC   C14 7072   5.652   3.423   6.286 -0.5212  0.3750  0.1530
   78SLPC  H14A 7073   5.622   3.477   6.198 -2.6821 -3.0061 -1.3169
   78SLPC  H14B 7074   5.719   3.491   6.336  0.1366 -1.1609  1.4173
   78SLPC  H14C 7075   5.717   3.338   6.273 -3.5693 -2.0958  0.3342
   78SLPC   C15 7076   5.577   3.352   6.520  0.0503 -0.3589  0.5381
   78SLPC  H15A 7077   5.649   3.272   6.512  1.8505  1.1684  0.9660
   78SLPC  H15B 7078   5.630   3.428   6.575 -0.2173  0.9948 -1.0462
   78SLPC  H15C 7079   5.489   3.314   6.570 -0.8656 -3.1085 -2.9943
   78SLPC   C12 7080   5.447   3.515   6.403  0.2315 -0.1704 -0.2019
   78SLPC  H12A 7081   5.497   3.595   6.455  0.1336 -0.2673  0.0428
   78SLPC  H12B 7082   5.368   3.501   6.476  1.3948  0.4412  1.2084
   78SLPC   C11 7083   5.388   3.585   6.275  0.1002  0.0594 -0.1490
   78SLPC  H11A 7084   5.459   3.606   6.192 -1.2317 -1.5305 -1.6979
   78SLPC  H11B 7085   5.349   3.686   6.302 -1.0772  0.3333 -2.8137
   78SLPC     P 7086   5.149   3.497   6.304  0.0794  0.2157  0.2893
   78SLPC   O13 7087   5.025   3.533   6.230 -0.0572  0.2383 -0.2141
   78SLPC   O14 7088   5.147   3.362   6.359 -0.4626  0.2349 -0.2241
   78SLPC   O12 7089   5.283   3.507   6.225  0.0404  0.0197  0.4801
   78SLPC   O11 7090   5.163   3.600   6.415 -0.3104 -0.3031  0.0626
   78SLPC    C1 7091   5.086   3.575   6.539  0.4060  0.0150  0.3398
   78SLPC    HA 7092   4.987   3.625   6.540  0.6540  0.5467 -0.9956
   78SLPC    HB 7093   5.063   3.467   6.553  0.8250 -0.3895 -1.9344
   78SLPC    C2 7094   5.167   3.623   6.660  0.0514 -0.6374 -0.8191
   78SLPC    HS 7095   5.235   3.706   6.630  0.7932 -1.5564 -1.7402
   78SLPC   O21 7096   5.253   3.519   6.720  0.8346  0.7093 -0.1758
   78SLPC   C21 7097   5.351   3.563   6.800  0.9898 -0.2794  0.6009
   78SLPC   O22 7098   5.384   3.675   6.827  0.4710 -0.0397 -0.2207
   78SLPC   C22 7099   5.419   3.434   6.847  0.3837  0.5872 -0.8277
   78SLPC   H2R 7100   5.366   3.348   6.800  0.0024 -0.8119  2.0469
   78SLPC   H2S 7101   5.525   3.443   6.816  2.3705 -1.5925  4.5905
   78SLPC    C3 7102   5.067   3.685   6.768 -0.4229  0.2934  0.0723
   78SLPC    HX 7103   4.973   3.625   6.764 -0.3837  0.3345 -1.9907
   78SLPC    HY 7104   5.054   3.789   6.732 -0.2194 -0.3971 -2.0616
   78SLPC   O31 7105   5.118   3.675   6.904 -0.1327 -0.1496 -0.2235
   78SLPC   C31 7106   5.128   3.789   6.972 -0.1384 -0.7864 -0.0636
   78SLPC   O32 7107   5.085   3.895   6.937 -0.1850 -0.2052 -0.2303
   78SLPC   C32 7108   5.206   3.755   7.103  0.0106 -0.4614 -0.2657
   78SLPC   H2X 7109   5.311   3.792   7.091  0.6181 -2.4242 -1.2040
   78SLPC   H2Y 7110   5.217   3.646   7.123 -0.5896 -0.1268  2.0035
   78SLPC   C23 7111   5.420   3.429   6.995  0.3856  0.3436 -0.1436
   78SLPC   H3R 7112   5.323   3.451   7.043 -0.2091 -1.7208 -0.3582
   78SLPC   H3S 7113   5.495   3.504   7.028  2.5940 -1.9850  0.3086
   78SLPC   C24 7114   5.483   3.309   7.060 -0.0713 -0.0459  0.5443
   78SLPC   H4R 7115   5.594   3.310   7.056 -0.0977  3.0305 -0.6512
   78SLPC   H4S 7116   5.464   3.216   7.003 -0.3853 -0.7556  1.7740
   78SLPC   C25 7117   5.447   3.289   7.214 -0.2746  1.1107 -0.3208
   78SLPC   H5R 7118   5.493   3.192   7.245 -1.2763  0.6795 -0.1753
   78SLPC   H5S 7119   5.337   3.273   7.216 -0.0590 -0.2703  2.1541
   78SLPC   C26 7120   5.496   3.397   7.310  0.5995  0.2047  0.5797
   78SLPC   H6R 7121   5.471   3.376   7.417  0.0458  2.0087  0.8271
   78SLPC   H6S 7122   5.439   3.487   7.279 -1.9994 -1.0406  1.5343
   78SLPC   C27 7123   5.645   3.403   7.301 -0.3172  0.1374  0.0797
   78SLPC   H7R 7124   5.686   3.425   7.200 -1.9141  1.3770 -0.3125
   78SLPC   H7S 7125   5.686   3.306   7.337 -0.5342  0.7454  2.0469
   78SLPC   C28 7126   5.700   3.512   7.402 -1.4921 -0.2309  0.2730
   78SLPC   H8R 7127   5.678   3.487   7.508 -0.6568 -1.4002  0.1783
   78SLPC   H8S 7128   5.647   3.605   7.373  0.1524  0.1865 -1.4226
   78SLPC   C29 7129   5.848   3.537   7.374 -0.0926 -1.2100  0.6883
   78SLPC   H9R 7130   5.879   3.547   7.269  0.1928  0.8798  0.9541
   78SLPC  C210 7131   5.941   3.553   7.467  0.3023 -0.4982  0.1968
   78SLPC  H10R 7132   6.047   3.561   7.438 -0.1112 -0.1319 -1.2663
   78SLPC  C211 7133   5.920   3.556   7.621 -0.8616  0.2457  0.0859
   78SLPC  H11R 7134   5.825   3.604   7.652 -0.7497  0.0656  0.7278
   78SLPC  H11S 7135   6.010   3.597   7.672 -0.9787  1.6664 -0.8308
   78SLPC  C212 7136   5.898   3.420   7.685 -0.4029  0.2850  0.0713
   78SLPC  H12R 7137   5.925   3.331   7.626  0.2934  0.6081 -0.1053
   78SLPC  C213 7138   5.833   3.394   7.802  0.1557 -0.3556 -0.3770
   78SLPC  H13R 7139   5.814   3.290   7.834 -1.1294 -0.0785 -0.2004
   78SLPC  C214 7140   5.773   3.504   7.886  0.3282 -0.1708 -0.0503
   78SLPC  H14R 7141   5.666   3.521   7.864  0.5761 -0.8364 -1.8376
   78SLPC  H14S 7142   5.827   3.599   7.871  2.7803 -1.3344  1.0904
   78SLPC  C215 7143   5.779   3.480   8.045  0.0390  0.0783 -0.3413
   78SLPC  H15R 7144   5.759   3.371   8.055 -0.2166  0.0667 -0.9890
   78SLPC  H15S 7145   5.688   3.539   8.069 -1.2458 -2.0972  0.1969
   78SLPC  C216 7146   5.899   3.537   8.112 -0.4472  0.3928  0.6618
   78SLPC  H16R 7147   5.902   3.645   8.089 -0.7285 -0.0967 -1.8016
   78SLPC  H16S 7148   5.993   3.486   8.083  0.0547  2.3135 -1.1520
   78SLPC  C217 7149   5.888   3.524   8.265  0.4088  0.7327 -0.0877
   78SLPC  H17R 7150   5.898   3.426   8.316  0.8216  1.9197  2.2076
   78SLPC  H17S 7151   5.787   3.565   8.288  0.3435 -0.2885  1.5442
   78SLPC  C218 7152   5.988   3.622   8.322 -0.4088 -0.3573 -0.2293
   78SLPC  H18R 7153   5.990   3.607   8.432  0.5553 -2.7814 -0.5489
   78SLPC  H18S 7154   5.960   3.729   8.313 -0.0889 -0.3631 -1.3180
   78SLPC  H18T 7155   6.093   3.598   8.295  0.0098  2.5502 -1.4461
   78SLPC   C33 7156   5.147   3.829   7.231 -0.1197  0.4442  0.7834
   78SLPC   H3X 7157   5.147   3.938   7.210  0.2147  0.2723 -0.1661
   78SLPC   H3Y 7158   5.220   3.796   7.308  1.2934  2.3871  0.3106
   78SLPC   C34 7159   5.007   3.779   7.266  0.1490  0.7110 -0.6144
   78SLPC   H4X 7160   5.013   3.670   7.282  2.0392  0.7546 -0.8902
   78SLPC   H4Y 7161   4.950   3.803   7.173  0.8172  0.8494 -0.9919
   78SLPC   C35 7162   4.948   3.840   7.392  0.0517 -0.1800 -0.2380
   78SLPC   H5X 7163   4.840   3.815   7.405 -0.2748  0.4281 -1.6339
   78SLPC   H5Y 7164   4.961   3.949   7.405 -0.5969 -0.2635  1.2487
   78SLPC   C36 7165   5.029   3.812   7.522  0.8315 -0.1245 -0.1321
   78SLPC   H6X 7166   5.124   3.870   7.532  0.1962  0.9317 -0.1368
   78SLPC   H6Y 7167   5.045   3.702   7.530 -2.2785 -0.5903  0.1398
   78SLPC   C37 7168   4.949   3.837   7.650 -0.3249  0.6114 -0.4106
   78SLPC   H7X 7169   4.856   3.777   7.641 -0.4393  0.5959  0.8097
   78SLPC   H7Y 7170   4.920   3.943   7.660 -1.3800  0.1384  2.0069
   78SLPC   C38 7171   5.023   3.790   7.776  0.6696 -0.6297  0.5899
   78SLPC   H8X 7172   5.106   3.861   7.794 -1.0463  1.3447  0.9478
   78SLPC   H8Y 7173   5.062   3.689   7.751 -0.4787 -1.0354  0.3884
   78SLPC   C39 7174   4.927   3.785   7.892 -0.7844 -0.3828 -0.0594
   78SLPC   H9X 7175   4.858   3.700   7.873 -0.4531 -0.7357  0.3188
   78SLPC   H9Y 7176   4.870   3.880   7.897  0.9423  0.6653  0.3515
   78SLPC  C310 7177   5.006   3.772   8.024  0.3890 -0.3523 -0.4896
   78SLPC  H10X 7178   4.937   3.793   8.109  1.2102 -1.2423  0.4108
   78SLPC  H10Y 7179   5.086   3.850   8.025 -1.4442  1.5727  1.0582
   78SLPC  C311 7180   5.064   3.630   8.057 -0.2336 -0.0762  0.5428
   78SLPC  H11X 7181   5.123   3.598   7.969 -2.8393  0.2037 -1.3902
   78SLPC  H11Y 7182   4.969   3.572   8.059  0.4690 -1.2813 -0.3440
   78SLPC  C312 7183   5.145   3.614   8.189 -0.1708 -0.8329  0.0414
   78SLPC  H12X 7184   5.076   3.647   8.271  0.1343  1.7514 -0.7112
   78SLPC  H12Y 7185   5.219   3.695   8.176 -1.2798  0.3444  0.8834
   78SLPC  C313 7186   5.234   3.495   8.214  0.1095 -0.1526  0.0402
   78SLPC  H13X 7187   5.176   3.403   8.193  1.3260 -1.3424  1.6977
   78SLPC  H13Y 7188   5.273   3.477   8.317  0.2798  2.4828  0.4731
   78SLPC  C314 7189   5.361   3.498   8.126 -0.6388  0.1746 -0.3075
   78SLPC  H14X 7190   5.408   3.597   8.145  1.8666 -0.9952 -0.2277
   78SLPC  H14Y 7191   5.339   3.488   8.018  0.6408 -0.4232 -0.5120
   78SLPC  C315 7192   5.449   3.387   8.166 -0.1682 -0.6057  0.1415
   78SLPC  H15X 7193   5.536   3.373   8.098  1.3879  1.3635  1.6451
   78SLPC  H15Y 7194   5.391   3.294   8.179 -0.7701 -0.4618 -1.4001
   78SLPC  C316 7195   5.522   3.399   8.303 -0.0213  0.6551 -1.0732
   78SLPC  H16X 7196   5.453   3.430   8.385  1.0912 -1.1779  0.6070
   78SLPC  H16Y 7197   5.588   3.489   8.302 -1.7696  1.9894 -0.6314
   78SLPC  C317 7198   5.598   3.265   8.338 -0.2657 -0.0141 -0.2366
   78SLPC  H17X 7199   5.670   3.298   8.416 -1.2213  0.5911  0.3903
   78SLPC  H17Y 7200   5.661   3.232   8.252 -1.8573 -0.5005 -1.2469
   78SLPC  C318 7201   5.515   3.145   8.391  0.5272 -0.5526 -0.2977
   78SLPC  H18X 7202   5.562   3.045   8.380 -1.5180 -1.3574 -2.1870
   78SLPC  H18Y 7203   5.414   3.135   8.345  0.3448 -1.7727  0.3327
   78SLPC  H18Z 7204   5.502   3.153   8.501  0.3782 -0.0825 -0.3508
   79SLPC     N 7205   1.871   5.206   6.137 -0.0721  0.0454  0.1490
   79SLPC   C13 7206   2.001   5.241   6.067 -0.0689 -0.8054 -0.8870
   79SLPC  H13A 7207   1.985   5.260   5.962 -0.9214  1.5740 -0.3588
   79SLPC  H13B 7208   2.044   5.326   6.119  1.1559 -1.8378 -0.2013
   79SLPC  H13C 7209   2.081   5.169   6.075 -0.5381 -1.4866 -2.1689
   79SLPC   C14 7210   1.846   5.058   6.110 -0.0091  0.4768 -0.2882
   79SLPC  H14A 7211   1.846   5.017   6.010  0.4825 -2.4909  0.8860
   79SLPC  H14B 7212   1.918   4.992   6.155 -2.1108 -0.6847  1.4905
   79SLPC  H14C 7213   1.750   5.032   6.152  0.4160 -3.4618 -1.5836
   79SLPC   C15 7214   1.757   5.276   6.075  0.0247 -0.4290  0.1992
   79SLPC  H15A 7215   1.784   5.380   6.062  3.1630 -1.1415  0.6331
   79SLPC  H15B 7216   1.732   5.223   5.985  0.2383  0.2840 -0.2835
   79SLPC  H15C 7217   1.674   5.278   6.144  0.0328  2.9318  0.2277
   79SLPC   C12 7218   1.882   5.235   6.284  0.0193 -0.8220 -0.9453
   79SLPC  H12A 7219   1.953   5.162   6.320  0.1057  0.6211  1.9316
   79SLPC  H12B 7220   1.789   5.206   6.330 -0.1055 -2.7163 -2.3272
   79SLPC   C11 7221   1.921   5.371   6.350  0.1937 -0.5235  0.9743
   79SLPC  H11A 7222   1.909   5.376   6.460 -0.6539 -0.5228  0.8902
   79SLPC  H11B 7223   1.853   5.446   6.304  0.6880 -0.5874  0.1254
   79SLPC     P 7224   2.178   5.346   6.401  0.2230  0.2421  0.1831
   79SLPC   O13 7225   2.190   5.197   6.383  0.2085 -0.5177  0.2620
   79SLPC   O14 7226   2.303   5.416   6.346  0.7150  0.8376  0.4382
   79SLPC   O12 7227   2.056   5.404   6.311 -0.2146 -0.8858 -0.4977
   79SLPC   O11 7228   2.145   5.377   6.547 -0.0700 -0.1131  0.1151
   79SLPC    C1 7229   2.133   5.516   6.585 -0.1627  0.0430  0.2004
   79SLPC    HA 7230   2.233   5.561   6.566 -0.3115 -0.3957 -1.6875
   79SLPC    HB 7231   2.057   5.572   6.527  0.4492  0.3860 -0.2755
   79SLPC    C2 7232   2.102   5.536   6.733 -0.2183  0.1802 -0.1176
   79SLPC    HS 7233   2.083   5.644   6.751  1.5393  0.8030 -1.8706
   79SLPC   O21 7234   2.216   5.492   6.808  0.3588  0.4851 -0.3957
   79SLPC   C21 7235   2.317   5.574   6.810  0.1174  0.4860  0.2804
   79SLPC   O22 7236   2.326   5.676   6.746  0.0547  0.0292 -0.2076
   79SLPC   C22 7237   2.420   5.519   6.911  0.3180  0.1384  0.1220
   79SLPC   H2R 7238   2.361   5.500   7.002  0.1121  1.7222  0.3415
   79SLPC   H2S 7239   2.459   5.416   6.899  3.0674  0.9499  1.5454
   79SLPC    C3 7240   1.982   5.457   6.774  0.5971  0.6125 -0.4341
   79SLPC    HX 7241   1.987   5.353   6.734 -1.8305  0.5434 -0.6448
   79SLPC    HY 7242   1.899   5.499   6.714  0.3775  0.9129  0.0801
   79SLPC   O31 7243   1.965   5.466   6.919  0.7475  0.4684 -0.2528
   79SLPC   C31 7244   1.915   5.353   6.972  0.4082  0.2239  0.2164
   79SLPC   O32 7245   1.880   5.254   6.912 -0.2378 -0.4026  0.0765
   79SLPC   C32 7246   1.912   5.383   7.118 -0.0740  0.5657  0.4020
   79SLPC   H2X 7247   1.843   5.307   7.161 -0.5320  0.5862 -0.2821
   79SLPC   H2Y 7248   1.884   5.490   7.128  2.3958  1.3180 -0.4086
   79SLPC   C23 7249   2.545   5.601   6.927  0.0575  0.0918 -0.2268
   79SLPC   H3R 7250   2.576   5.666   6.841  1.7138  0.8222  0.8976
   79SLPC   H3S 7251   2.631   5.532   6.941  0.0495 -0.5150 -2.7707
   79SLPC   C24 7252   2.553   5.686   7.052 -0.4758 -0.1890  0.6617
   79SLPC   H4R 7253   2.470   5.759   7.061 -0.3292 -0.2176  2.5114
   79SLPC   H4S 7254   2.650   5.739   7.066 -0.1661 -0.2202 -1.3394
   79SLPC   C25 7255   2.542   5.603   7.184  0.3492  0.2689 -0.1725
   79SLPC   H5R 7256   2.622   5.526   7.172  0.5386  0.5233 -0.5281
   79SLPC   H5S 7257   2.444   5.551   7.184  1.1712 -1.3225  0.0761
   79SLPC   C26 7258   2.565   5.687   7.310 -0.1133  0.4570  0.3725
   79SLPC   H6R 7259   2.474   5.748   7.329 -0.5708 -0.8590  2.4622
   79SLPC   H6S 7260   2.636   5.773   7.300  0.1484  0.2908  0.8267
   79SLPC   C27 7261   2.621   5.599   7.427  0.2288 -0.4140 -0.4736
   79SLPC   H7R 7262   2.725   5.569   7.405  0.9568  1.0099  0.9422
   79SLPC   H7S 7263   2.553   5.512   7.433 -0.1979 -0.1556 -1.3665
   79SLPC   C28 7264   2.614   5.674   7.559  0.2388 -0.3867 -1.1074
   79SLPC   H8R 7265   2.653   5.776   7.542 -2.3319  0.7806 -0.1584
   79SLPC   H8S 7266   2.678   5.623   7.635 -1.1053 -1.2367 -0.5227
   79SLPC   C29 7267   2.470   5.670   7.617 -0.6762  0.7001  0.1527
   79SLPC   H9R 7268   2.389   5.672   7.543 -1.4546  2.0388  1.0148
   79SLPC  C210 7269   2.432   5.668   7.746  0.2070  0.3488  0.1271
   79SLPC  H10R 7270   2.326   5.671   7.773 -0.1163  1.5376 -1.2333
   79SLPC  C211 7271   2.534   5.674   7.860 -0.6546 -0.5691  0.1548
   79SLPC  H11R 7272   2.608   5.591   7.862  1.3819  1.1392 -1.3872
   79SLPC  H11S 7273   2.484   5.665   7.959 -1.3008 -2.3940 -0.3153
   79SLPC  C212 7274   2.636   5.787   7.872  0.8034  0.2698 -0.0882
   79SLPC  H12R 7275   2.668   5.830   7.776 -0.0283  0.6321 -0.2104
   79SLPC  C213 7276   2.691   5.846   7.981  0.1999  0.3313 -0.0019
   79SLPC  H13R 7277   2.756   5.932   7.960 -0.0003  0.1708 -1.3360
   79SLPC  C214 7278   2.664   5.825   8.125 -0.3399 -0.7307 -0.1148
   79SLPC  H14R 7279   2.568   5.770   8.139 -0.3036 -1.0158 -0.9628
   79SLPC  H14S 7280   2.649   5.919   8.182  0.6582  1.7695 -3.7997
   79SLPC  C215 7281   2.762   5.724   8.194  0.5158  0.0790 -0.0978
   79SLPC  H15R 7282   2.858   5.780   8.198  2.2553 -2.8327 -0.0173
   79SLPC  H15S 7283   2.775   5.641   8.121  2.0206  1.3389 -1.3147
   79SLPC  C216 7284   2.720   5.684   8.335 -0.4890 -0.4706 -0.4838
   79SLPC  H16R 7285   2.622   5.632   8.328 -0.6606  0.1086 -2.6891
   79SLPC  H16S 7286   2.708   5.774   8.399  0.6908 -0.5802 -0.0954
   79SLPC  C217 7287   2.816   5.568   8.386  0.0133 -0.9668 -0.0733
   79SLPC  H17R 7288   2.805   5.480   8.319 -3.9163 -0.8631  0.2710
   79SLPC  H17S 7289   2.770   5.531   8.480 -1.9368  2.0890  0.2567
   79SLPC  C218 7290   2.963   5.623   8.404 -0.0883 -0.0168 -0.3447
   79SLPC  H18R 7291   2.958   5.727   8.443 -3.3383  0.4518 -1.8421
   79SLPC  H18S 7292   3.008   5.643   8.305  0.0760  1.4624  0.0213
   79SLPC  H18T 7293   3.028   5.555   8.464 -2.6927 -3.2425 -1.0211
   79SLPC   C33 7294   2.051   5.355   7.175 -0.7309 -0.6436 -0.3145
   79SLPC   H3X 7295   2.140   5.401   7.127 -0.5729 -0.5011  0.1080
   79SLPC   H3Y 7296   2.078   5.248   7.165  3.0251  0.1497  0.2071
   79SLPC   C34 7297   2.063   5.400   7.326  0.0995  0.6763 -0.4852
   79SLPC   H4X 7298   1.992   5.336   7.384  1.4313 -1.9107 -1.6149
   79SLPC   H4Y 7299   2.026   5.502   7.349 -0.5038  0.9996 -2.7136
   79SLPC   C35 7300   2.200   5.376   7.396 -0.3039 -0.0021 -0.0010
   79SLPC   H5X 7301   2.275   5.434   7.337 -0.8863  0.5831 -0.1716
   79SLPC   H5Y 7302   2.225   5.268   7.397 -3.5027 -0.8103 -0.5089
   79SLPC   C36 7303   2.198   5.419   7.545 -0.5183 -0.2622 -0.6127
   79SLPC   H6X 7304   2.164   5.524   7.560 -0.1555 -0.7346  4.7385
   79SLPC   H6Y 7305   2.306   5.428   7.570 -0.2921  0.9570 -1.9866
   79SLPC   C37 7306   2.115   5.323   7.638  0.3987  0.0265  0.6275
   79SLPC   H7X 7307   2.152   5.222   7.610  1.9678  1.1639 -1.5277
   79SLPC   H7Y 7308   2.007   5.318   7.611  0.1248 -0.7563  1.8520
   79SLPC   C38 7309   2.134   5.357   7.786  0.6872 -0.5141 -0.2544
   79SLPC   H8X 7310   2.075   5.450   7.805 -1.4533 -2.0299  0.7587
   79SLPC   H8Y 7311   2.234   5.390   7.819 -0.2920  1.3352  1.0003
   79SLPC   C39 7312   2.076   5.237   7.865 -0.4195 -0.4400  0.4085
   79SLPC   H9X 7313   2.129   5.141   7.847 -0.9528 -1.0595  2.0157
   79SLPC   H9Y 7314   1.970   5.217   7.837 -0.2200 -2.6862  1.1779
   79SLPC  C310 7315   2.087   5.244   8.019 -0.3723 -0.3249 -0.2896
   79SLPC  H10X 7316   2.047   5.335   8.067  0.7576  1.4106 -2.5458
   79SLPC  H10Y 7317   2.194   5.258   8.044 -0.3347  0.0052 -0.6384
   79SLPC  C311 7318   2.023   5.121   8.089  0.2135 -0.2264  0.4266
   79SLPC  H11X 7319   2.079   5.025   8.076  3.9073  1.8303  0.4637
   79SLPC  H11Y 7320   1.923   5.101   8.045 -0.1726  0.3022  1.0635
   79SLPC  C312 7321   1.998   5.134   8.239 -0.5812  0.9021  0.1401
   79SLPC  H12X 7322   1.922   5.061   8.274  1.0365 -0.6923  0.3621
   79SLPC  H12Y 7323   1.954   5.235   8.255 -3.8080 -0.1397 -1.7561
   79SLPC  C313 7324   2.121   5.101   8.317 -0.6331  0.3310 -0.8639
   79SLPC  H13X 7325   2.112   5.139   8.421  2.2216 -0.5352 -0.2611
   79SLPC  H13Y 7326   2.210   5.145   8.267 -1.0846  1.3072 -0.8302
   79SLPC  C314 7327   2.149   4.948   8.341  0.4369  0.5770  0.0381
   79SLPC  H14X 7328   2.094   4.894   8.261  0.2938 -0.8530  1.0727
   79SLPC  H14Y 7329   2.111   4.915   8.440  1.7631 -1.5618 -0.1403
   79SLPC  C315 7330   2.300   4.914   8.331 -0.4490  0.0245 -0.0205
   79SLPC  H15X 7331   2.326   4.972   8.240 -0.5821 -1.1752 -0.8359
   79SLPC  H15Y 7332   2.314   4.804   8.317 -1.5913 -0.3199  1.3765
   79SLPC  C316 7333   2.383   4.964   8.443  0.5458 -0.5602  0.1495
   79SLPC  H16X 7334   2.403   4.893   8.526  2.8444 -0.8405 -0.6199
   79SLPC  H16Y 7335   2.331   5.050   8.492 -0.9976 -0.9442 -0.7752
   79SLPC  C317 7336   2.518   5.007   8.391 -0.0812 -0.2433 -0.6871
   79SLPC  H17X 7337   2.508   5.076   8.304  0.2630 -1.1949 -1.4903
   79SLPC  H17Y 7338   2.573   4.916   8.360 -3.3279 -1.8937 -1.9201
   79SLPC  C318 7339   2.605   5.089   8.496 -0.0253 -0.2257  0.3761
   79SLPC  H18X 7340   2.705   5.118   8.457 -0.0466  0.8309  1.0943
   79SLPC  H18Y 7341   2.611   5.030   8.591 -0.2216  1.7964  1.6651
   79SLPC  H18Z 7342   2.557   5.184   8.526  2.6651  1.5990 -0.9726
   80SLPC     N 7343   3.764   4.057   6.057  0.8568 -0.3431 -0.2477
   80SLPC   C13 7344   3.652   4.168   6.041  0.0979  0.4140 -0.4087
   80SLPC  H13A 7345   3.571   4.155   6.111  1.6530  1.2176  1.5937
   80SLPC  H13B 7346   3.700   4.265   6.045  1.0624 -0.1137  1.1421
   80SLPC  H13C 7347   3.618   4.154   5.939  1.0365 -0.2332 -0.6356
   80SLPC   C14 7348   3.872   4.098   5.969  0.6874 -0.5719 -0.3474
   80SLPC  H14A 7349   3.827   4.136   5.878 -0.4194  0.5201  0.6451
   80SLPC  H14B 7350   3.920   4.184   6.012  2.5226 -2.2483  1.0141
   80SLPC  H14C 7351   3.943   4.020   5.947 -1.5863 -3.0365  0.7763
   80SLPC   C15 7352   3.707   3.926   6.016 -0.1874  0.1722 -0.2678
   80SLPC  H15A 7353   3.621   3.906   6.078  0.4381  2.4740  1.4120
   80SLPC  H15B 7354   3.685   3.916   5.911  0.0504  0.6314 -0.3604
   80SLPC  H15C 7355   3.771   3.845   6.049  1.2867  1.4486  0.0956
   80SLPC   C12 7356   3.801   4.055   6.206 -0.2423 -0.2369 -0.6179
   80SLPC  H12A 7357   3.836   4.156   6.221  2.0632 -0.8272 -1.8236
   80SLPC  H12B 7358   3.883   3.989   6.226 -0.4476 -0.4872 -0.6027
   80SLPC   C11 7359   3.686   4.033   6.307 -0.2184 -0.5281 -0.1885
   80SLPC  H11A 7360   3.616   4.118   6.295 -1.2098 -1.7136 -3.1745
   80SLPC  H11B 7361   3.739   4.035   6.405 -0.0926  0.8523 -0.2736
   80SLPC     P 7362   3.676   3.774   6.328  0.1610  0.1739 -0.2135
   80SLPC   O13 7363   3.591   3.667   6.270  0.3036 -0.2264 -0.1805
   80SLPC   O14 7364   3.821   3.778   6.311 -0.1449 -0.5317 -0.1354
   80SLPC   O12 7365   3.616   3.908   6.284 -0.0923 -0.0412 -0.5611
   80SLPC   O11 7366   3.653   3.777   6.480  0.2033 -0.1064 -0.3050
   80SLPC    C1 7367   3.522   3.791   6.530 -0.3680  0.0160  0.0079
   80SLPC    HA 7368   3.466   3.867   6.472  0.9200 -0.0130 -1.2988
   80SLPC    HB 7369   3.464   3.698   6.513 -1.2244  0.5150  0.1728
   80SLPC    C2 7370   3.515   3.819   6.683  0.1592 -0.9569  0.1085
   80SLPC    HS 7371   3.406   3.829   6.697  0.1987  0.0686 -0.2358
   80SLPC   O21 7372   3.575   3.940   6.716  0.3071  0.4101  0.2609
   80SLPC   C21 7373   3.513   4.048   6.662 -0.6427  0.4221  0.1306
   80SLPC   O22 7374   3.393   4.052   6.632 -0.5077 -0.3285 -0.4264
   80SLPC   C22 7375   3.608   4.161   6.673 -1.0134  0.1016 -0.4831
   80SLPC   H2R 7376   3.704   4.118   6.708 -0.2260  2.4307  0.2784
   80SLPC   H2S 7377   3.631   4.207   6.575  0.8649  0.9533  0.3252
   80SLPC    C3 7378   3.573   3.700   6.767  0.3411  0.2316 -0.3421
   80SLPC    HX 7379   3.663   3.659   6.716  0.2069 -0.6474  0.1341
   80SLPC    HY 7380   3.496   3.621   6.755  1.9073 -1.6096  1.3856
   80SLPC   O31 7381   3.586   3.741   6.901  0.1661  0.3016  0.3218
   80SLPC   C31 7382   3.704   3.798   6.928 -0.3211 -0.2199  0.3087
   80SLPC   O32 7383   3.809   3.781   6.868 -0.5475 -0.4405  0.0944
   80SLPC   C32 7384   3.694   3.860   7.064  0.8196  0.5416 -0.5684
   80SLPC   H2X 7385   3.694   3.781   7.141 -1.5648  2.6913  1.7042
   80SLPC   H2Y 7386   3.600   3.918   7.072  0.8849  0.6874 -0.8513
   80SLPC   C23 7387   3.561   4.267   6.772 -0.0503 -0.0243  0.5994
   80SLPC   H3R 7388   3.451   4.278   6.759 -0.3099 -2.9869 -0.0645
   80SLPC   H3S 7389   3.594   4.370   6.746  0.9036 -0.4038  0.2691
   80SLPC   C24 7390   3.593   4.248   6.925 -0.1636  0.8030 -0.1803
   80SLPC   H4R 7391   3.700   4.247   6.952 -0.2927 -5.8781  0.8967
   80SLPC   H4S 7392   3.563   4.143   6.942 -2.8596  1.7632  1.4713
   80SLPC   C25 7393   3.511   4.347   7.013  0.2413  0.0610  0.4335
   80SLPC   H5R 7394   3.403   4.341   6.987 -0.2733  1.9528  1.9961
   80SLPC   H5S 7395   3.549   4.451   6.997 -2.7637  1.0270 -0.9351
   80SLPC   C26 7396   3.520   4.313   7.160 -0.3986 -0.1747 -0.5453
   80SLPC   H6R 7397   3.626   4.320   7.193 -0.5305  1.1152 -0.3815
   80SLPC   H6S 7398   3.484   4.208   7.165  1.6264 -0.8504  0.4133
   80SLPC   C27 7399   3.439   4.411   7.251  0.0338 -0.4454  0.3220
   80SLPC   H7R 7400   3.339   4.422   7.205 -0.0313 -0.7865  0.3749
   80SLPC   H7S 7401   3.488   4.509   7.267 -0.8379  0.4219 -2.2759
   80SLPC   C28 7402   3.428   4.356   7.390 -0.8348 -0.2436  0.2686
   80SLPC   H8R 7403   3.382   4.256   7.371 -3.7761  1.3003 -1.2010
   80SLPC   H8S 7404   3.350   4.410   7.448 -0.0343  0.5582  0.6004
   80SLPC   C29 7405   3.560   4.345   7.461  0.9133  0.1820  0.0183
   80SLPC   H9R 7406   3.649   4.309   7.407  1.4670  0.1291  0.9548
   80SLPC  C210 7407   3.584   4.374   7.596 -0.5232  0.7410 -0.6449
   80SLPC  H10R 7408   3.689   4.376   7.628 -0.3984 -1.4113 -0.8407
   80SLPC  C211 7409   3.483   4.429   7.706 -0.2258  0.6335  0.4111
   80SLPC  H11R 7410   3.377   4.414   7.677 -0.4838  3.4211 -0.1837
   80SLPC  H11S 7411   3.494   4.539   7.714 -0.5022  0.6524  0.5367
   80SLPC  C212 7412   3.489   4.351   7.838 -0.5289  0.1519  0.6605
   80SLPC  H12R 7413   3.550   4.260   7.828  0.2408  0.7890 -0.5229
   80SLPC  C213 7414   3.438   4.385   7.957  0.3524  0.1730  0.2602
   80SLPC  H13R 7415   3.450   4.317   8.042  1.0004  1.2803  1.0598
   80SLPC  C214 7416   3.358   4.516   7.970  0.7624 -0.3157  0.5090
   80SLPC  H14R 7417   3.362   4.577   7.877  1.7153 -1.3573 -0.1489
   80SLPC  H14S 7418   3.405   4.580   8.047 -1.0192  2.5980 -0.7258
   80SLPC  C215 7419   3.211   4.504   8.006  0.2391 -0.2082  0.6229
   80SLPC  H15R 7420   3.161   4.458   7.918  0.2757 -2.1472  1.5834
   80SLPC  H15S 7421   3.171   4.604   8.034  1.0079  0.9114 -2.1960
   80SLPC  C216 7422   3.175   4.415   8.125 -0.0437  0.8225  0.2039
   80SLPC  H16R 7423   3.202   4.478   8.212 -1.0983  0.1009  1.0535
   80SLPC  H16S 7424   3.243   4.327   8.120  1.1940  1.7283  0.9131
   80SLPC  C217 7425   3.027   4.375   8.136  0.5613 -0.4202  0.3720
   80SLPC  H17R 7426   2.997   4.317   8.046 -2.1354  1.6810 -0.1207
   80SLPC  H17S 7427   2.974   4.472   8.139  1.1371 -0.1426  2.0476
   80SLPC  C218 7428   2.994   4.304   8.265 -0.4612  0.4637  0.2176
   80SLPC  H18R 7429   3.055   4.212   8.249 -0.5730  0.3162  0.6293
   80SLPC  H18S 7430   2.888   4.271   8.268 -0.1938 -0.5496 -0.8773
   80SLPC  H18T 7431   3.018   4.350   8.363 -1.9005  0.8763  0.3863
   80SLPC   C33 7432   3.816   3.951   7.097 -0.9051  0.2989 -0.7905
   80SLPC   H3X 7433   3.829   4.039   7.031  2.2957  2.0968  2.0907
   80SLPC   H3Y 7434   3.909   3.889   7.092 -1.1655 -0.1273 -0.4112
   80SLPC   C34 7435   3.814   4.008   7.245 -0.2271  0.0112  0.2082
   80SLPC   H4X 7436   3.847   3.929   7.316  0.6645 -1.7940 -2.1088
   80SLPC   H4Y 7437   3.711   4.040   7.273 -0.8170 -0.5233 -1.2931
   80SLPC   C35 7438   3.924   4.109   7.276  0.5879  0.8718 -0.1240
   80SLPC   H5X 7439   3.895   4.200   7.219  1.5922  1.7688  0.7725
   80SLPC   H5Y 7440   4.025   4.078   7.239 -1.4939 -2.9345 -2.9568
   80SLPC   C36 7441   3.933   4.146   7.421 -0.6127  0.2803  0.8241
   80SLPC   H6X 7442   3.943   4.059   7.490 -0.0470 -0.3378 -0.0369
   80SLPC   H6Y 7443   3.832   4.189   7.437 -0.6264  0.6999 -0.3885
   80SLPC   C37 7444   4.041   4.240   7.466 -0.3319  0.0296 -0.0043
   80SLPC   H7X 7445   4.056   4.310   7.381  1.1925 -0.7337 -0.3736
   80SLPC   H7Y 7446   4.137   4.186   7.480 -0.2276  0.3142  0.3980
   80SLPC   C38 7447   4.024   4.326   7.594  0.0573 -0.0704 -0.3635
   80SLPC   H8X 7448   3.940   4.394   7.565  2.3725  1.7721 -2.9989
   80SLPC   H8Y 7449   4.118   4.384   7.601 -0.5601  1.0080 -0.7523
   80SLPC   C39 7450   3.990   4.254   7.724  0.0648 -0.3884 -0.1056
   80SLPC   H9X 7451   4.046   4.159   7.732 -0.1461 -0.7166 -2.1722
   80SLPC   H9Y 7452   3.891   4.208   7.703 -0.7551  0.7004  1.2663
   80SLPC  C310 7453   3.970   4.349   7.849 -0.9399 -0.2529  0.4327
   80SLPC  H10X 7454   3.917   4.439   7.809  1.2687  1.1153  0.4886
   80SLPC  H10Y 7455   4.068   4.387   7.884 -0.6730 -2.2351  1.9236
   80SLPC  C311 7456   3.884   4.278   7.950  0.1775 -0.4156 -0.0471
   80SLPC  H11X 7457   3.914   4.171   7.956 -1.2906 -0.7184  2.6545
   80SLPC  H11Y 7458   3.780   4.270   7.910 -0.6456 -1.5624  2.2516
   80SLPC  C312 7459   3.891   4.336   8.095  0.4771  0.5011  0.8288
   80SLPC  H12X 7460   3.991   4.378   8.118  0.8449  0.7989 -1.1733
   80SLPC  H12Y 7461   3.886   4.247   8.160  0.2273 -1.3709 -1.6509
   80SLPC  C313 7462   3.779   4.431   8.133 -0.3449 -0.2550 -0.3540
   80SLPC  H13X 7463   3.678   4.387   8.130 -0.7972  0.5359  1.9792
   80SLPC  H13Y 7464   3.781   4.516   8.061 -0.5881 -0.1782 -0.2673
   80SLPC  C314 7465   3.803   4.487   8.270 -0.0175  0.5096 -0.7181
   80SLPC  H14X 7466   3.716   4.552   8.292  1.7858  2.0999  1.9599
   80SLPC  H14Y 7467   3.895   4.549   8.267 -1.0838  2.1579  0.2763
   80SLPC  C315 7468   3.817   4.382   8.375  0.5333  0.4670  0.2540
   80SLPC  H15X 7469   3.921   4.344   8.363  0.6756  1.3597 -1.5114
   80SLPC  H15Y 7470   3.744   4.298   8.368 -0.8656  1.4877  2.2048
   80SLPC  C316 7471   3.802   4.448   8.510 -0.0677 -0.0411 -0.0927
   80SLPC  H16X 7472   3.707   4.418   8.559  0.1688  0.6512  0.8099
   80SLPC  H16Y 7473   3.793   4.559   8.517  0.8446  0.0741 -0.7608
   80SLPC  C317 7474   3.919   4.400   8.604  0.6699  0.1940 -0.2037
   80SLPC  H17X 7475   3.936   4.292   8.586  0.2064 -0.6781  4.1344
   80SLPC  H17Y 7476   3.871   4.404   8.704  0.9094 -2.6089  0.0677
   80SLPC  C318 7477   4.050   4.472   8.602  0.6315  0.3211  0.3601
   80SLPC  H18X 7478   4.035   4.563   8.663 -1.4223 -0.7346  1.5050
   80SLPC  H18Y 7479   4.081   4.496   8.498  1.5740  2.9676  1.2148
   80SLPC  H18Z 7480   4.126   4.415   8.660  0.1814 -0.6260  0.0402
   81SAPS     N 7481   4.453   4.532  11.438  0.3746  0.4269 -0.3030
   81SAPS   HN1 7482   4.546   4.569  11.410  1.1098  0.0595  1.5434
   81SAPS   HN2 7483   4.464   4.461  11.513 -1.3640  0.5949  0.1296
   81SAPS   HN3 7484   4.408   4.479  11.361 -0.5872  1.3405 -0.3830
   81SAPS   C12 7485   4.371   4.647  11.480  0.2749  0.0381 -0.7381
   81SAPS  H12A 7486   4.289   4.614  11.543  2.1305  0.2211  1.8521
   81SAPS   C13 7487   4.453   4.744  11.564  0.0140 -0.0971  0.8946
   81SAPS  O13A 7488   4.578   4.729  11.578 -0.0734 -0.5729 -0.2430
   81SAPS  O13B 7489   4.399   4.843  11.618  0.3025  0.0810  0.0542
   81SAPS   C11 7490   4.307   4.716  11.353  0.2632 -0.3590  0.4381
   81SAPS  H11A 7491   4.380   4.740  11.273  0.3689 -1.0884  0.3081
   81SAPS  H11B 7492   4.257   4.805  11.396  0.5019 -1.5093  3.2400
   81SAPS     P 7493   4.208   4.554  11.167  0.1601 -0.0736  0.1610
   81SAPS   O13 7494   4.299   4.449  11.216 -0.2337  0.2984  0.1181
   81SAPS   O14 7495   4.079   4.505  11.113 -0.2147 -0.5066 -0.0741
   81SAPS   O12 7496   4.193   4.646  11.298  0.0441 -0.2664 -0.1539
   81SAPS   O11 7497   4.287   4.627  11.050  0.5079  0.1075 -0.0218
   81SAPS    C1 7498   4.249   4.754  10.993 -0.0851 -0.4255  0.5074
   81SAPS    HA 7499   4.204   4.820  11.070  1.2946  0.2678  0.7385
   81SAPS    HB 7500   4.343   4.801  10.958 -0.9560 -2.4064 -5.0084
   81SAPS    C2 7501   4.149   4.740  10.870  0.3144 -0.1158  0.2337
   81SAPS    HS 7502   4.063   4.675  10.897  0.7650 -0.4307  0.9284
   81SAPS   O21 7503   4.230   4.690  10.765 -0.2243  0.4933  0.4116
   81SAPS   C21 7504   4.180   4.612  10.675  0.4910 -0.0152 -0.0872
   81SAPS   O22 7505   4.064   4.565  10.671  0.3820  0.2403 -0.2881
   81SAPS   C22 7506   4.271   4.619  10.549  0.0991 -0.8868  0.3203
   81SAPS   H2R 7507   4.276   4.722  10.506  2.0542 -0.9694  0.2890
   81SAPS   H2S 7508   4.373   4.589  10.583  0.6830  1.3093  0.5935
   81SAPS    C3 7509   4.076   4.870  10.846  0.1887 -0.5881  0.7034
   81SAPS    HX 7510   4.142   4.958  10.836  0.5455 -0.7403  1.6816
   81SAPS    HY 7511   4.013   4.901  10.933  2.5519 -0.9840  2.6049
   81SAPS   O31 7512   3.985   4.867  10.731 -0.1041  0.2965 -0.2243
   81SAPS   C31 7513   4.036   4.913  10.613  0.0619  0.1195  0.3191
   81SAPS   O32 7514   4.145   4.959  10.601  0.2985  0.5359 -0.5581
   81SAPS   C32 7515   3.919   4.921  10.516 -0.2853 -0.8372 -0.2407
   81SAPS   H2X 7516   3.843   4.985  10.566  0.4919 -0.2561  0.2099
   81SAPS   H2Y 7517   3.878   4.821  10.492 -4.3569  0.7554 -0.3163
   81SAPS   C23 7518   4.214   4.525  10.439 -0.1378  0.6480 -0.1190
   81SAPS   H3R 7519   4.108   4.553  10.422 -0.2183 -0.7686 -2.2070
   81SAPS   H3S 7520   4.204   4.420  10.472 -2.1699  0.3587 -1.5364
   81SAPS   C24 7521   4.299   4.534  10.304 -0.2923 -0.2550  0.6337
   81SAPS   H4R 7522   4.294   4.638  10.265  1.1060 -0.1630  0.6621
   81SAPS   H4S 7523   4.240   4.468  10.237 -0.3562 -0.2765  0.7110
   81SAPS   C25 7524   4.445   4.487  10.324 -0.1539  0.3429  0.6141
   81SAPS   H5R 7525   4.463   4.433  10.418  0.3302  0.5293  0.6265
   81SAPS   C26 7526   4.553   4.531  10.262 -0.3512  0.5724  0.6785
   81SAPS   H6R 7527   4.649   4.491  10.298  0.0036  0.3882 -0.4487
   81SAPS   C27 7528   4.552   4.634  10.150 -0.1391 -0.4674  0.1383
   81SAPS   H7R 7529   4.589   4.732  10.188  0.3728 -0.1838 -1.1031
   81SAPS   H7S 7530   4.448   4.653  10.116 -0.4214 -0.8170  0.7901
   81SAPS   C28 7531   4.634   4.606  10.024 -0.3412 -0.3477 -0.4103
   81SAPS   H8R 7532   4.716   4.533  10.038 -1.4386 -1.2936  1.2935
   81SAPS   C29 7533   4.613   4.657   9.900  0.1713  0.5437 -0.5568
   81SAPS   H9R 7534   4.685   4.633   9.820  1.7575  0.5193  0.8387
   81SAPS  C210 7535   4.510   4.759   9.854  0.1615 -0.4923 -0.7951
   81SAPS  H10R 7536   4.495   4.844   9.925  2.2643 -0.0625 -0.8292
   81SAPS  H10S 7537   4.417   4.699   9.844  0.0209 -0.8427  2.0571
   81SAPS  C211 7538   4.547   4.823   9.726 -0.0604 -0.3173 -0.0157
   81SAPS  H11R 7539   4.598   4.917   9.750 -1.7686  0.1403  1.9537
   81SAPS  C212 7540   4.531   4.787   9.598  0.0855  0.2207  0.3483
   81SAPS  H12R 7541   4.575   4.854   9.523 -0.4115 -0.8677 -0.9265
   81SAPS  C213 7542   4.457   4.664   9.561  0.2515 -0.1791 -0.1887
   81SAPS  H13R 7543   4.446   4.590   9.643 -1.5740 -0.5025 -0.7013
   81SAPS  H13S 7544   4.513   4.616   9.478  1.7135  0.0534  0.6387
   81SAPS  C214 7545   4.325   4.712   9.516 -0.2813 -0.6054 -0.3728
   81SAPS  H14R 7546   4.325   4.785   9.434  0.8849 -0.2568 -0.0679
   81SAPS  C215 7547   4.205   4.676   9.565  0.5247 -0.4284 -0.0679
   81SAPS  H15R 7548   4.111   4.709   9.518 -0.1142  0.3427  1.6678
   81SAPS  C216 7549   4.180   4.577   9.683 -0.0255 -0.2716  0.5280
   81SAPS  H16R 7550   4.266   4.509   9.703  0.1112 -0.0521  0.6868
   81SAPS  H16S 7551   4.091   4.514   9.663 -0.8414  0.1508  2.6555
   81SAPS  C217 7552   4.134   4.656   9.801  1.5031  0.8371 -0.5810
   81SAPS  H17R 7553   4.046   4.720   9.778  0.1490  0.0372  2.2528
   81SAPS  H17S 7554   4.221   4.718   9.833  0.7327  0.8129  1.6528
   81SAPS  C218 7555   4.086   4.568   9.923  0.1739  0.2565 -0.7553
   81SAPS  H18R 7556   4.162   4.495   9.960 -0.8840 -0.3039  0.3463
   81SAPS  H18S 7557   4.001   4.513   9.878 -0.3705  1.4529 -1.2054
   81SAPS  C219 7558   4.032   4.647  10.036  0.0904  0.3177  0.0794
   81SAPS  H19R 7559   3.959   4.724  10.005  0.0045  0.1513 -0.1322
   81SAPS  H19S 7560   4.121   4.701  10.075  0.4084 -0.1984  0.0763
   81SAPS  C220 7561   3.958   4.580  10.149  0.0283  1.0344 -0.1662
   81SAPS  H20R 7562   3.899   4.495  10.110 -1.0630  2.1949 -1.0826
   81SAPS  H20S 7563   3.899   4.647  10.215 -1.9929  0.8379 -1.7217
   81SAPS  H20T 7564   4.039   4.535  10.210 -0.0771  1.0229 -0.0355
   81SAPS   C33 7565   3.958   4.979  10.377 -0.0697 -0.2170  0.3472
   81SAPS   H3X 7566   4.059   4.941  10.347  1.3925  3.2579  0.6086
   81SAPS   H3Y 7567   3.970   5.089  10.381  0.8369 -0.0753 -3.8468
   81SAPS   C34 7568   3.851   4.949  10.266  0.0504 -0.0875  0.2055
   81SAPS   H4X 7569   3.759   5.006  10.292  0.1075 -0.2480  0.7664
   81SAPS   H4Y 7570   3.820   4.843  10.252  0.3645  0.0250 -1.4431
   81SAPS   C35 7571   3.899   4.992  10.125  0.1517  0.0929  0.3332
   81SAPS   H5X 7572   3.998   4.942  10.126  0.2292  0.2420  0.1565
   81SAPS   H5Y 7573   3.912   5.102  10.124 -0.9217  0.2288  0.3387
   81SAPS   C36 7574   3.799   4.940  10.015  0.1082 -0.3639  0.6704
   81SAPS   H6X 7575   3.699   4.989  10.016  1.1866  1.9238 -0.5245
   81SAPS   H6Y 7576   3.783   4.834  10.044  1.1965 -0.9352 -0.7485
   81SAPS   C37 7577   3.875   4.938   9.886 -0.3857 -0.2124  0.2731
   81SAPS   H7X 7578   3.983   4.915   9.895 -0.0764  1.4296  0.8022
   81SAPS   H7Y 7579   3.866   5.046   9.861 -2.6834 -0.2998  0.6500
   81SAPS   C38 7580   3.809   4.851   9.777 -0.8417 -0.4993  0.2641
   81SAPS   H8X 7581   3.698   4.857   9.776 -0.8690 -0.1025  2.2461
   81SAPS   H8Y 7582   3.826   4.742   9.794 -2.1398 -0.9318 -1.0958
   81SAPS   C39 7583   3.867   4.885   9.640  0.9801  0.1041 -0.1428
   81SAPS   H9X 7584   3.978   4.877   9.634  1.2739  2.4643  1.4059
   81SAPS   H9Y 7585   3.842   4.993   9.627  0.3266 -0.1144 -0.7113
   81SAPS  C310 7586   3.817   4.784   9.535  0.1477 -0.4109 -0.7152
   81SAPS  H10X 7587   3.708   4.763   9.543 -0.0159  0.3215 -0.9978
   81SAPS  H10Y 7588   3.862   4.684   9.554  1.5416  0.5554  1.1901
   81SAPS  C311 7589   3.871   4.811   9.397  1.0042  0.2165  0.2910
   81SAPS  H11X 7590   3.980   4.834   9.390  1.0699 -0.7345 -2.6241
   81SAPS  H11Y 7591   3.827   4.907   9.365 -1.7215 -0.8113  0.8461
   81SAPS  C312 7592   3.837   4.695   9.303 -0.2273 -0.0901  0.3768
   81SAPS  H12X 7593   3.845   4.735   9.199  2.3525 -0.4950  0.3933
   81SAPS  H12Y 7594   3.733   4.658   9.315 -0.5000  0.7037  0.5182
   81SAPS  C313 7595   3.936   4.581   9.317  0.0201  0.7612 -0.3409
   81SAPS  H13X 7596   3.942   4.548   9.423 -2.3911  0.0779 -0.3786
   81SAPS  H13Y 7597   4.035   4.627   9.298 -1.2523  2.6363 -2.5996
   81SAPS  C314 7598   3.905   4.453   9.233 -0.2510  0.9127  0.3978
   81SAPS  H14X 7599   3.836   4.384   9.286  3.9110 -1.8082  2.5372
   81SAPS  H14Y 7600   3.996   4.389   9.221 -0.9469 -0.5952  2.8060
   81SAPS  C315 7601   3.855   4.473   9.089 -0.4070  0.3114 -0.6772
   81SAPS  H15X 7602   3.910   4.550   9.031  2.2326 -2.2526 -1.7100
   81SAPS  H15Y 7603   3.751   4.509   9.106 -1.3835 -3.0906  0.9647
   81SAPS  C316 7604   3.854   4.345   9.007  0.7448 -0.1185  0.4132
   81SAPS  H16X 7605   3.788   4.357   8.919 -1.2753 -2.3632  1.5790
   81SAPS  H16Y 7606   3.806   4.271   9.075  0.7944 -0.8748 -0.3732
   81SAPS  C317 7607   3.990   4.280   8.970  0.4835 -0.4161 -0.4476
   81SAPS  H17X 7608   4.044   4.258   9.064  1.0166  0.8246 -0.4599
   81SAPS  H17Y 7609   4.057   4.345   8.910 -0.3143  0.4616 -0.3968
   81SAPS  C318 7610   3.968   4.148   8.898 -0.1068 -0.0025 -0.0662
   81SAPS  H18X 7611   4.067   4.098   8.901  0.6116  1.3299 -1.0900
   81SAPS  H18Y 7612   3.937   4.158   8.792 -0.2443  1.6362  0.1189
   81SAPS  H18Z 7613   3.886   4.094   8.950 -2.3055  1.8981 -1.4587
   82SAPS     N 7614   3.183   3.549  11.063  0.4406  0.6975 -0.2543
   82SAPS   HN1 7615   3.214   3.489  11.141 -2.2177  1.9982  1.8574
   82SAPS   HN2 7616   3.079   3.552  11.056  0.4158 -0.8619 -0.6937
   82SAPS   HN3 7617   3.225   3.505  10.978 -0.1043  1.2758 -0.8322
   82SAPS   C12 7618   3.239   3.685  11.077 -0.2937  0.0540  0.8136
   82SAPS  H12A 7619   3.180   3.737  11.151  1.5867  0.7420  1.8538
   82SAPS   C13 7620   3.385   3.682  11.144  0.5385  0.4588 -0.5771
   82SAPS  O13A 7621   3.431   3.574  11.187  1.1287  0.2571  0.0584
   82SAPS  O13B 7622   3.466   3.778  11.126 -0.5490 -0.4011 -0.8746
   82SAPS   C11 7623   3.261   3.754  10.930 -0.3451  0.3122  0.5608
   82SAPS  H11A 7624   3.333   3.681  10.886 -0.7420 -0.1842  0.7283
   82SAPS  H11B 7625   3.304   3.855  10.947  1.0847 -0.7861  3.7438
   82SAPS     P 7626   3.104   3.876  10.763  0.0149  0.5035 -0.0497
   82SAPS   O13 7627   3.000   3.830  10.661 -0.1247  0.0874 -0.1258
   82SAPS   O14 7628   3.070   3.987  10.851  0.3335  0.0200 -0.6702
   82SAPS   O12 7629   3.138   3.753  10.859 -0.3214  0.2798 -0.1397
   82SAPS   O11 7630   3.245   3.907  10.700  0.0977  0.2234  0.0221
   82SAPS    C1 7631   3.314   3.815  10.620  0.0293 -0.2034  0.4190
   82SAPS    HA 7632   3.407   3.798  10.679  0.9455  0.1466 -0.9065
   82SAPS    HB 7633   3.260   3.721  10.596 -2.4390  0.8563  1.6796
   82SAPS    C2 7634   3.366   3.873  10.476  0.1284 -0.2091  0.1531
   82SAPS    HS 7635   3.416   3.970  10.498  0.2916  0.3036 -2.3226
   82SAPS   O21 7636   3.248   3.885  10.399  0.0396 -0.3083 -0.3941
   82SAPS   C21 7637   3.193   4.003  10.389  0.4343  0.0983 -0.9785
   82SAPS   O22 7638   3.236   4.102  10.450 -0.0957  0.2546 -0.2592
   82SAPS   C22 7639   3.086   3.999  10.277  0.8022  0.3185 -0.3977
   82SAPS   H2R 7640   3.133   3.966  10.182  1.7706  0.3417  0.0684
   82SAPS   H2S 7641   3.021   3.919  10.319 -0.1271  2.2279  1.9648
   82SAPS    C3 7642   3.461   3.777  10.401 -0.9896  0.6799  0.5134
   82SAPS    HX 7643   3.414   3.677  10.386  0.6655 -0.3411  1.8492
   82SAPS    HY 7644   3.548   3.756  10.468  0.4741 -0.8959 -1.8144
   82SAPS   O31 7645   3.503   3.830  10.278  0.4229  0.1666  0.2916
   82SAPS   C31 7646   3.588   3.932  10.285  0.1489  0.3863 -0.3868
   82SAPS   O32 7647   3.637   3.982  10.388  0.0155 -0.4377 -0.2626
   82SAPS   C32 7648   3.631   3.955  10.142  0.1116  0.1914 -0.3565
   82SAPS   H2X 7649   3.601   3.866  10.083  1.3595 -1.5473  1.5532
   82SAPS   H2Y 7650   3.741   3.952  10.135  0.1525  0.6084  0.0686
   82SAPS   C23 7651   3.005   4.137  10.265 -0.3512 -0.3787 -0.0824
   82SAPS   H3R 7652   3.073   4.193  10.197  2.8489 -4.3283 -0.3470
   82SAPS   H3S 7653   2.981   4.179  10.364 -1.1366  0.1463 -0.4906
   82SAPS   C24 7654   2.860   4.105  10.214  0.7158 -0.4425  0.2343
   82SAPS   H4R 7655   2.786   4.166  10.269 -1.3061 -1.1827 -1.6097
   82SAPS   H4S 7656   2.839   4.000  10.243  0.4709 -0.3867  0.2588
   82SAPS   C25 7657   2.835   4.132  10.073  0.2008  0.3040  0.5574
   82SAPS   H5R 7658   2.840   4.237  10.040  1.1862  0.2050  0.3579
   82SAPS   C26 7659   2.807   4.036   9.980 -0.1320 -0.1331 -0.2291
   82SAPS   H6R 7660   2.792   4.068   9.876  1.1615 -0.2126 -0.4578
   82SAPS   C27 7661   2.800   3.883   9.995  0.1249 -0.0361  0.6461
   82SAPS   H7R 7662   2.804   3.849  10.100 -1.8792 -2.3325  0.0095
   82SAPS   H7S 7663   2.893   3.845   9.947  1.9612  1.3501  2.9920
   82SAPS   C28 7664   2.675   3.832   9.919  0.6278 -0.3501 -0.5611
   82SAPS   H8R 7665   2.587   3.796   9.976  1.6499  1.4334  2.2257
   82SAPS   C29 7666   2.651   3.824   9.786 -0.3815  0.3744  0.3441
   82SAPS   H9R 7667   2.557   3.771   9.765  0.3224 -0.6003 -0.3848
   82SAPS  C210 7668   2.742   3.864   9.671  0.3068  0.1515 -0.1491
   82SAPS  H10R 7669   2.772   3.971   9.680  1.0513 -0.1023  0.5299
   82SAPS  H10S 7670   2.680   3.860   9.579 -1.7161  1.4566  1.1254
   82SAPS  C211 7671   2.862   3.774   9.661 -0.6845 -0.4762  0.3895
   82SAPS  H11R 7672   2.918   3.771   9.755 -2.1199 -1.1386  1.2446
   82SAPS  C212 7673   2.918   3.700   9.554  0.1008 -0.7784  0.2653
   82SAPS  H12R 7674   3.009   3.644   9.579 -1.6262 -4.2664 -1.0112
   82SAPS  C213 7675   2.850   3.670   9.422 -0.4429  0.2992 -0.1378
   82SAPS  H13R 7676   2.762   3.735   9.405 -1.3863 -1.0882 -0.6490
   82SAPS  H13S 7677   2.811   3.566   9.416  1.0862 -0.3103  0.2436
   82SAPS  C214 7678   2.963   3.667   9.322  0.7474 -0.3799  0.1713
   82SAPS  H14R 7679   3.013   3.570   9.316  1.7056  0.0381  1.2592
   82SAPS  C215 7680   3.002   3.765   9.237 -0.4256  0.0663  0.4435
   82SAPS  H15R 7681   3.097   3.759   9.183  1.3035  2.3439  3.1000
   82SAPS  C216 7682   2.938   3.899   9.218 -0.4732 -0.5633  0.2983
   82SAPS  H16R 7683   3.009   3.974   9.261 -0.5933 -0.0484 -0.3976
   82SAPS  H16S 7684   2.848   3.908   9.282  0.8003  3.8340  1.6715
   82SAPS  C217 7685   2.908   3.937   9.071  0.0195  0.0183 -0.2136
   82SAPS  H17R 7686   2.875   4.043   9.080  3.3634  1.1233  0.0196
   82SAPS  H17S 7687   2.834   3.871   9.022 -1.3927 -1.3443  3.5894
   82SAPS  C218 7688   3.030   3.944   8.978  0.4086  0.6252  1.1056
   82SAPS  H18R 7689   3.091   3.851   8.981 -1.8414 -0.8175  3.6159
   82SAPS  H18S 7690   3.088   4.033   9.013  1.1941 -0.0263  1.4697
   82SAPS  C219 7691   2.995   3.977   8.830 -0.3549  0.2010 -0.9723
   82SAPS  H19R 7692   2.922   4.059   8.815 -1.2997 -0.4374 -0.0065
   82SAPS  H19S 7693   2.957   3.884   8.783  3.7715 -0.8488 -2.4466
   82SAPS  C220 7694   3.113   4.014   8.743 -0.1042  0.0347 -0.2179
   82SAPS  H20R 7695   3.193   3.939   8.759 -1.4308 -1.3270  0.1430
   82SAPS  H20S 7696   3.151   4.111   8.782  0.0842  0.5310 -1.5956
   82SAPS  H20T 7697   3.109   4.025   8.632  1.1332  0.1039 -0.2585
   82SAPS   C33 7698   3.581   4.088  10.077 -0.6275 -0.2474 -0.6737
   82SAPS   H3X 7699   3.599   4.078   9.968 -1.1182 -0.1915 -0.7618
   82SAPS   H3Y 7700   3.639   4.176  10.112 -1.7858  0.0019  0.6918
   82SAPS   C34 7701   3.430   4.114  10.079  0.8696 -0.0549 -0.0751
   82SAPS   H4X 7702   3.391   4.151  10.176  0.7409 -1.4232  0.4048
   82SAPS   H4Y 7703   3.386   4.012  10.068  3.8486 -1.7730  3.1559
   82SAPS   C35 7704   3.380   4.206   9.961  0.1303 -0.4977  0.4807
   82SAPS   H5X 7705   3.396   4.156   9.863 -2.4781  0.5544 -0.5207
   82SAPS   H5Y 7706   3.455   4.287   9.968  1.6725 -1.9467  1.0769
   82SAPS   C36 7707   3.246   4.267   9.986  0.2904 -0.4865 -0.3670
   82SAPS   H6X 7708   3.235   4.302  10.091  0.1351 -1.8713  0.0940
   82SAPS   H6Y 7709   3.175   4.182   9.988 -3.2028  2.3367  3.0244
   82SAPS   C37 7710   3.202   4.377   9.888 -0.6294 -0.3585 -0.3801
   82SAPS   H7X 7711   3.279   4.456   9.896 -1.0577  0.0115  0.1102
   82SAPS   H7Y 7712   3.106   4.423   9.920  0.7876  2.5583 -0.1925
   82SAPS   C38 7713   3.165   4.333   9.744 -0.3628 -0.0669 -0.2801
   82SAPS   H8X 7714   3.256   4.296   9.692 -1.7609 -0.4378 -2.5258
   82SAPS   H8Y 7715   3.130   4.422   9.687  1.4355  2.1820  2.0485
   82SAPS   C39 7716   3.045   4.232   9.738 -0.3168 -0.2699 -0.4559
   82SAPS   H9X 7717   2.966   4.274   9.804  0.2769  1.9491 -1.1232
   82SAPS   H9Y 7718   3.077   4.134   9.779  1.9435  0.7010  0.2287
   82SAPS  C310 7719   2.989   4.217   9.598 -0.1692  0.8285  0.2898
   82SAPS  H10X 7720   2.946   4.115   9.586  2.0262 -0.1019 -0.0127
   82SAPS  H10Y 7721   3.075   4.235   9.529  1.5539  0.3985  2.2834
   82SAPS  C311 7722   2.886   4.323   9.564 -0.3599  0.1369  0.5084
   82SAPS  H11X 7723   2.931   4.424   9.573  2.3018 -0.9197 -0.2623
   82SAPS  H11Y 7724   2.796   4.306   9.627 -0.3721 -0.1077  0.4247
   82SAPS  C312 7725   2.820   4.318   9.424 -0.5226 -0.6310 -0.4229
   82SAPS  H12X 7726   2.734   4.388   9.425 -0.6375 -0.6899 -2.9632
   82SAPS  H12Y 7727   2.780   4.216   9.403 -0.6193 -0.5471 -0.6427
   82SAPS  C313 7728   2.909   4.367   9.307 -0.2985 -0.2567  0.2937
   82SAPS  H13X 7729   3.009   4.318   9.318 -0.3598 -0.0595  1.8210
   82SAPS  H13Y 7730   2.916   4.478   9.302  1.5537 -0.4027 -0.6726
   82SAPS  C314 7731   2.843   4.334   9.170 -0.1173  1.0467  0.3802
   82SAPS  H14X 7732   2.748   4.390   9.164  0.3818  1.6302 -2.4349
   82SAPS  H14Y 7733   2.815   4.228   9.155 -0.5772  1.3822 -1.1904
   82SAPS  C315 7734   2.939   4.372   9.054 -0.0086 -0.4389 -0.5245
   82SAPS  H15X 7735   3.036   4.320   9.065 -0.2944 -1.2304 -1.7119
   82SAPS  H15Y 7736   2.962   4.481   9.062  2.3457 -1.0463  1.2191
   82SAPS  C316 7737   2.883   4.340   8.921  0.6340 -0.3832  0.9392
   82SAPS  H16X 7738   2.777   4.372   8.929  0.6925 -0.0020  0.2422
   82SAPS  H16Y 7739   2.882   4.229   8.923 -1.3267 -0.4455 -1.4813
   82SAPS  C317 7740   2.959   4.388   8.795 -0.0500 -1.0548  0.9492
   82SAPS  H17X 7741   3.048   4.322   8.779  0.5582  0.1851 -0.9726
   82SAPS  H17Y 7742   2.992   4.493   8.810 -2.8387  0.1189 -0.7017
   82SAPS  C318 7743   2.880   4.379   8.664  0.1865  0.3039 -0.6003
   82SAPS  H18X 7744   2.776   4.416   8.679  0.3949  0.6557 -0.0146
   82SAPS  H18Y 7745   2.864   4.272   8.638 -1.9737  0.9610 -2.1785
   82SAPS  H18Z 7746   2.939   4.426   8.582 -2.7430  1.6852 -2.0295
   83SAPS     N 7747   4.825   4.916  10.827 -0.1054  0.5352 -0.8624
   83SAPS   HN1 7748   4.905   4.979  10.849  0.5889 -0.5504 -0.2455
   83SAPS   HN2 7749   4.867   4.824  10.805 -0.6498 -0.7166  3.0370
   83SAPS   HN3 7750   4.771   4.951  10.745  1.4725  2.7813 -0.9891
   83SAPS   C12 7751   4.756   4.893  10.951 -0.1218 -0.2646 -0.0232
   83SAPS  H12A 7752   4.696   4.804  10.934  0.1898  0.1557 -3.6898
   83SAPS   C13 7753   4.846   4.856  11.062  0.4084  0.2098  0.0688
   83SAPS  O13A 7754   4.974   4.847  11.041  0.7454 -0.2083 -0.0286
   83SAPS  O13B 7755   4.791   4.857  11.175  0.2486 -0.1061 -0.3091
   83SAPS   C11 7756   4.669   5.019  10.981 -0.0796  0.0076  0.7523
   83SAPS  H11A 7757   4.604   5.003  11.070 -1.1078 -0.4324 -0.0731
   83SAPS  H11B 7758   4.606   5.022  10.890  0.9798  1.6803  0.0448
   83SAPS     P 7759   4.656   5.274  10.981  0.0959 -0.1413 -0.1495
   83SAPS   O13 7760   4.529   5.254  11.061  0.1830 -0.0495  0.0154
   83SAPS   O14 7761   4.739   5.389  11.032 -0.0952  0.2584 -0.2521
   83SAPS   O12 7762   4.742   5.147  10.989 -0.2779  0.1790 -0.1772
   83SAPS   O11 7763   4.616   5.273  10.828  0.0443 -0.5296  0.3479
   83SAPS    C1 7764   4.726   5.288  10.732  0.5684 -0.1005 -0.2899
   83SAPS    HA 7765   4.819   5.247  10.778  0.4570  0.8495  0.7986
   83SAPS    HB 7766   4.695   5.231  10.642  0.6761  0.2508 -0.5500
   83SAPS    C2 7767   4.754   5.442  10.703  0.2827 -0.0020  0.6611
   83SAPS    HS 7768   4.763   5.489  10.804  1.2101 -0.3010  0.7241
   83SAPS   O21 7769   4.641   5.496  10.635  0.5188 -0.1723 -0.5976
   83SAPS   C21 7770   4.634   5.624  10.621  0.2473 -0.0380  0.3455
   83SAPS   O22 7771   4.711   5.702  10.676  0.1725  0.0718 -0.4204
   83SAPS   C22 7772   4.533   5.665  10.508 -0.5033 -0.6070 -0.0887
   83SAPS   H2R 7773   4.540   5.588  10.429  2.1944  0.2421 -0.7361
   83SAPS   H2S 7774   4.440   5.648  10.565 -0.8754 -2.7322 -1.2895
   83SAPS    C3 7775   4.886   5.461  10.615  0.2162 -0.1183  0.9425
   83SAPS    HX 7776   4.960   5.400  10.671  1.9969  2.0912  1.0381
   83SAPS    HY 7777   4.904   5.570  10.617  0.1088 -0.1096  2.0806
   83SAPS   O31 7778   4.871   5.411  10.479  0.2103  0.1201  0.0635
   83SAPS   C31 7779   4.965   5.455  10.387 -0.4184  0.4522 -0.3063
   83SAPS   O32 7780   5.060   5.520  10.429  0.0287 -0.6955  0.1788
   83SAPS   C32 7781   4.938   5.422  10.237 -0.4332 -0.1038 -0.1129
   83SAPS   H2X 7782   4.954   5.313  10.220 -1.9615 -0.6855  1.9897
   83SAPS   H2Y 7783   5.008   5.494  10.191 -0.5157  0.3571  0.4875
   83SAPS   C23 7784   4.533   5.806  10.444  0.1225 -0.0378 -0.7783
   83SAPS   H3R 7785   4.630   5.816  10.390  0.5670  0.8845  0.1699
   83SAPS   H3S 7786   4.535   5.881  10.525 -0.9728 -0.2650 -0.5364
   83SAPS   C24 7787   4.410   5.824  10.360 -0.4287 -0.0301 -0.2199
   83SAPS   H4R 7788   4.325   5.803  10.428 -0.6922 -0.0116 -0.5430
   83SAPS   H4S 7789   4.409   5.751  10.277 -0.6624  1.0841 -1.2158
   83SAPS   C25 7790   4.387   5.966  10.334  0.0003 -0.1455  0.3638
   83SAPS   H5R 7791   4.372   6.028  10.424  1.5672  0.0014  0.5337
   83SAPS   C26 7792   4.372   6.024  10.217  0.5225 -0.1236  0.7078
   83SAPS   H6R 7793   4.361   6.133  10.208 -0.2563 -0.1556  1.2392
   83SAPS   C27 7794   4.381   5.954  10.077  0.4881 -0.0937 -0.6404
   83SAPS   H7R 7795   4.292   5.994  10.025  1.4057  1.1859 -1.2419
   83SAPS   H7S 7796   4.349   5.847  10.078 -0.2104  0.1165  0.3315
   83SAPS   C28 7797   4.510   5.992  10.004 -0.2807 -0.1047 -0.5416
   83SAPS   H8R 7798   4.598   5.969  10.066  0.3881  1.2047 -0.9805
   83SAPS   C29 7799   4.524   6.029   9.874  0.2587  1.0782 -0.6135
   83SAPS   H9R 7800   4.625   6.045   9.834  0.4219 -0.7365 -1.0046
   83SAPS  C210 7801   4.415   6.051   9.777  0.2701 -0.1067 -0.4670
   83SAPS  H10R 7802   4.313   6.013   9.798 -0.6795  2.3509 -0.4116
   83SAPS  H10S 7803   4.445   6.010   9.679  0.6291  2.6919 -1.5740
   83SAPS  C211 7804   4.392   6.199   9.765  0.3588 -0.3184  0.4131
   83SAPS  H11R 7805   4.328   6.235   9.846  0.4592  3.3329 -1.0309
   83SAPS  C212 7806   4.423   6.290   9.665 -0.3813  0.0616  0.8178
   83SAPS  H12R 7807   4.407   6.396   9.689 -0.9328 -0.2816  2.0041
   83SAPS  C213 7808   4.501   6.257   9.537 -0.0270  0.3370  1.0927
   83SAPS  H13R 7809   4.585   6.188   9.557 -0.5079 -0.7807 -0.6176
   83SAPS  H13S 7810   4.556   6.348   9.504 -1.0909  0.0836 -1.5325
   83SAPS  C214 7811   4.430   6.196   9.412 -0.5376 -0.4445 -0.1502
   83SAPS  H14R 7812   4.345   6.129   9.434 -2.4338  1.7182 -0.6032
   83SAPS  C215 7813   4.453   6.229   9.284 -0.1351  0.0123 -0.3442
   83SAPS  H15R 7814   4.406   6.165   9.208 -0.3111  0.3977 -0.5606
   83SAPS  C216 7815   4.549   6.329   9.240 -0.4481 -0.2826  0.5218
   83SAPS  H16R 7816   4.598   6.296   9.146  1.2952 -0.2326  1.3790
   83SAPS  H16S 7817   4.642   6.350   9.297  0.2437 -2.2941  0.1516
   83SAPS  C217 7818   4.480   6.463   9.206 -0.1311 -0.7091 -0.2054
   83SAPS  H17R 7819   4.557   6.537   9.174 -1.2253  0.8137  0.5646
   83SAPS  H17S 7820   4.446   6.520   9.295 -1.6920  1.0176 -1.8621
   83SAPS  C218 7821   4.374   6.468   9.098  0.0574  0.4246  0.1628
   83SAPS  H18R 7822   4.343   6.573   9.075 -0.9866 -0.0512 -0.6075
   83SAPS  H18S 7823   4.284   6.416   9.136  1.2378 -0.0398  2.4463
   83SAPS  C219 7824   4.444   6.425   8.968 -0.4788 -0.0967  0.2698
   83SAPS  H19R 7825   4.483   6.323   8.985 -1.2208  0.0077  2.7388
   83SAPS  H19S 7826   4.528   6.492   8.937 -0.7366 -1.0009 -2.5034
   83SAPS  C220 7827   4.348   6.416   8.845 -0.4238 -0.0084 -0.2339
   83SAPS  H20R 7828   4.405   6.384   8.756 -0.0998  1.6327 -0.6327
   83SAPS  H20S 7829   4.294   6.512   8.837 -1.1309 -0.0837  2.9242
   83SAPS  H20T 7830   4.261   6.352   8.869 -0.1812 -0.1335  0.3338
   83SAPS   C33 7831   4.793   5.442  10.183 -0.3669 -0.6931  0.2227
   83SAPS   H3X 7832   4.708   5.394  10.236 -1.3052  1.3437  0.6117
   83SAPS   H3Y 7833   4.790   5.387  10.086 -1.1029 -1.1664  0.5118
   83SAPS   C34 7834   4.754   5.596  10.154 -0.5656  0.0615 -0.0432
   83SAPS   H4X 7835   4.835   5.664  10.189  0.5098  0.6267 -3.4169
   83SAPS   H4Y 7836   4.662   5.627  10.209 -1.5484 -1.0932 -0.9989
   83SAPS   C35 7837   4.728   5.620  10.005 -0.2663  0.2380 -0.3057
   83SAPS   H5X 7838   4.811   5.577   9.945 -0.6113 -1.3033  0.2932
   83SAPS   H5Y 7839   4.736   5.731   9.998 -0.8680  0.4614  2.0721
   83SAPS   C36 7840   4.602   5.551   9.952  0.3207 -0.1869 -0.3061
   83SAPS   H6X 7841   4.513   5.584  10.010 -0.1384 -1.2921 -0.3538
   83SAPS   H6Y 7842   4.613   5.442   9.974  1.8376 -0.4155 -2.1150
   83SAPS   C37 7843   4.583   5.567   9.799 -0.4890 -0.5495 -0.5683
   83SAPS   H7X 7844   4.513   5.490   9.760 -0.6937 -0.2807 -0.7386
   83SAPS   H7Y 7845   4.680   5.556   9.746  0.5178  1.5551  0.7882
   83SAPS   C38 7846   4.512   5.701   9.775 -0.2885 -0.1624 -0.1566
   83SAPS   H8X 7847   4.582   5.776   9.818 -1.6796  0.9269  0.2384
   83SAPS   H8Y 7848   4.418   5.696   9.835 -1.7019  0.4048 -2.2758
   83SAPS   C39 7849   4.486   5.734   9.623 -0.4773 -0.0117 -0.2789
   83SAPS   H9X 7850   4.425   5.826   9.612  0.5900  0.6807 -0.5154
   83SAPS   H9Y 7851   4.432   5.643   9.590 -1.5764  1.0048 -1.3032
   83SAPS  C310 7852   4.613   5.773   9.548 -0.1530  0.4332 -0.4640
   83SAPS  H10X 7853   4.681   5.686   9.535  1.4673  1.4606  0.9171
   83SAPS  H10Y 7854   4.676   5.846   9.603 -0.6911 -0.3498  1.2346
   83SAPS  C311 7855   4.600   5.830   9.400  0.0934  0.0032 -0.1819
   83SAPS  H11X 7856   4.537   5.921   9.402  0.7982  0.5084 -0.8086
   83SAPS  H11Y 7857   4.558   5.755   9.329  1.2519 -1.9065  1.0734
   83SAPS  C312 7858   4.735   5.869   9.341 -0.3087  0.4256  0.2429
   83SAPS  H12X 7859   4.794   5.777   9.319  0.2291  0.8206  0.0494
   83SAPS  H12Y 7860   4.805   5.916   9.412 -0.9085  1.9833 -0.1870
   83SAPS  C313 7861   4.714   5.957   9.217 -0.1548  0.3774 -0.4518
   83SAPS  H13X 7862   4.816   5.987   9.186  0.1556 -1.5962 -1.4457
   83SAPS  H13Y 7863   4.655   6.047   9.246  1.6557  0.9487  1.5686
   83SAPS  C314 7864   4.646   5.883   9.102 -0.7433 -0.1209  0.4390
   83SAPS  H14X 7865   4.549   5.832   9.121  0.2543 -1.6223  1.6762
   83SAPS  H14Y 7866   4.717   5.802   9.074 -1.8322 -0.2663 -2.0275
   83SAPS  C315 7867   4.622   5.977   8.979 -0.3669  0.1465 -0.5176
   83SAPS  H15X 7868   4.525   6.029   8.988 -1.4492 -1.9491  0.2601
   83SAPS  H15Y 7869   4.626   5.925   8.881 -1.3424  0.1982 -0.5836
   83SAPS  C316 7870   4.723   6.094   8.955 -0.3281  0.3628  0.2081
   83SAPS  H16X 7871   4.821   6.041   8.944  0.4603  1.8771 -0.2417
   83SAPS  H16Y 7872   4.739   6.163   9.040 -1.6573  2.9669 -1.5988
   83SAPS  C317 7873   4.699   6.177   8.827  0.5328  0.0990  0.3047
   83SAPS  H17X 7874   4.593   6.197   8.801  0.3163 -0.9267  0.3784
   83SAPS  H17Y 7875   4.729   6.114   8.740  1.5180 -1.8771  2.0150
   83SAPS  C318 7876   4.793   6.292   8.816  0.1591 -1.2377 -0.4217
   83SAPS  H18X 7877   4.795   6.354   8.908 -0.9570 -0.6676 -0.7704
   83SAPS  H18Y 7878   4.772   6.367   8.737 -0.0334 -1.9915 -1.0972
   83SAPS  H18Z 7879   4.898   6.257   8.808  0.7590  0.2531  0.6162
   84SAPS     N 7880   6.013   4.583  11.023 -0.0181 -0.0913 -0.0039
   84SAPS   HN1 7881   5.916   4.555  11.002 -0.6936  0.4175  2.2884
   84SAPS   HN2 7882   6.086   4.545  10.959  1.7211  0.0474  1.8256
   84SAPS   HN3 7883   6.028   4.544  11.119 -0.4000  0.3947  0.2542
   84SAPS   C12 7884   6.009   4.736  11.012  0.1573  0.4145 -0.6330
   84SAPS  H12A 7885   6.024   4.766  10.909  1.1411 -1.6019 -1.1040
   84SAPS   C13 7886   5.875   4.794  11.069 -1.3184  0.5100 -0.0627
   84SAPS  O13A 7887   5.783   4.722  11.113  0.6913 -0.1076  0.1312
   84SAPS  O13B 7888   5.864   4.918  11.059 -0.0134  0.5928  0.0199
   84SAPS   C11 7889   6.134   4.781  11.096 -0.6106  0.5107  0.3894
   84SAPS  H11A 7890   6.111   4.759  11.202  0.1454  0.7382  0.5974
   84SAPS  H11B 7891   6.133   4.891  11.081  2.1260 -0.0481 -5.4858
   84SAPS     P 7892   6.401   4.790  11.072  0.0081 -0.8879 -0.2682
   84SAPS   O13 7893   6.382   4.913  11.147  0.3475  0.8814 -0.8740
   84SAPS   O14 7894   6.490   4.696  11.145 -0.2599 -0.8387 -0.4296
   84SAPS   O12 7895   6.258   4.721  11.049 -0.0948 -0.2090 -0.0352
   84SAPS   O11 7896   6.445   4.831  10.925 -0.7959 -0.3183  0.2334
   84SAPS    C1 7897   6.464   4.739  10.823  0.4109  0.4090 -0.1914
   84SAPS    HA 7898   6.574   4.732  10.810  0.7292  1.5593  1.7680
   84SAPS    HB 7899   6.420   4.640  10.848 -0.7686  0.9267 -0.1949
   84SAPS    C2 7900   6.396   4.790  10.690  0.3681 -0.2894  0.2644
   84SAPS    HS 7901   6.391   4.714  10.609  0.1739  0.7449 -0.7051
   84SAPS   O21 7902   6.452   4.912  10.636 -0.0579  0.4510 -0.1139
   84SAPS   C21 7903   6.570   4.906  10.577  0.0528 -0.0284  0.4097
   84SAPS   O22 7904   6.642   4.812  10.578 -1.1315 -0.1995 -0.4615
   84SAPS   C22 7905   6.604   5.040  10.520 -0.1421 -0.0538  0.0045
   84SAPS   H2R 7906   6.658   5.101  10.597 -0.3630 -0.7932  0.7533
   84SAPS   H2S 7907   6.680   5.034  10.440 -0.8081 -0.2737 -0.6143
   84SAPS    C3 7908   6.244   4.820  10.713  0.2027  0.0288 -0.7786
   84SAPS    HX 7909   6.239   4.891  10.798 -2.9401 -0.4232 -0.5580
   84SAPS    HY 7910   6.196   4.725  10.744  0.9451  0.1503  0.7769
   84SAPS   O31 7911   6.197   4.889  10.595  0.2760 -0.3081  0.2501
   84SAPS   C31 7912   6.076   4.950  10.623 -0.1890 -0.3495  0.0992
   84SAPS   O32 7913   6.021   4.937  10.731 -0.0423 -0.2606 -0.4444
   84SAPS   C32 7914   6.037   5.044  10.511  0.3013  0.0463 -0.3073
   84SAPS   H2X 7915   6.120   5.118  10.507 -0.3777  0.8091 -0.3433
   84SAPS   H2Y 7916   5.943   5.093  10.543 -0.2349 -0.8906 -0.4244
   84SAPS   C23 7917   6.478   5.119  10.466 -0.2171  0.0493 -0.9113
   84SAPS   H3R 7918   6.509   5.226  10.459  1.0010 -0.3206 -1.3121
   84SAPS   H3S 7919   6.393   5.112  10.537  0.4852 -1.0626 -0.1470
   84SAPS   C24 7920   6.410   5.061  10.341 -0.1940 -0.4123 -0.0515
   84SAPS   H4R 7921   6.328   5.127  10.305  1.1358 -0.2224 -2.8823
   84SAPS   H4S 7922   6.376   4.961  10.372  0.6930 -0.3712  1.0797
   84SAPS   C25 7923   6.500   5.039  10.229 -0.1372  0.0567 -0.2247
   84SAPS   H5R 7924   6.558   4.946  10.238 -0.3879 -0.1490 -0.7415
   84SAPS   C26 7925   6.502   5.112  10.121  0.0438 -0.2875  0.1776
   84SAPS   H6R 7926   6.568   5.078  10.039 -1.2153 -2.5133  0.0411
   84SAPS   C27 7927   6.420   5.224  10.070  0.1573 -0.2936  0.0503
   84SAPS   H7R 7928   6.483   5.315  10.061  0.6668 -0.6354  0.1831
   84SAPS   H7S 7929   6.351   5.258  10.150 -0.1035  0.7333 -0.5981
   84SAPS   C28 7930   6.322   5.186   9.958 -0.5617 -0.5168  0.9704
   84SAPS   H8R 7931   6.279   5.085   9.961 -0.3594 -0.6716 -0.7404
   84SAPS   C29 7932   6.302   5.257   9.842 -0.1345 -0.7705  0.5663
   84SAPS   H9R 7933   6.232   5.219   9.766  0.5465  2.4774 -1.7871
   84SAPS  C210 7934   6.355   5.387   9.796 -0.7643  0.6672 -0.7305
   84SAPS  H10R 7935   6.424   5.379   9.709  0.5632  1.8447  0.1990
   84SAPS  H10S 7936   6.415   5.433   9.877 -1.0109  0.4814 -0.4433
   84SAPS  C211 7937   6.239   5.479   9.763 -0.6400 -0.4966 -0.2924
   84SAPS  H11R 7938   6.188   5.511   9.855  1.7418  3.9057 -0.3587
   84SAPS  C212 7939   6.195   5.518   9.645  0.0725 -0.7066 -0.3102
   84SAPS  H12R 7940   6.116   5.595   9.645  0.3691 -0.3581  1.7568
   84SAPS  C213 7941   6.245   5.473   9.513 -0.5453  0.2501  0.0169
   84SAPS  H13R 7942   6.150   5.463   9.456 -0.4161  0.2599 -0.2060
   84SAPS  H13S 7943   6.302   5.378   9.513 -1.5030 -0.3507 -1.3849
   84SAPS  C214 7944   6.330   5.572   9.440 -0.4466  0.2274 -0.6825
   84SAPS  H14R 7945   6.394   5.630   9.508 -1.5279  0.1764  0.4192
   84SAPS  C215 7946   6.333   5.601   9.307  0.0291 -0.3196 -0.2249
   84SAPS  H15R 7947   6.396   5.685   9.273 -0.7760  0.2696 -0.2649
   84SAPS  C216 7948   6.248   5.530   9.197  0.6456  0.2381 -0.0793
   84SAPS  H16R 7949   6.251   5.593   9.105 -0.9698 -0.7955 -0.8499
   84SAPS  H16S 7950   6.141   5.519   9.223  0.8370 -0.4257  0.4278
   84SAPS  C217 7951   6.286   5.387   9.160  0.4789  0.9555 -0.3347
   84SAPS  H17R 7952   6.205   5.340   9.100  1.8463 -0.5931 -1.0538
   84SAPS  H17S 7953   6.305   5.326   9.251 -0.1517 -2.1933 -2.1990
   84SAPS  C218 7954   6.408   5.393   9.079  0.0886 -0.0826 -0.0799
   84SAPS  H18R 7955   6.497   5.423   9.139 -0.0139  0.7697 -0.3356
   84SAPS  H18S 7956   6.398   5.478   9.007 -0.0598  0.0157  0.0555
   84SAPS  C219 7957   6.444   5.270   9.009  0.4995 -0.5355 -0.2627
   84SAPS  H19R 7958   6.492   5.294   8.912  1.1125  0.3957  0.2593
   84SAPS  H19S 7959   6.356   5.205   8.991  2.4497 -2.6561 -2.5383
   84SAPS  C220 7960   6.546   5.189   9.095 -0.0485 -0.8296 -0.5022
   84SAPS  H20R 7961   6.560   5.084   9.062 -0.7204 -1.0869  0.0210
   84SAPS  H20S 7962   6.519   5.184   9.203 -0.6802 -0.6702 -0.6485
   84SAPS  H20T 7963   6.639   5.249   9.091 -1.5623  1.6736  0.5699
   84SAPS   C33 7964   6.024   4.974  10.378  0.0229 -0.4144  0.0479
   84SAPS   H3X 7965   5.940   4.902  10.364  1.0836 -1.3416 -1.7603
   84SAPS   H3Y 7966   6.106   4.901  10.361  1.5028  1.3284 -0.5667
   84SAPS   C34 7967   6.018   5.068  10.257 -0.0776 -0.1236  0.2679
   84SAPS   H4X 7968   6.108   5.131  10.241 -0.5572  0.7286  0.8919
   84SAPS   H4Y 7969   5.939   5.141  10.284  1.6662  1.9837 -0.2728
   84SAPS   C35 7970   5.980   4.997  10.129 -0.8446 -0.3973 -0.0105
   84SAPS   H5X 7971   5.887   4.939  10.142 -0.3260 -0.7957  2.0329
   84SAPS   H5Y 7972   6.067   4.931  10.109  0.5277  1.0172  1.1589
   84SAPS   C36 7973   5.933   5.078  10.007  0.2865  0.3300  0.4589
   84SAPS   H6X 7974   6.023   5.131   9.967  1.0993 -1.8802 -0.7093
   84SAPS   H6Y 7975   5.849   5.142  10.040 -1.1601 -1.7522  0.8945
   84SAPS   C37 7976   5.886   4.976   9.903  0.2735  0.1204 -0.2532
   84SAPS   H7X 7977   5.787   4.936   9.935  1.0426 -1.4607  0.2326
   84SAPS   H7Y 7978   5.956   4.893   9.879  0.2329 -0.4997  1.6378
   84SAPS   C38 7979   5.838   5.053   9.778  0.1047 -0.7533  0.1771
   84SAPS   H8X 7980   5.794   5.150   9.809  1.6556 -0.3345  1.1247
   84SAPS   H8Y 7981   5.763   4.992   9.724  1.8940 -0.5368 -2.6953
   84SAPS   C39 7982   5.940   5.091   9.672 -0.4897 -0.0602 -0.3626
   84SAPS   H9X 7983   6.000   5.006   9.633 -3.1100 -2.3660  0.5483
   84SAPS   H9Y 7984   6.009   5.173   9.704  1.4031 -1.3956 -0.9018
   84SAPS  C310 7985   5.854   5.152   9.553 -0.2754 -0.1753 -0.0779
   84SAPS  H10X 7986   5.761   5.192   9.600  0.1932  2.6401 -1.4340
   84SAPS  H10Y 7987   5.819   5.068   9.488 -0.5910  1.3803 -1.9824
   84SAPS  C311 7988   5.933   5.258   9.468 -0.4598 -0.4831  0.4066
   84SAPS  H11X 7989   6.031   5.211   9.443  0.0471  0.1682  1.1505
   84SAPS  H11Y 7990   5.941   5.349   9.531 -0.1932 -0.2513  0.0408
   84SAPS  C312 7991   5.856   5.309   9.342  0.2500  0.2120  0.3179
   84SAPS  H12X 7992   5.909   5.398   9.301 -0.2541  0.0374 -0.7268
   84SAPS  H12Y 7993   5.757   5.333   9.385 -1.5947 -3.4203 -1.6649
   84SAPS  C313 7994   5.846   5.212   9.221  0.3031  0.4572  0.3947
   84SAPS  H13X 7995   5.806   5.119   9.267 -1.7751  0.7241 -0.8362
   84SAPS  H13Y 7996   5.950   5.198   9.183 -1.2085 -0.9022 -3.4501
   84SAPS  C314 7997   5.771   5.275   9.108 -0.4421  0.3462 -0.6665
   84SAPS  H14X 7998   5.827   5.355   9.056 -0.7287  1.1039  0.1708
   84SAPS  H14Y 7999   5.686   5.324   9.161 -0.3923  0.2713 -0.5185
   84SAPS  C315 8000   5.715   5.168   9.014 -0.3338 -0.0936  0.0436
   84SAPS  H15X 8001   5.677   5.082   9.073  1.6782 -0.1840  1.2312
   84SAPS  H15Y 8002   5.801   5.135   8.953  0.8796 -1.5988  2.4914
   84SAPS  C316 8003   5.600   5.224   8.926 -1.0076  0.8115  0.2754
   84SAPS  H16X 8004   5.633   5.306   8.859  0.3228  1.2612  1.4773
   84SAPS  H16Y 8005   5.518   5.256   8.994 -1.7491 -0.7903  0.1691
   84SAPS  C317 8006   5.522   5.121   8.848  0.1477  0.1586 -0.2902
   84SAPS  H17X 8007   5.498   5.039   8.920  0.4837  2.6703  2.7611
   84SAPS  H17Y 8008   5.578   5.075   8.764  1.3311 -1.0481  1.1253
   84SAPS  C318 8009   5.384   5.164   8.797 -0.1541  0.6370 -0.1808
   84SAPS  H18X 8010   5.382   5.259   8.740 -2.4730  2.0803  2.1814
   84SAPS  H18Y 8011   5.311   5.167   8.881  1.5605  1.6346  1.3288
   84SAPS  H18Z 8012   5.358   5.085   8.724 -2.0257 -0.5445  1.6831
   85SAPS     N 8013   2.649   6.601  11.058 -0.0989  0.1110  0.0416
   85SAPS   HN1 8014   2.667   6.615  10.957 -0.0286  1.8729  0.2817
   85SAPS   HN2 8015   2.722   6.536  11.095  0.6719  1.3626  0.7173
   85SAPS   HN3 8016   2.558   6.552  11.073 -0.8331  1.7192  0.9199
   85SAPS   C12 8017   2.664   6.741  11.116 -0.0949  0.2469 -0.0603
   85SAPS  H12A 8018   2.592   6.806  11.068  0.3354  0.3398 -0.5757
   85SAPS   C13 8019   2.646   6.764  11.268  0.5417  0.1427  0.6054
   85SAPS  O13A 8020   2.630   6.664  11.346  0.0884 -0.1541 -0.0169
   85SAPS  O13B 8021   2.634   6.877  11.320  0.1795 -0.1395  0.4704
   85SAPS   C11 8022   2.806   6.798  11.086  0.0440 -0.4567  0.3971
   85SAPS  H11A 8023   2.885   6.764  11.156  1.1396  0.6171 -0.3160
   85SAPS  H11B 8024   2.792   6.907  11.105 -0.2383 -0.6733  1.5224
   85SAPS     P 8025   2.838   6.864  10.843  0.2461  0.2032  0.1206
   85SAPS   O13 8026   2.889   6.804  10.717 -0.1187 -0.0588 -0.0439
   85SAPS   O14 8027   2.705   6.927  10.841 -0.4682 -0.1607  0.2545
   85SAPS   O12 8028   2.842   6.749  10.958 -0.1437  0.5502  0.2356
   85SAPS   O11 8029   2.939   6.973  10.894  0.3950 -0.3333  0.0895
   85SAPS    C1 8030   3.080   6.958  10.854  0.5554 -0.3603  0.4548
   85SAPS    HA 8031   3.133   6.937  10.949 -1.8207  0.1359  1.9106
   85SAPS    HB 8032   3.109   6.868  10.795  0.7033 -0.5971  0.8902
   85SAPS    C2 8033   3.136   7.092  10.784  0.6803  0.4391 -0.4450
   85SAPS    HS 8034   3.097   7.175  10.846 -0.7287  0.0867 -0.8296
   85SAPS   O21 8035   3.084   7.097  10.650 -0.3218  0.1182 -0.3864
   85SAPS   C21 8036   3.060   7.218  10.607 -0.1697 -0.0896  0.0130
   85SAPS   O22 8037   3.097   7.317  10.660 -0.6373 -0.4554 -0.5553
   85SAPS   C22 8038   2.978   7.218  10.478 -0.3827  0.1925  0.0767
   85SAPS   H2R 8039   2.901   7.141  10.500 -0.6872  0.3383 -0.4626
   85SAPS   H2S 8040   2.942   7.322  10.464 -2.2797 -0.6094 -1.1540
   85SAPS    C3 8041   3.293   7.110  10.775  0.6670  0.2317  0.9227
   85SAPS    HX 8042   3.322   7.089  10.880  0.7240 -0.4704  0.7691
   85SAPS    HY 8043   3.317   7.213  10.741 -1.0354  0.9115  1.7119
   85SAPS   O31 8044   3.357   7.016  10.681  0.0259  1.1158 -0.0071
   85SAPS   C31 8045   3.390   6.896  10.720 -0.0692  0.1493  0.0095
   85SAPS   O32 8046   3.370   6.846  10.836  0.5484  0.1369 -0.0079
   85SAPS   C32 8047   3.435   6.815  10.599 -0.1256  0.0388 -0.1605
   85SAPS   H2X 8048   3.532   6.861  10.570  1.5253 -3.5578 -0.5218
   85SAPS   H2Y 8049   3.357   6.836  10.522  0.0005  1.5582  0.1137
   85SAPS   C23 8050   3.070   7.173  10.367  0.4384  0.2560  0.2485
   85SAPS   H3R 8051   3.138   7.095  10.406 -0.4864  0.7558  2.9864
   85SAPS   H3S 8052   3.146   7.245  10.331 -0.3562  0.1681 -1.6713
   85SAPS   C24 8053   2.987   7.123  10.243  0.6898  0.1210  0.5923
   85SAPS   H4R 8054   2.925   7.040  10.284  0.2881 -1.1521 -2.4629
   85SAPS   H4S 8055   3.062   7.082  10.172  0.9829  0.8404  0.4830
   85SAPS   C25 8056   2.902   7.222  10.177 -0.3100 -0.2805 -0.6621
   85SAPS   H5R 8057   2.810   7.268  10.217 -0.3592  0.4738 -1.6075
   85SAPS   C26 8058   2.920   7.259  10.045  0.0529 -0.4749 -0.2403
   85SAPS   H6R 8059   2.848   7.329  10.001  0.9934  1.7924  1.6565
   85SAPS   C27 8060   3.032   7.220   9.948 -0.2380  0.5212  0.6333
   85SAPS   H7R 8061   3.106   7.157  10.002  0.0481 -1.5184 -2.0608
   85SAPS   H7S 8062   3.086   7.312   9.917  0.1763 -0.4360 -1.5822
   85SAPS   C28 8063   2.972   7.149   9.826 -0.2347  0.4539  0.5418
   85SAPS   H8R 8064   2.972   7.039   9.817  0.7092  0.2986  2.1572
   85SAPS   C29 8065   2.915   7.216   9.728  0.6316 -0.2515 -0.1364
   85SAPS   H9R 8066   2.862   7.156   9.652  1.3600 -1.6199  0.4183
   85SAPS  C210 8067   2.885   7.359   9.706 -0.5321 -0.4194 -0.3423
   85SAPS  H10R 8068   2.945   7.415   9.780 -1.2448 -0.6203  0.3847
   85SAPS  H10S 8069   2.777   7.365   9.729 -0.5869 -2.0741 -0.0848
   85SAPS  C211 8070   2.924   7.393   9.563  0.2468  0.0975 -0.2031
   85SAPS  H11R 8071   3.013   7.339   9.528  0.8123  1.7695 -1.4022
   85SAPS  C212 8072   2.886   7.494   9.490 -0.2782  0.3084  0.2360
   85SAPS  H12R 8073   2.933   7.510   9.391  1.6671 -3.1778  0.5219
   85SAPS  C213 8074   2.782   7.595   9.531 -0.3222 -0.0037  0.1259
   85SAPS  H13R 8075   2.762   7.608   9.640 -2.7237  0.0067 -0.2851
   85SAPS  H13S 8076   2.685   7.567   9.486 -1.1898 -0.7270  2.3746
   85SAPS  C214 8077   2.815   7.723   9.469  0.3051 -0.6714  0.4228
   85SAPS  H14R 8078   2.883   7.782   9.532  0.3938 -0.2986 -0.0205
   85SAPS  C215 8079   2.771   7.778   9.357 -0.0380  0.3305  0.1925
   85SAPS  H15R 8080   2.825   7.869   9.331 -0.2874  0.4001 -0.0895
   85SAPS  C216 8081   2.677   7.710   9.253 -0.5666 -0.7594 -0.0858
   85SAPS  H16R 8082   2.601   7.782   9.217 -0.4730 -0.5286  0.1770
   85SAPS  H16S 8083   2.629   7.613   9.279  0.1137 -1.2148 -0.5079
   85SAPS  C217 8084   2.755   7.670   9.122 -0.5990 -0.9753  0.0695
   85SAPS  H17R 8085   2.852   7.618   9.137 -0.3204 -0.9837 -1.7210
   85SAPS  H17S 8086   2.777   7.769   9.077 -0.2598 -1.6739 -1.3225
   85SAPS  C218 8087   2.666   7.609   9.023  0.6019  0.2299 -0.0529
   85SAPS  H18R 8088   2.579   7.675   9.002  1.1575  1.5901  1.8019
   85SAPS  H18S 8089   2.628   7.509   9.053 -1.1580  1.2164  1.0781
   85SAPS  C219 8090   2.749   7.581   8.888 -0.4113 -0.2063 -0.7568
   85SAPS  H19R 8091   2.788   7.478   8.885  1.6784  0.5787 -1.1034
   85SAPS  H19S 8092   2.841   7.641   8.901 -2.2606  2.6749 -0.4049
   85SAPS  C220 8093   2.678   7.616   8.758  0.4034  0.4535  0.0765
   85SAPS  H20R 8094   2.737   7.578   8.672 -2.2253 -0.9334 -1.1814
   85SAPS  H20S 8095   2.669   7.726   8.750 -0.9958  0.2510 -1.4507
   85SAPS  H20T 8096   2.575   7.574   8.757  0.4074  0.3788 -3.1398
   85SAPS   C33 8097   3.441   6.658  10.620  0.8993 -0.6263  0.8326
   85SAPS   H3X 8098   3.342   6.622  10.653  1.3381 -0.1930  2.6587
   85SAPS   H3Y 8099   3.516   6.641  10.700  3.0589 -1.8296 -1.3552
   85SAPS   C34 8100   3.481   6.593  10.488 -0.4366 -0.2363  0.2537
   85SAPS   H4X 8101   3.418   6.623  10.402  0.0795  3.8400  1.1996
   85SAPS   H4Y 8102   3.474   6.483  10.501  2.1992 -0.3798  0.7796
   85SAPS   C35 8103   3.636   6.618  10.455  0.1760  0.2417 -0.2895
   85SAPS   H5X 8104   3.685   6.567  10.540  1.1810  0.2066 -0.8804
   85SAPS   H5Y 8105   3.665   6.725  10.461 -2.0191  0.9153 -1.2476
   85SAPS   C36 8106   3.692   6.547  10.330 -0.0303  0.0069 -1.1104
   85SAPS   H6X 8107   3.648   6.446  10.314 -1.4427  0.4376 -0.0024
   85SAPS   H6Y 8108   3.800   6.523  10.335 -0.5431 -2.2058 -0.0425
   85SAPS   C37 8109   3.662   6.632  10.213 -0.2581  0.0509  0.0117
   85SAPS   H7X 8110   3.695   6.737  10.229 -0.1924  0.1494 -0.7625
   85SAPS   H7Y 8111   3.555   6.643  10.189  0.0833  1.4232 -0.9585
   85SAPS   C38 8112   3.731   6.582  10.078 -0.3116 -0.5032 -0.0517
   85SAPS   H8X 8113   3.716   6.473  10.066 -0.2111 -0.2289 -2.9312
   85SAPS   H8Y 8114   3.838   6.608  10.094 -0.0354 -1.2027 -0.7447
   85SAPS   C39 8115   3.687   6.664   9.959  0.3293  0.3403 -0.1527
   85SAPS   H9X 8116   3.689   6.772   9.987 -1.9701  0.4410 -0.2797
   85SAPS   H9Y 8117   3.580   6.641   9.941  0.5142 -2.0374  1.6455
   85SAPS  C310 8118   3.779   6.652   9.842  0.3802 -0.3508 -0.5357
   85SAPS  H10X 8119   3.784   6.545   9.812 -0.8323 -1.1674  2.0749
   85SAPS  H10Y 8120   3.886   6.665   9.867 -0.4326  0.0332  3.0113
   85SAPS  C311 8121   3.727   6.734   9.717  0.4355  0.9167  0.2248
   85SAPS  H11X 8122   3.714   6.842   9.739 -0.3505  1.0894 -1.0452
   85SAPS  H11Y 8123   3.624   6.700   9.691  1.0294 -0.0024 -0.9664
   85SAPS  C312 8124   3.824   6.711   9.595  0.1005 -1.2909 -0.4329
   85SAPS  H12X 8125   3.829   6.600   9.591 -0.0207 -1.3923  1.6763
   85SAPS  H12Y 8126   3.921   6.753   9.626 -0.6550 -0.5104  0.8785
   85SAPS  C313 8127   3.766   6.777   9.469 -0.7910 -0.5868 -1.3269
   85SAPS  H13X 8128   3.838   6.774   9.384  0.2628  2.6530 -0.6348
   85SAPS  H13Y 8129   3.741   6.884   9.488 -2.2637 -1.0461 -0.6281
   85SAPS  C314 8130   3.642   6.706   9.419 -0.8739  0.1565  0.2142
   85SAPS  H14X 8131   3.554   6.739   9.477 -0.3597  0.1061  1.0396
   85SAPS  H14Y 8132   3.662   6.596   9.426  0.1337  0.2684 -0.7581
   85SAPS  C315 8133   3.617   6.744   9.265 -0.1412  0.5531  0.9063
   85SAPS  H15X 8134   3.708   6.723   9.204  0.0644 -1.6122  1.8981
   85SAPS  H15Y 8135   3.619   6.855   9.263  2.1003  0.5271 -0.6044
   85SAPS  C316 8136   3.502   6.662   9.212 -0.0706  0.5019 -0.2709
   85SAPS  H16X 8137   3.410   6.697   9.262 -0.0423 -1.1458  0.9677
   85SAPS  H16Y 8138   3.512   6.554   9.236  0.9030  0.7887  0.6344
   85SAPS  C317 8139   3.481   6.684   9.060 -0.5242 -0.1670 -0.6320
   85SAPS  H17X 8140   3.403   6.617   9.017 -1.5511  1.5021 -1.3873
   85SAPS  H17Y 8141   3.577   6.654   9.013 -1.5112 -1.8848 -1.6173
   85SAPS  C318 8142   3.457   6.832   9.020  0.8726 -0.0654  0.0380
   85SAPS  H18X 8143   3.468   6.843   8.910  1.9070 -1.1957  0.0231
   85SAPS  H18Y 8144   3.522   6.904   9.075 -1.4762  0.8690  1.6631
   85SAPS  H18Z 8145   3.354   6.868   9.042  1.0065  0.2410  0.1611
   86SAPS     N 8146   5.503   6.737  10.969  0.6745  0.3091 -0.3602
   86SAPS   HN1 8147   5.513   6.763  10.868 -0.1334  1.8303 -0.0630
   86SAPS   HN2 8148   5.593   6.696  11.004 -0.7008 -0.3722  2.4861
   86SAPS   HN3 8149   5.421   6.674  10.977 -0.0951  1.4640  0.8156
   86SAPS   C12 8150   5.478   6.863  11.045 -0.1464 -0.1945 -0.3622
   86SAPS  H12A 8151   5.436   6.845  11.143  0.1823 -1.7746 -0.5120
   86SAPS   C13 8152   5.599   6.957  11.064  0.3310 -0.2365 -0.0375
   86SAPS  O13A 8153   5.710   6.921  11.029 -0.3653 -0.2368 -0.0860
   86SAPS  O13B 8154   5.583   7.066  11.127  0.1558  0.4278  0.3760
   86SAPS   C11 8155   5.367   6.945  10.965 -0.0456  0.0580 -0.3681
   86SAPS  H11A 8156   5.339   7.041  11.013  0.1452  0.0879 -0.3163
   86SAPS  H11B 8157   5.276   6.883  10.979 -0.2327  0.0691 -1.5342
   86SAPS     P 8158   5.278   7.017  10.733  0.3801  0.5739  0.0428
   86SAPS   O13 8159   5.157   7.052  10.813  0.4653  0.4265  0.2223
   86SAPS   O14 8160   5.327   7.108  10.635 -0.9011 -0.2133  0.4439
   86SAPS   O12 8161   5.402   6.966  10.822 -0.8290  0.1151  0.1051
   86SAPS   O11 8162   5.237   6.887  10.651 -0.3022  0.1308 -0.2326
   86SAPS    C1 8163   5.340   6.818  10.579  0.2947  0.1956 -0.4494
   86SAPS    HA 8164   5.439   6.824  10.628 -0.4684  0.2139  1.1043
   86SAPS    HB 8165   5.321   6.708  10.582 -1.0568  0.4597  1.8986
   86SAPS    C2 8166   5.353   6.862  10.431  0.1205 -0.6931 -0.4362
   86SAPS    HS 8167   5.379   6.969  10.434  0.9178 -0.9288  1.4679
   86SAPS   O21 8168   5.229   6.837  10.363  0.4367  0.7237  0.1746
   86SAPS   C21 8169   5.181   6.931  10.281  1.1623  0.8447  0.3071
   86SAPS   O22 8170   5.237   7.035  10.254  0.7114 -0.3535  0.4906
   86SAPS   C22 8171   5.046   6.892  10.224 -0.0916  0.2343  0.0279
   86SAPS   H2R 8172   5.059   6.787  10.191  0.8373  0.7040 -1.1317
   86SAPS   H2S 8173   4.971   6.898  10.305  2.5220 -0.9817  2.6400
   86SAPS    C3 8174   5.473   6.794  10.361 -0.4039 -0.0056  0.1640
   86SAPS    HX 8175   5.463   6.683  10.361 -2.2065  0.1447  0.0947
   86SAPS    HY 8176   5.566   6.823  10.414 -0.2977  0.5974 -0.3569
   86SAPS   O31 8177   5.469   6.820  10.219 -0.0048  0.1052  0.4485
   86SAPS   C31 8178   5.521   6.934  10.182 -0.5556 -0.4458 -0.2105
   86SAPS   O32 8179   5.575   7.020  10.253  0.1950 -0.3655 -0.2321
   86SAPS   C32 8180   5.500   6.957  10.030  0.3847 -0.4372  0.2633
   86SAPS   H2X 8181   5.550   7.055  10.014 -1.7070  0.6962  0.5115
   86SAPS   H2Y 8182   5.393   6.965  10.003  0.4845  2.6465  0.5949
   86SAPS   C23 8183   4.999   6.993  10.110 -0.0834  0.3966 -0.5594
   86SAPS   H3R 8184   5.079   6.998  10.032  0.2655 -3.2506 -0.5018
   86SAPS   H3S 8185   4.990   7.090  10.163 -0.5256  0.6241 -1.0481
   86SAPS   C24 8186   4.863   6.954  10.046  0.9412 -0.4274  0.0107
   86SAPS   H4R 8187   4.842   7.029   9.966 -0.9011  0.8654  1.6744
   86SAPS   H4S 8188   4.794   6.971  10.131  0.3648  0.3079 -0.5838
   86SAPS   C25 8189   4.842   6.815   9.988 -0.3386 -0.6618  0.1192
   86SAPS   H5R 8190   4.825   6.737  10.064  0.7501 -0.9070  0.1128
   86SAPS   C26 8191   4.846   6.779   9.860  1.2008  0.1276  0.0147
   86SAPS   H6R 8192   4.829   6.677   9.824 -2.5722  0.4421  0.7035
   86SAPS   C27 8193   4.881   6.879   9.749 -0.0339  0.1744  0.4137
   86SAPS   H7R 8194   4.970   6.848   9.690 -1.0786 -2.0434 -0.0776
   86SAPS   H7S 8195   4.921   6.969   9.800  1.5098 -0.4649  0.3824
   86SAPS   C28 8196   4.776   6.911   9.644 -1.0285 -0.6626  0.6557
   86SAPS   H8R 8197   4.750   7.018   9.648 -2.3076 -0.9579  0.3265
   86SAPS   C29 8198   4.734   6.827   9.545 -0.2548  0.2831 -0.0634
   86SAPS   H9R 8199   4.651   6.864   9.483  0.6742  0.2440 -1.3442
   86SAPS  C210 8200   4.785   6.683   9.527 -0.3863 -0.3275  0.0904
   86SAPS  H10R 8201   4.710   6.622   9.472  1.2766 -0.6878 -1.8483
   86SAPS  H10S 8202   4.791   6.634   9.627 -0.0739 -0.7238 -0.1142
   86SAPS  C211 8203   4.929   6.683   9.462  0.5143 -0.0267 -0.1058
   86SAPS  H11R 8204   5.015   6.664   9.528 -0.0766 -2.4088  0.0142
   86SAPS  C212 8205   4.948   6.701   9.330  0.1430  0.4345 -0.8340
   86SAPS  H12R 8206   5.054   6.701   9.299  0.4342 -1.2130  0.0898
   86SAPS  C213 8207   4.848   6.711   9.220  0.4540  0.0752 -0.1407
   86SAPS  H13R 8208   4.826   6.819   9.228  0.2745  0.0160  0.1891
   86SAPS  H13S 8209   4.752   6.666   9.254  0.5922  0.5889  0.9535
   86SAPS  C214 8210   4.874   6.656   9.082  0.4942  0.6346 -0.4286
   86SAPS  H14R 8211   4.827   6.716   9.003  1.7872  0.5465 -1.2666
   86SAPS  C215 8212   4.943   6.545   9.038  0.2183  0.0505 -0.4102
   86SAPS  H15R 8213   4.936   6.521   8.931  1.2746 -0.5648 -0.3424
   86SAPS  C216 8214   5.025   6.445   9.115 -0.3848 -0.4730  0.4702
   86SAPS  H16R 8215   4.961   6.355   9.098 -1.1690 -0.5044  3.3186
   86SAPS  H16S 8216   5.027   6.452   9.226  0.0283 -2.1172  0.5875
   86SAPS  C217 8217   5.161   6.407   9.053 -0.2021  0.5592  0.2162
   86SAPS  H17R 8218   5.235   6.488   9.072 -0.6244  0.7578  1.0170
   86SAPS  H17S 8219   5.149   6.419   8.943 -0.2475  0.9073  0.2602
   86SAPS  C218 8220   5.220   6.267   9.080 -0.0623  0.1701  0.6980
   86SAPS  H18R 8221   5.234   6.239   9.187 -1.5299 -0.6770  0.6802
   86SAPS  H18S 8222   5.327   6.277   9.051  0.0279 -0.4057  0.8352
   86SAPS  C219 8223   5.151   6.150   9.013 -0.7436  0.3953 -0.8131
   86SAPS  H19R 8224   5.046   6.177   9.038 -0.5880  0.7658 -0.5654
   86SAPS  H19S 8225   5.180   6.053   9.058 -1.0559  1.4532  1.7644
   86SAPS  C220 8226   5.175   6.153   8.866 -0.5109 -0.7706 -0.7925
   86SAPS  H20R 8227   5.283   6.160   8.843 -0.6848  1.9156 -0.9931
   86SAPS  H20S 8228   5.128   6.249   8.833  0.6644  1.5107  3.7143
   86SAPS  H20T 8229   5.127   6.072   8.808 -2.4787  0.2545 -0.6411
   86SAPS   C33 8230   5.581   6.861   9.944 -0.2623 -0.1937  0.3333
   86SAPS   H3X 8231   5.549   6.756   9.955 -2.1431  0.4348  0.9959
   86SAPS   H3Y 8232   5.688   6.871   9.973  0.2449  0.6295 -1.7554
   86SAPS   C34 8233   5.576   6.894   9.794  0.5469  0.4921 -0.3116
   86SAPS   H4X 8234   5.598   7.002   9.777  0.1803  0.6116 -0.0340
   86SAPS   H4Y 8235   5.468   6.882   9.772 -0.2077  2.4219  2.1134
   86SAPS   C35 8236   5.668   6.810   9.703  0.0107 -0.2718  0.5305
   86SAPS   H5X 8237   5.633   6.822   9.598  0.4195 -0.6932  0.3413
   86SAPS   H5Y 8238   5.669   6.705   9.739 -0.1107 -0.5740 -0.3281
   86SAPS   C36 8239   5.817   6.856   9.702 -0.3006  0.2817 -0.5620
   86SAPS   H6X 8240   5.859   6.797   9.785 -2.4410  0.2883  0.5772
   86SAPS   H6Y 8241   5.843   6.964   9.703  0.4863  0.0916  2.2203
   86SAPS   C37 8242   5.878   6.793   9.578  0.6172  0.9917  0.8865
   86SAPS   H7X 8243   5.852   6.687   9.557 -0.2746  1.2279  0.7759
   86SAPS   H7Y 8244   5.987   6.782   9.599  1.0368  2.3609 -0.5011
   86SAPS   C38 8245   5.856   6.878   9.447 -0.2868  0.0670 -0.1515
   86SAPS   H8X 8246   5.871   6.984   9.476 -1.8684 -0.5754  3.2953
   86SAPS   H8Y 8247   5.751   6.872   9.412  0.6574 -1.1790 -2.9769
   86SAPS   C39 8248   5.956   6.829   9.334 -0.1271  0.1468 -0.1451
   86SAPS   H9X 8249   5.898   6.748   9.285  0.0823  0.3217 -0.6996
   86SAPS   H9Y 8250   6.049   6.786   9.377  0.3176  0.8395 -0.4057
   86SAPS  C310 8251   5.992   6.927   9.225  0.3737  0.2931  0.0584
   86SAPS  H10X 8252   6.056   7.009   9.264  0.8163  0.0084 -0.0685
   86SAPS  H10Y 8253   5.897   6.981   9.203 -1.2949 -2.3634  0.5081
   86SAPS  C311 8254   6.030   6.877   9.093  0.1656 -0.4211 -0.2994
   86SAPS  H11X 8255   5.990   6.774   9.082  3.4891 -2.0167  1.7475
   86SAPS  H11Y 8256   6.137   6.850   9.108  0.4416  0.8190  0.0412
   86SAPS  C312 8257   5.994   6.963   8.963 -0.5608 -0.2981 -1.1741
   86SAPS  H12X 8258   5.884   6.968   8.948 -0.8591 -0.0580  0.8776
   86SAPS  H12Y 8259   6.043   6.900   8.886 -0.0522 -1.6611  0.2368
   86SAPS  C313 8260   6.063   7.100   8.964 -0.2469 -0.4057 -0.6073
   86SAPS  H13X 8261   6.108   7.113   8.863  0.5747 -0.8575 -0.2944
   86SAPS  H13Y 8262   6.147   7.095   9.036 -0.3235 -0.1741 -0.5002
   86SAPS  C314 8263   5.971   7.217   8.988  0.3085 -0.1262  0.1786
   86SAPS  H14X 8264   6.033   7.304   8.955 -1.0126  0.8778  0.3415
   86SAPS  H14Y 8265   5.937   7.225   9.093  1.0784 -0.9521  0.4945
   86SAPS  C315 8266   5.855   7.226   8.878 -0.3763  0.1632  0.7033
   86SAPS  H15X 8267   5.771   7.164   8.917 -0.6026  1.2058  1.8925
   86SAPS  H15Y 8268   5.881   7.181   8.780 -1.5854 -3.5334  1.9927
   86SAPS  C316 8269   5.814   7.367   8.841 -0.3577 -0.5164  0.5138
   86SAPS  H16X 8270   5.896   7.431   8.803 -0.0086 -1.1930  0.1139
   86SAPS  H16Y 8271   5.786   7.425   8.932 -1.1642  3.0412 -1.9058
   86SAPS  C317 8272   5.700   7.371   8.734 -0.6019  0.4748 -0.1085
   86SAPS  H17X 8273   5.642   7.278   8.755  1.7937 -1.8880 -3.3648
   86SAPS  H17Y 8274   5.746   7.344   8.637  0.9924 -1.2104  1.0840
   86SAPS  C318 8275   5.624   7.501   8.713 -0.6630  0.0102 -0.5298
   86SAPS  H18X 8276   5.547   7.518   8.791  0.6410 -0.3547  0.8695
   86SAPS  H18Y 8277   5.576   7.520   8.615  0.0874  0.8705 -0.7487
   86SAPS  H18Z 8278   5.703   7.579   8.717 -0.4423 -0.1329 -1.8700
   87SAPS     N 8279   6.084   1.277  10.742 -0.2471 -0.2459  0.1954
   87SAPS   HN1 8280   6.057   1.228  10.654  0.6504 -3.2190  1.5035
   87SAPS   HN2 8281   6.172   1.328  10.720  0.4985 -1.8707 -0.7093
   87SAPS   HN3 8282   6.114   1.207  10.813  1.1956 -0.6182 -0.7343
   87SAPS   C12 8283   5.997   1.397  10.778 -0.5534  0.2249  0.4153
   87SAPS  H12A 8284   6.057   1.458  10.843  2.7552 -1.9727 -0.4300
   87SAPS   C13 8285   5.966   1.494  10.665 -0.3710 -0.7895  0.0012
   87SAPS  O13A 8286   6.049   1.504  10.570  0.0199 -0.1671  0.5616
   87SAPS  O13B 8287   5.894   1.592  10.691 -1.1617 -0.3598  0.1457
   87SAPS   C11 8288   5.866   1.345  10.838  0.7611 -0.6974 -0.2224
   87SAPS  H11A 8289   5.799   1.429  10.867 -0.0970 -1.5562  0.3465
   87SAPS  H11B 8290   5.882   1.278  10.926  2.5793 -0.4379 -0.3513
   87SAPS     P 8291   5.642   1.241  10.749  0.5504  0.0374 -0.0635
   87SAPS   O13 8292   5.604   1.149  10.859  0.2997 -0.3049  0.2780
   87SAPS   O14 8293   5.582   1.378  10.758 -0.1075  0.6444 -0.2407
   87SAPS   O12 8294   5.796   1.253  10.743 -0.8689  0.3443 -0.2887
   87SAPS   O11 8295   5.610   1.173  10.612  0.0271  0.2667 -0.3153
   87SAPS    C1 8296   5.704   1.136  10.509  0.1849 -0.8149 -0.8758
   87SAPS    HA 8297   5.776   1.221  10.505 -1.1411  0.3427 -0.7031
   87SAPS    HB 8298   5.745   1.036  10.534  1.6079  0.0513  0.3579
   87SAPS    C2 8299   5.635   1.118  10.374 -0.5841 -0.3810  0.1254
   87SAPS    HS 8300   5.587   1.018  10.368 -1.7794  0.2046 -0.1698
   87SAPS   O21 8301   5.740   1.126  10.273 -0.2991 -1.3040 -0.0622
   87SAPS   C21 8302   5.816   1.029  10.268 -0.1118 -0.9922  0.2235
   87SAPS   O22 8303   5.803   0.920  10.322 -0.3413 -0.2117 -0.5256
   87SAPS   C22 8304   5.921   1.062  10.161  0.1858 -0.3748  0.0223
   87SAPS   H2R 8305   5.910   1.161  10.112  1.1831  0.4588  1.4602
   87SAPS   H2S 8306   6.023   1.053  10.203  0.9945  2.0282 -1.3646
   87SAPS    C3 8307   5.520   1.227  10.353 -0.0073 -0.1644 -0.3754
   87SAPS    HX 8308   5.565   1.326  10.374 -1.9965  1.0843 -1.8670
   87SAPS    HY 8309   5.442   1.213  10.430  1.1773 -1.0077  0.6872
   87SAPS   O31 8310   5.471   1.221  10.216 -0.1522 -0.2319  0.1835
   87SAPS   C31 8311   5.455   1.337  10.152 -0.0019 -0.8244  0.4574
   87SAPS   O32 8312   5.475   1.450  10.195  0.1115  0.0284  0.3761
   87SAPS   C32 8313   5.412   1.313  10.005  0.5428  0.4029 -0.5544
   87SAPS   H2X 8314   5.301   1.319   9.998  0.3235 -0.0186  2.0744
   87SAPS   H2Y 8315   5.453   1.212   9.987 -0.9208 -0.7121  2.1182
   87SAPS   C23 8316   5.915   0.957  10.048  0.0566  1.0919  0.4564
   87SAPS   H3R 8317   5.943   0.854  10.077  0.4196  1.2411  0.6309
   87SAPS   H3S 8318   5.992   0.978   9.970 -0.1312 -1.0692 -0.3290
   87SAPS   C24 8319   5.778   0.953   9.978 -0.3290  0.5260 -0.0011
   87SAPS   H4R 8320   5.708   0.913  10.054 -0.8251  2.1477  0.4088
   87SAPS   H4S 8321   5.782   0.870   9.904 -0.1630  0.0612  0.5236
   87SAPS   C25 8322   5.733   1.083   9.920  0.0713  0.5712  0.5395
   87SAPS   H5R 8323   5.710   1.163   9.992 -2.8853  0.9619 -0.7492
   87SAPS   C26 8324   5.735   1.123   9.794 -0.2862  0.1727  0.1785
   87SAPS   H6R 8325   5.689   1.221   9.772  2.1248  2.0168  2.8282
   87SAPS   C27 8326   5.787   1.036   9.679  0.0718  0.5972  0.1099
   87SAPS   H7R 8327   5.701   0.998   9.620  0.2159  0.7491 -0.1986
   87SAPS   H7S 8328   5.851   0.953   9.714 -0.6021 -0.0532 -0.1912
   87SAPS   C28 8329   5.873   1.124   9.593 -0.2290 -0.4299 -0.3653
   87SAPS   H8R 8330   5.965   1.157   9.644  0.6422  0.8554 -2.7051
   87SAPS   C29 8331   5.854   1.164   9.467 -0.3566 -0.0283 -0.3661
   87SAPS   H9R 8332   5.928   1.234   9.427 -1.0275  0.8050 -0.1720
   87SAPS  C210 8333   5.739   1.137   9.372 -0.0994 -0.7629  0.2224
   87SAPS  H10R 8334   5.642   1.144   9.426 -1.5031  1.7186 -2.4863
   87SAPS  H10S 8335   5.745   1.031   9.337 -1.0291  0.0754 -2.5810
   87SAPS  C211 8336   5.736   1.230   9.252 -0.4599 -0.2633 -0.8363
   87SAPS  H11R 8337   5.762   1.335   9.271 -0.1565 -0.7103  1.4387
   87SAPS  C212 8338   5.707   1.194   9.133 -0.5138  0.5126  0.6382
   87SAPS  H12R 8339   5.721   1.256   9.043  0.8738 -1.5712 -0.6233
   87SAPS  C213 8340   5.672   1.057   9.094  0.1057  0.3653  0.1282
   87SAPS  H13R 8341   5.612   1.010   9.174 -0.4080  0.8489  0.0277
   87SAPS  H13S 8342   5.765   0.998   9.078  0.3932  0.8072  0.1545
   87SAPS  C214 8343   5.581   1.028   8.975  0.0361  0.0718  0.2832
   87SAPS  H14R 8344   5.489   0.977   9.007 -0.8876  1.2981 -0.3699
   87SAPS  C215 8345   5.611   1.055   8.847 -0.0124 -0.3841  0.7044
   87SAPS  H15R 8346   5.532   1.040   8.772  0.8282 -1.1926 -0.0241
   87SAPS  C216 8347   5.742   1.110   8.786 -0.0607  0.5013  0.3996
   87SAPS  H16R 8348   5.765   1.051   8.695  0.9411  2.1674 -0.4526
   87SAPS  H16S 8349   5.820   1.103   8.865  0.5884 -1.3903 -0.3929
   87SAPS  C217 8350   5.722   1.252   8.733 -0.0032 -0.3210  0.4637
   87SAPS  H17R 8351   5.675   1.316   8.811 -0.1162 -0.6728  0.6844
   87SAPS  H17S 8352   5.647   1.244   8.651  0.4818 -1.0826  0.0990
   87SAPS  C218 8353   5.855   1.318   8.690  0.1164  0.0927 -0.0937
   87SAPS  H18R 8354   5.918   1.263   8.616 -1.6033 -0.2342 -1.3381
   87SAPS  H18S 8355   5.923   1.336   8.775  0.5261  0.0190 -0.4024
   87SAPS  C219 8356   5.829   1.457   8.628  0.2073  0.3167 -1.0589
   87SAPS  H19R 8357   5.831   1.530   8.712 -0.4294 -0.4214 -0.3897
   87SAPS  H19S 8358   5.723   1.455   8.593  0.3931  2.5899 -1.8487
   87SAPS  C220 8359   5.908   1.524   8.523  0.5051  0.5143  0.0698
   87SAPS  H20R 8360   5.857   1.616   8.486 -2.3580 -1.5564 -1.3972
   87SAPS  H20S 8361   5.928   1.465   8.432  1.8853  0.8631  0.1390
   87SAPS  H20T 8362   6.011   1.551   8.555 -0.0369  0.9648  1.5133
   87SAPS   C33 8363   5.463   1.407   9.887 -0.7034  0.0244  0.6512
   87SAPS   H3X 8364   5.572   1.405   9.909 -0.6930 -0.2125  0.5846
   87SAPS   H3Y 8365   5.433   1.513   9.896 -1.1422  0.0046 -0.5627
   87SAPS   C34 8366   5.419   1.367   9.742 -0.0620 -0.4469 -1.2497
   87SAPS   H4X 8367   5.312   1.395   9.732  0.1010  0.8357  0.4262
   87SAPS   H4Y 8368   5.413   1.258   9.726 -1.0056 -0.6189  0.1939
   87SAPS   C35 8369   5.497   1.433   9.632  0.4273 -0.0847  0.2885
   87SAPS   H5X 8370   5.598   1.387   9.625 -0.0369 -1.1762  0.6214
   87SAPS   H5Y 8371   5.499   1.543   9.646 -0.0091 -0.0938  0.4283
   87SAPS   C36 8372   5.438   1.407   9.488 -1.3418  0.3038  0.0815
   87SAPS   H6X 8373   5.341   1.460   9.482 -1.3397  0.4061  0.8087
   87SAPS   H6Y 8374   5.412   1.299   9.476 -0.3256  0.1128 -0.4750
   87SAPS   C37 8375   5.526   1.464   9.383  0.1423  0.0088  0.3971
   87SAPS   H7X 8376   5.627   1.417   9.387 -0.6738 -1.7093  1.5339
   87SAPS   H7Y 8377   5.545   1.573   9.396  1.6062 -0.4099  1.9558
   87SAPS   C38 8378   5.466   1.432   9.245 -0.1346 -0.3984  0.1706
   87SAPS   H8X 8379   5.456   1.321   9.241 -1.2852 -0.2951 -0.0362
   87SAPS   H8Y 8380   5.541   1.445   9.164  0.1992  3.1971  1.0027
   87SAPS   C39 8381   5.340   1.516   9.193  0.6520  0.1008 -0.7475
   87SAPS   H9X 8382   5.363   1.624   9.200 -0.0278  0.0790  2.5489
   87SAPS   H9Y 8383   5.259   1.489   9.264 -0.9382  0.1621 -2.4744
   87SAPS  C310 8384   5.287   1.483   9.052  0.2744  0.3426  0.1562
   87SAPS  H10X 8385   5.351   1.546   8.988 -0.4672 -0.8345 -1.7955
   87SAPS  H10Y 8386   5.190   1.529   9.023 -0.1440 -1.3337 -1.1384
   87SAPS  C311 8387   5.288   1.338   9.017  0.2166 -0.4691  0.5949
   87SAPS  H11X 8388   5.246   1.275   9.098  2.3537 -0.8345  1.4588
   87SAPS  H11Y 8389   5.395   1.309   9.012  0.6103  1.0928 -0.2858
   87SAPS  C312 8390   5.225   1.310   8.883  0.4423  0.1388  0.4599
   87SAPS  H12X 8391   5.268   1.360   8.794 -2.7727 -1.3033 -1.9734
   87SAPS  H12Y 8392   5.118   1.338   8.885  0.4500  0.1492  0.6974
   87SAPS  C313 8393   5.230   1.166   8.832 -0.4257  0.3504  0.1525
   87SAPS  H13X 8394   5.185   1.094   8.904  0.3028  0.3085  0.5706
   87SAPS  H13Y 8395   5.328   1.122   8.803 -0.0966  1.3533 -0.2673
   87SAPS  C314 8396   5.134   1.160   8.713 -0.0639  0.1427 -0.4494
   87SAPS  H14X 8397   5.178   1.223   8.633 -1.1605  0.7720 -0.5715
   87SAPS  H14Y 8398   5.040   1.213   8.736  1.2991  2.6820 -0.6275
   87SAPS  C315 8399   5.116   1.021   8.643  0.0866  0.0561  0.3211
   87SAPS  H15X 8400   5.216   0.985   8.610 -0.3084 -0.3564 -0.4172
   87SAPS  H15Y 8401   5.057   1.036   8.551  0.1571 -1.7244 -0.0282
   87SAPS  C316 8402   5.050   0.915   8.727  0.4446  0.0813 -0.0772
   87SAPS  H16X 8403   4.948   0.956   8.744  1.5318  2.8632 -0.1552
   87SAPS  H16Y 8404   5.102   0.917   8.825  0.4222 -0.7763 -0.0405
   87SAPS  C317 8405   5.056   0.771   8.666  0.1126  0.3448  0.6109
   87SAPS  H17X 8406   4.957   0.767   8.614 -0.5705 -0.2204  1.9479
   87SAPS  H17Y 8407   5.033   0.695   8.744  0.2010 -0.0909  0.2151
   87SAPS  C318 8408   5.175   0.731   8.581 -0.0242 -0.1700 -0.0693
   87SAPS  H18X 8409   5.188   0.805   8.499  1.3972  0.1622  0.4301
   87SAPS  H18Y 8410   5.168   0.626   8.545  1.1837 -2.1040  4.8889
   87SAPS  H18Z 8411   5.263   0.741   8.648  0.4843 -1.2393 -0.5561
   88SAPS     N 8412   0.995   6.308  10.932 -0.3774 -0.3255 -0.3973
   88SAPS   HN1 8413   0.940   6.303  10.844 -1.6425 -2.7328  0.4562
   88SAPS   HN2 8414   0.937   6.254  11.000  0.5780 -1.4781 -0.4873
   88SAPS   HN3 8415   1.008   6.405  10.967  1.4806 -0.0947 -1.6832
   88SAPS   C12 8416   1.121   6.243  10.885  0.7284 -0.1310 -0.1109
   88SAPS  H12A 8417   1.161   6.288  10.795 -2.2159  0.7954 -1.0045
   88SAPS   C13 8418   1.225   6.238  11.001 -0.1477  0.2215  0.6219
   88SAPS  O13A 8419   1.198   6.278  11.119  0.5090 -0.2252 -0.2056
   88SAPS  O13B 8420   1.338   6.199  10.968 -0.0165 -0.5965 -0.4069
   88SAPS   C11 8421   1.084   6.090  10.864  0.3229  0.8193 -0.4479
   88SAPS  H11A 8422   1.062   6.050  10.965  0.5437 -0.2369 -0.8089
   88SAPS  H11B 8423   1.169   6.034  10.821  2.1341  1.1182  2.5986
   88SAPS     P 8424   0.840   6.006  10.805 -0.2471  0.1178  0.0387
   88SAPS   O13 8425   0.856   5.928  10.926 -0.5580  1.0113  0.7168
   88SAPS   O14 8426   0.729   6.102  10.789 -0.5029  0.7046 -0.2487
   88SAPS   O12 8427   0.974   6.074  10.771  0.5984 -0.0184  0.5354
   88SAPS   O11 8428   0.826   5.920  10.676  0.1439  0.0956  0.3620
   88SAPS    C1 8429   0.936   5.858  10.607  0.3431  0.4357  0.3548
   88SAPS    HA 8430   1.014   5.823  10.678 -0.1795  0.2182  0.8221
   88SAPS    HB 8431   0.896   5.768  10.555  1.3032  0.3806 -0.3020
   88SAPS    C2 8432   1.001   5.947  10.502  0.3609 -0.3812  0.5451
   88SAPS    HS 8433   1.056   6.035  10.542 -0.5975  0.8809 -0.8552
   88SAPS   O21 8434   0.887   5.980  10.419  0.6915 -0.0707  0.0097
   88SAPS   C21 8435   0.916   6.086  10.343  0.1198  0.0971  0.2851
   88SAPS   O22 8436   1.027   6.142  10.347  0.8020  0.7741 -0.5345
   88SAPS   C22 8437   0.790   6.125  10.260 -0.4074  0.0973  1.3114
   88SAPS   H2R 8438   0.706   6.125  10.332 -0.5164  0.6754  1.1938
   88SAPS   H2S 8439   0.817   6.228  10.227 -1.6243  0.4367  1.3718
   88SAPS    C3 8440   1.101   5.860  10.418 -0.2160  0.0197  0.1831
   88SAPS    HX 8441   1.139   5.920  10.333  0.1732  2.8326  2.2860
   88SAPS    HY 8442   1.038   5.777  10.381 -2.0089  1.9194 -1.0973
   88SAPS   O31 8443   1.219   5.813  10.498  0.4916  0.1549  0.5498
   88SAPS   C31 8444   1.285   5.720  10.422 -0.3621 -0.3792  0.4057
   88SAPS   O32 8445   1.240   5.669  10.320 -0.1861  1.0327 -0.0313
   88SAPS   C32 8446   1.403   5.688  10.502  0.1026 -0.6794 -0.3766
   88SAPS   H2X 8447   1.370   5.649  10.601 -0.4117  1.4542  0.3277
   88SAPS   H2Y 8448   1.459   5.783  10.513 -0.2964 -0.4496 -0.3036
   88SAPS   C23 8449   0.759   6.030  10.147 -0.7518  0.1985 -0.1226
   88SAPS   H3R 8450   0.675   6.070  10.086 -0.1884 -1.4277 -1.9938
   88SAPS   H3S 8451   0.728   5.938  10.200  0.2433 -0.4747 -0.6871
   88SAPS   C24 8452   0.875   6.001  10.044  0.2104 -0.2250 -0.4230
   88SAPS   H4R 8453   0.822   5.950   9.960 -3.5890  0.4331  1.4851
   88SAPS   H4S 8454   0.950   5.938  10.097  2.2262  4.2134  2.2258
   88SAPS   C25 8455   0.942   6.135  10.007 -0.6799  0.3873 -0.8378
   88SAPS   H5R 8456   0.999   6.186  10.088 -1.5649 -0.5224  0.3707
   88SAPS   C26 8457   0.952   6.173   9.883 -1.2196 -0.0409 -0.7831
   88SAPS   H6R 8458   1.004   6.269   9.867 -0.6456 -0.2789 -0.3470
   88SAPS   C27 8459   0.898   6.103   9.761 -0.6981  0.2446 -0.8428
   88SAPS   H7R 8460   0.878   6.172   9.676  1.1395 -0.9516 -2.2674
   88SAPS   H7S 8461   0.795   6.063   9.777 -0.3791 -0.8738 -1.5846
   88SAPS   C28 8462   0.996   5.994   9.709  0.2250  0.7337 -0.1364
   88SAPS   H8R 8463   1.062   5.950   9.785 -3.1598 -0.0934  2.4346
   88SAPS   C29 8464   0.983   5.934   9.590 -0.3437  0.5785  0.6039
   88SAPS   H9R 8465   1.049   5.850   9.565  1.4963  1.3894  2.5544
   88SAPS  C210 8466   0.891   5.982   9.487 -0.6733 -0.5798  0.2080
   88SAPS  H10R 8467   0.806   6.043   9.525  0.3011  2.3069 -2.1059
   88SAPS  H10S 8468   0.830   5.895   9.452 -1.4318 -0.7840  1.9767
   88SAPS  C211 8469   0.947   6.046   9.360 -0.1079  0.6921 -0.4041
   88SAPS  H11R 8470   0.998   6.144   9.361  0.6940  0.2796 -0.2063
   88SAPS  C212 8471   0.929   5.995   9.236 -0.2723  0.4953  0.5044
   88SAPS  H12R 8472   0.967   6.055   9.151  0.3884  0.4142  0.7397
   88SAPS  C213 8473   0.859   5.870   9.192 -0.1562  0.1731 -0.0708
   88SAPS  H13R 8474   0.782   5.851   9.270  1.0830 -1.2930  0.8292
   88SAPS  H13S 8475   0.931   5.785   9.190 -1.6403 -1.1257  1.1030
   88SAPS  C214 8476   0.794   5.872   9.055  0.2492  0.3204 -0.1990
   88SAPS  H14R 8477   0.685   5.890   9.046  0.1035 -0.4998 -0.1850
   88SAPS  C215 8478   0.842   5.831   8.940 -0.0661 -0.5583 -0.7090
   88SAPS  H15R 8479   0.777   5.836   8.852  1.6279  0.5866 -1.9356
   88SAPS  C216 8480   0.982   5.786   8.921 -0.0782  0.2551  0.5198
   88SAPS  H16R 8481   0.955   5.701   8.854 -0.9147  0.2089  0.9078
   88SAPS  H16S 8482   1.034   5.747   9.011  1.8438  0.5716 -0.4269
   88SAPS  C217 8483   1.091   5.882   8.856 -0.4279  0.3882 -0.2026
   88SAPS  H17R 8484   1.111   5.959   8.933  0.1634 -0.0756  0.1178
   88SAPS  H17S 8485   1.053   5.921   8.759 -2.3438  0.6949  0.6575
   88SAPS  C218 8486   1.221   5.802   8.832 -0.3308  0.6773 -0.4178
   88SAPS  H18R 8487   1.200   5.718   8.761 -1.2501  1.3098 -0.8931
   88SAPS  H18S 8488   1.256   5.752   8.925  0.1114 -1.3662 -1.6381
   88SAPS  C219 8489   1.337   5.883   8.789 -0.2905  0.1215  0.4827
   88SAPS  H19R 8490   1.379   5.942   8.873  0.0110  0.5559  0.0373
   88SAPS  H19S 8491   1.301   5.957   8.714  0.7213  0.3637  0.2207
   88SAPS  C220 8492   1.435   5.793   8.722 -0.2013  0.3879  0.0122
   88SAPS  H20R 8493   1.527   5.846   8.688  0.3160 -1.4459 -1.5194
   88SAPS  H20S 8494   1.392   5.750   8.629  1.3789 -0.1884 -0.4701
   88SAPS  H20T 8495   1.464   5.707   8.785 -1.6533 -0.8393 -0.9513
   88SAPS   C33 8496   1.500   5.584  10.442 -0.3221  0.3902  0.7875
   88SAPS   H3X 8497   1.446   5.495  10.403 -1.2102  1.2711 -0.0262
   88SAPS   H3Y 8498   1.561   5.542  10.525  0.2748 -0.5684 -0.1205
   88SAPS   C34 8499   1.586   5.642  10.328  0.0737 -0.2420  0.2207
   88SAPS   H4X 8500   1.642   5.731  10.363 -0.6275 -0.0441  0.8637
   88SAPS   H4Y 8501   1.538   5.685  10.238  2.0367  2.2426  0.3161
   88SAPS   C35 8502   1.684   5.544  10.288 -0.2902 -0.7841  0.1971
   88SAPS   H5X 8503   1.644   5.443  10.262 -0.1013 -0.8827  0.2847
   88SAPS   H5Y 8504   1.737   5.514  10.381 -0.4714  0.5698  0.7469
   88SAPS   C36 8505   1.784   5.601  10.186  0.2816 -0.4088  0.6170
   88SAPS   H6X 8506   1.717   5.631  10.103 -0.4846  2.0087  2.0607
   88SAPS   H6Y 8507   1.853   5.522  10.149  1.2374  0.7768 -0.1286
   88SAPS   C37 8508   1.858   5.722  10.238 -0.0833 -0.1611  0.1757
   88SAPS   H7X 8509   1.901   5.694  10.337 -0.4886 -0.7521  0.1861
   88SAPS   H7Y 8510   1.790   5.809  10.248 -1.1516 -1.0137  0.3915
   88SAPS   C38 8511   1.972   5.772  10.143 -0.0376  0.3101 -0.7323
   88SAPS   H8X 8512   2.043   5.692  10.113  1.6899  2.0583 -1.4427
   88SAPS   H8Y 8513   2.028   5.855  10.190 -0.6580 -0.5751  1.5953
   88SAPS   C39 8514   1.920   5.812  10.002  0.6575 -0.9554 -0.0134
   88SAPS   H9X 8515   2.003   5.876   9.963 -1.3623  0.0038 -2.8786
   88SAPS   H9Y 8516   1.825   5.867  10.018  0.8613 -0.0263 -1.8721
   88SAPS  C310 8517   1.907   5.703   9.894 -0.1208 -0.3869  0.0836
   88SAPS  H10X 8518   1.828   5.631   9.927 -1.2675  0.1501 -1.4567
   88SAPS  H10Y 8519   2.003   5.646   9.893  0.4922  0.6183 -3.0084
   88SAPS  C311 8520   1.869   5.764   9.758  0.1976  0.1497  0.5871
   88SAPS  H11X 8521   1.941   5.846   9.736 -2.1896  1.8837 -1.0181
   88SAPS  H11Y 8522   1.773   5.820   9.763  1.1115  1.9083 -1.1423
   88SAPS  C312 8523   1.868   5.674   9.642 -0.4744  0.5304  0.2333
   88SAPS  H12X 8524   1.791   5.593   9.639 -0.6638  0.7075  0.2759
   88SAPS  H12Y 8525   1.966   5.623   9.635 -0.7312  0.2192 -1.2042
   88SAPS  C313 8526   1.835   5.749   9.513  1.4403  0.8435 -0.2747
   88SAPS  H13X 8527   1.882   5.849   9.517 -1.7025  2.2979  3.9815
   88SAPS  H13Y 8528   1.727   5.772   9.503  1.1262 -0.3929  0.1122
   88SAPS  C314 8529   1.880   5.678   9.381 -0.6914 -0.4374  0.0081
   88SAPS  H14X 8530   1.826   5.581   9.378  0.8623 -1.3286  0.5242
   88SAPS  H14Y 8531   1.990   5.667   9.386 -0.6329  0.1135 -0.0148
   88SAPS  C315 8532   1.839   5.762   9.269  0.0242 -0.3766 -0.0812
   88SAPS  H15X 8533   1.893   5.857   9.253 -1.8348  0.6309 -0.4415
   88SAPS  H15Y 8534   1.736   5.792   9.299  0.2503  0.0677  0.2462
   88SAPS  C316 8535   1.849   5.678   9.141  0.1897  0.9984  0.3546
   88SAPS  H16X 8536   1.791   5.583   9.145  2.3351 -0.2947  1.9227
   88SAPS  H16Y 8537   1.954   5.642   9.137 -0.0975  0.2510 -0.7073
   88SAPS  C317 8538   1.830   5.761   9.015  0.0008 -0.3435  0.6897
   88SAPS  H17X 8539   1.843   5.695   8.927 -0.6531  1.0492 -0.4724
   88SAPS  H17Y 8540   1.912   5.836   9.010 -1.1483  0.8670 -0.5603
   88SAPS  C318 8541   1.692   5.822   9.007  0.5861  0.0229 -0.1612
   88SAPS  H18X 8542   1.696   5.911   9.073 -1.4108  1.5887 -2.0883
   88SAPS  H18Y 8543   1.621   5.747   9.046  0.2356  0.2554 -0.3548
   88SAPS  H18Z 8544   1.660   5.845   8.903  0.4795  0.2952 -0.0697
   89SAPS     N 8545   1.217   2.664  10.990 -1.1152 -0.8034  0.3274
   89SAPS   HN1 8546   1.163   2.733  11.046  1.0320  1.6022 -0.4289
   89SAPS   HN2 8547   1.312   2.698  10.962 -1.6610 -0.7826 -1.6070
   89SAPS   HN3 8548   1.162   2.664  10.902 -1.1052 -1.7838  0.3210
   89SAPS   C12 8549   1.223   2.520  11.016 -0.2300 -0.2871  0.7468
   89SAPS  H12A 8550   1.248   2.464  10.927  1.8436  0.2781  0.9528
   89SAPS   C13 8551   1.337   2.481  11.111 -0.1236  0.1411 -0.0794
   89SAPS  O13A 8552   1.408   2.575  11.164 -0.4380  0.4952 -0.7612
   89SAPS  O13B 8553   1.361   2.358  11.138 -0.4867  0.0307  0.4171
   89SAPS   C11 8554   1.088   2.479  11.075 -0.1165  0.5521 -0.5692
   89SAPS  H11A 8555   1.040   2.538  11.156  2.4949 -1.0554  2.2789
   89SAPS  H11B 8556   1.115   2.380  11.118 -0.7552  0.0079 -1.4142
   89SAPS     P 8557   0.909   2.346  10.951 -0.0041  0.4535 -0.3046
   89SAPS   O13 8558   0.966   2.217  10.997  0.2116  0.1701 -0.0860
   89SAPS   O14 8559   0.776   2.381  10.996 -0.1626 -0.7969  0.4823
   89SAPS   O12 8560   1.004   2.466  10.966  0.3122  0.9280 -0.1235
   89SAPS   O11 8561   0.902   2.346  10.797 -0.5102 -0.1629 -0.4015
   89SAPS    C1 8562   0.818   2.264  10.724  0.3057 -0.1663  0.5655
   89SAPS    HA 8563   0.864   2.163  10.726  3.0332  0.9946 -0.9299
   89SAPS    HB 8564   0.716   2.270  10.768  0.4736 -0.0810  0.9435
   89SAPS    C2 8565   0.818   2.303  10.577  0.4068  0.1015  0.3394
   89SAPS    HS 8566   0.781   2.406  10.558  0.6462 -0.0447 -1.0028
   89SAPS   O21 8567   0.731   2.205  10.508 -0.3149 -0.4394 -0.1160
   89SAPS   C21 8568   0.698   2.252  10.388  0.8247 -0.0984 -0.4559
   89SAPS   O22 8569   0.705   2.367  10.348  0.1776  0.0689 -0.5738
   89SAPS   C22 8570   0.648   2.135  10.308 -0.0780 -0.4642 -0.4729
   89SAPS   H2R 8571   0.740   2.078  10.283 -0.7096 -1.3894 -0.6970
   89SAPS   H2S 8572   0.574   2.078  10.367  0.0195 -0.4215 -0.3109
   89SAPS    C3 8573   0.967   2.297  10.521  0.0729  0.4353  0.4722
   89SAPS    HX 8574   0.999   2.199  10.563 -1.2537  0.0468  0.6060
   89SAPS    HY 8575   1.036   2.369  10.570 -0.6007  0.1216  1.9047
   89SAPS   O31 8576   0.976   2.283  10.380 -0.0928 -0.7661  0.0536
   89SAPS   C31 8577   0.997   2.403  10.315 -1.2320  0.1168 -0.5994
   89SAPS   O32 8578   1.020   2.511  10.372 -0.5305  0.6948 -0.3235
   89SAPS   C32 8579   1.001   2.383  10.165  0.1189 -0.2053 -0.2876
   89SAPS   H2X 8580   0.897   2.356  10.136 -0.5428  1.1558  0.7334
   89SAPS   H2Y 8581   1.080   2.310  10.139  1.7960  0.2893  3.0651
   89SAPS   C23 8582   0.573   2.182  10.180  0.0450  0.5090  0.3106
   89SAPS   H3R 8583   0.633   2.260  10.128  0.7755  0.2365  0.7326
   89SAPS   H3S 8584   0.481   2.240  10.204 -0.9012 -0.6338 -0.5005
   89SAPS   C24 8585   0.544   2.080  10.070 -0.4459  0.2473  0.0015
   89SAPS   H4R 8586   0.469   2.124  10.000  1.1941 -1.2593 -2.8137
   89SAPS   H4S 8587   0.493   1.991  10.112 -0.9823  0.9770  0.9102
   89SAPS   C25 8588   0.674   2.031  10.003  0.1333 -0.0607 -0.3240
   89SAPS   H5R 8589   0.739   1.994  10.083  1.0924  1.9472 -0.1500
   89SAPS   C26 8590   0.700   2.020   9.873 -0.6615 -0.5320  0.1358
   89SAPS   H6R 8591   0.796   1.974   9.843 -0.6865 -0.5281  0.0494
   89SAPS   C27 8592   0.609   2.073   9.760  0.4938  0.1595 -0.7720
   89SAPS   H7R 8593   0.531   2.143   9.796  0.1548 -0.7441  0.3141
   89SAPS   H7S 8594   0.557   1.986   9.715 -3.6416  0.7700  2.5318
   89SAPS   C28 8595   0.668   2.147   9.653 -0.0698  0.1815 -0.5064
   89SAPS   H8R 8596   0.739   2.226   9.683 -1.1434  0.9122  0.1171
   89SAPS   C29 8597   0.668   2.127   9.525  0.4467  0.1461 -0.7246
   89SAPS   H9R 8598   0.702   2.208   9.459 -0.7833 -0.1398 -1.7408
   89SAPS  C210 8599   0.599   2.022   9.441  0.7943  0.2758  0.7582
   89SAPS  H10R 8600   0.489   2.041   9.446  0.7167 -0.0338  0.2400
   89SAPS  H10S 8601   0.623   1.920   9.478  2.0404  1.1808  2.5124
   89SAPS  C211 8602   0.643   2.032   9.297 -0.1310 -0.8862  0.5499
   89SAPS  H11R 8603   0.745   1.997   9.278 -0.0695 -0.8023  0.7281
   89SAPS  C212 8604   0.571   2.081   9.190  0.1277  0.0354 -0.2905
   89SAPS  H12R 8605   0.630   2.087   9.098 -0.4002  0.1338 -0.6217
   89SAPS  C213 8606   0.432   2.144   9.189  0.5429  0.4092 -0.5318
   89SAPS  H13R 8607   0.406   2.201   9.281 -2.3441  1.7212 -2.1120
   89SAPS  H13S 8608   0.362   2.059   9.182  0.1825  0.7980 -1.6420
   89SAPS  C214 8609   0.396   2.225   9.068  0.4093 -0.8102  0.6485
   89SAPS  H14R 8610   0.375   2.328   9.099 -2.0617 -0.1472 -2.9202
   89SAPS  C215 8611   0.383   2.180   8.936  0.4392 -0.7836  0.5106
   89SAPS  H15R 8612   0.354   2.244   8.851  0.9775 -0.9786  0.1744
   89SAPS  C216 8613   0.410   2.042   8.895  0.1321 -1.0261  0.4314
   89SAPS  H16R 8614   0.352   1.965   8.948 -1.1523 -0.1378  0.3363
   89SAPS  H16S 8615   0.516   2.009   8.907  0.6942  0.9967  1.3325
   89SAPS  C217 8616   0.388   2.025   8.740  0.3263 -0.3014 -0.0787
   89SAPS  H17R 8617   0.418   1.920   8.723 -0.9420 -0.8201  0.8349
   89SAPS  H17S 8618   0.460   2.086   8.681 -0.0400 -0.2995 -0.5301
   89SAPS  C218 8619   0.246   2.048   8.687  0.0316 -0.3612 -0.0691
   89SAPS  H18R 8620   0.236   2.158   8.680  0.5999 -0.3471 -0.7067
   89SAPS  H18S 8621   0.170   2.015   8.761  1.7551 -2.2886  0.8822
   89SAPS  C219 8622   0.213   1.970   8.555  0.0083  0.9824  0.1033
   89SAPS  H19R 8623   0.110   2.003   8.528 -1.3538 -1.3968  2.2569
   89SAPS  H19S 8624   0.213   1.863   8.584 -0.4215  1.0248  0.2557
   89SAPS  C220 8625   0.315   2.008   8.451  0.5025 -0.1021  0.8996
   89SAPS  H20R 8626   0.357   2.109   8.466  2.0721 -0.6484  0.2626
   89SAPS  H20S 8627   0.283   1.993   8.345 -0.0946  2.4248  0.6923
   89SAPS  H20T 8628   0.402   1.940   8.454 -0.6555 -1.6532  0.2536
   89SAPS   C33 8629   1.026   2.522  10.094  0.0221  0.0859 -0.3400
   89SAPS   H3X 8630   1.123   2.551  10.141  1.1754 -3.6819 -0.1584
   89SAPS   H3Y 8631   0.949   2.599  10.115 -0.6932 -0.8870  0.6393
   89SAPS   C34 8632   1.029   2.501   9.943 -0.5648  0.3696  0.4575
   89SAPS   H4X 8633   1.101   2.418   9.924  1.4678  2.0800  0.4892
   89SAPS   H4Y 8634   1.073   2.590   9.892 -1.0361 -0.2802 -1.1380
   89SAPS   C35 8635   0.884   2.462   9.888 -0.2199  0.3129 -0.4453
   89SAPS   H5X 8636   0.807   2.486   9.964 -0.5549  1.3181 -1.0894
   89SAPS   H5Y 8637   0.882   2.353   9.867 -2.2741  0.0865  0.8012
   89SAPS   C36 8638   0.855   2.551   9.764 -0.3196  0.0638 -0.2687
   89SAPS   H6X 8639   0.880   2.659   9.773  0.8618 -0.3387  1.4076
   89SAPS   H6Y 8640   0.744   2.548   9.756 -0.6053  2.7847  1.8205
   89SAPS   C37 8641   0.919   2.489   9.639  0.3885 -0.4020 -0.5436
   89SAPS   H7X 8642   0.880   2.386   9.628  0.0399 -0.4742  1.2445
   89SAPS   H7Y 8643   1.027   2.467   9.654  0.0275  0.3584  3.6197
   89SAPS   C38 8644   0.911   2.574   9.512  0.4224  0.2483 -0.7146
   89SAPS   H8X 8645   0.964   2.671   9.516 -0.5865  0.6960  2.3141
   89SAPS   H8Y 8646   0.804   2.599   9.494 -0.0590 -1.8390 -0.9522
   89SAPS   C39 8647   0.957   2.493   9.387 -0.0467  0.1663 -0.3544
   89SAPS   H9X 8648   0.889   2.406   9.376  1.1653 -0.7369 -0.7166
   89SAPS   H9Y 8649   1.059   2.451   9.398 -0.6808 -1.0691  0.9379
   89SAPS  C310 8650   0.963   2.572   9.249 -0.1533 -0.2219 -0.4414
   89SAPS  H10X 8651   0.996   2.508   9.164 -0.5130  1.4666 -1.8780
   89SAPS  H10Y 8652   1.043   2.647   9.263  1.5202 -1.7838 -1.3616
   89SAPS  C311 8653   0.833   2.646   9.210 -0.8982  0.4210 -0.2183
   89SAPS  H11X 8654   0.804   2.723   9.285 -2.9038  2.0108 -2.5149
   89SAPS  H11Y 8655   0.755   2.570   9.192  0.1319 -0.3837 -1.3778
   89SAPS  C312 8656   0.842   2.719   9.076  0.1074 -0.3762 -0.3396
   89SAPS  H12X 8657   0.925   2.792   9.088  2.5569 -3.3376  1.3021
   89SAPS  H12Y 8658   0.749   2.777   9.057  0.0483 -0.0939  0.7960
   89SAPS  C313 8659   0.879   2.633   8.947 -0.4924  0.6910  0.1380
   89SAPS  H13X 8660   0.970   2.582   8.983 -2.2181 -0.2419  3.4729
   89SAPS  H13Y 8661   0.917   2.695   8.864 -1.0838  0.1778 -0.5202
   89SAPS  C314 8662   0.755   2.554   8.913  0.5892 -0.3045 -0.5769
   89SAPS  H14X 8663   0.681   2.633   8.890  1.2922  0.3038 -0.7900
   89SAPS  H14Y 8664   0.719   2.491   8.997 -0.7451  1.2448  0.0487
   89SAPS  C315 8665   0.783   2.466   8.794  0.6769  0.6592 -0.0398
   89SAPS  H15X 8666   0.699   2.396   8.775  0.6055  1.2347 -1.9734
   89SAPS  H15Y 8667   0.857   2.393   8.833 -0.8137  0.0533  1.7058
   89SAPS  C316 8668   0.830   2.527   8.661 -0.2493  0.1442  0.1913
   89SAPS  H16X 8669   0.930   2.572   8.680 -1.2114  2.8503 -0.7827
   89SAPS  H16Y 8670   0.754   2.601   8.628 -0.8021 -1.1476 -1.4512
   89SAPS  C317 8671   0.839   2.424   8.545  0.2668  0.2256  0.5058
   89SAPS  H17X 8672   0.833   2.485   8.452  0.8333 -2.9501 -1.7320
   89SAPS  H17Y 8673   0.752   2.354   8.537  0.7089 -0.1450 -1.4388
   89SAPS  C318 8674   0.969   2.344   8.550  0.2381  0.1491  0.2137
   89SAPS  H18X 8675   0.970   2.270   8.467 -2.6636 -0.0043  0.2594
   89SAPS  H18Y 8676   0.987   2.290   8.645 -2.0111  0.9381  1.1250
   89SAPS  H18Z 8677   1.057   2.410   8.537 -0.3527  1.0215  0.5642
   90SAPS     N 8678   2.658   1.722  10.693  0.4610  0.7234 -0.2864
   90SAPS   HN1 8679   2.709   1.706  10.604 -0.5200  0.5556 -0.8233
   90SAPS   HN2 8680   2.563   1.755  10.668 -0.1441 -1.2467 -0.6917
   90SAPS   HN3 8681   2.714   1.789  10.750 -1.7206  2.2365  0.1366
   90SAPS   C12 8682   2.641   1.586  10.740 -0.1219 -0.8247 -0.6857
   90SAPS  H12A 8683   2.740   1.543  10.732  0.0731 -0.1311 -2.0845
   90SAPS   C13 8684   2.598   1.589  10.892  0.2475  1.1909 -0.2793
   90SAPS  O13A 8685   2.595   1.699  10.957  0.3558 -0.2729 -0.0883
   90SAPS  O13B 8686   2.578   1.479  10.949 -0.3462 -0.0533  0.3879
   90SAPS   C11 8687   2.548   1.508  10.649 -0.6306  0.7025  0.5984
   90SAPS  H11A 8688   2.547   1.405  10.691 -1.9389  0.1984 -0.6155
   90SAPS  H11B 8689   2.588   1.503  10.546  1.8379  0.9228  1.5205
   90SAPS     P 8690   2.298   1.511  10.568  0.5410 -0.0404 -0.4053
   90SAPS   O13 8691   2.314   1.366  10.576 -0.4916  0.0828 -0.0476
   90SAPS   O14 8692   2.172   1.567  10.622  0.0220  0.3564 -0.1927
   90SAPS   O12 8693   2.417   1.574  10.653  0.3053 -0.6779 -0.1108
   90SAPS   O11 8694   2.327   1.557  10.418  0.1390  0.6651  0.5639
   90SAPS    C1 8695   2.337   1.691  10.375 -0.5337 -0.1985  0.0839
   90SAPS    HA 8696   2.247   1.752  10.400 -0.7413 -0.4777  0.0174
   90SAPS    HB 8697   2.420   1.748  10.422 -1.1841  1.5784 -0.8689
   90SAPS    C2 8698   2.346   1.695  10.219  0.4467 -0.2146 -0.3984
   90SAPS    HS 8699   2.350   1.798  10.177 -1.0096 -0.1023 -0.2609
   90SAPS   O21 8700   2.234   1.621  10.161 -0.4670  0.6503 -0.4341
   90SAPS   C21 8701   2.115   1.680  10.156  0.0278 -0.3813 -0.0343
   90SAPS   O22 8702   2.083   1.794  10.187 -0.5982 -0.3764  1.0496
   90SAPS   C22 8703   2.014   1.581  10.111 -0.1561  0.1953  0.6308
   90SAPS   H2R 8704   2.063   1.482  10.095  0.2309  0.4786  0.0377
   90SAPS   H2S 8705   1.948   1.572  10.200  1.5313  1.5264  2.0359
   90SAPS    C3 8706   2.478   1.630  10.162  0.4429 -0.3745 -0.2400
   90SAPS    HX 8707   2.477   1.524  10.195  1.3362 -0.4151 -0.3182
   90SAPS    HY 8708   2.563   1.676  10.217  1.1895 -2.3569  0.3030
   90SAPS   O31 8709   2.495   1.652  10.018  0.1899  0.2185  0.0642
   90SAPS   C31 8710   2.433   1.556   9.949 -0.3274 -0.0613  0.5868
   90SAPS   O32 8711   2.379   1.455   9.999 -0.0111 -0.4001  0.0398
   90SAPS   C32 8712   2.443   1.592   9.798 -0.0527  0.2369  0.5478
   90SAPS   H2X 8713   2.383   1.518   9.740 -2.0744  0.0297  2.8205
   90SAPS   H2Y 8714   2.551   1.580   9.777 -0.6197 -0.8498 -1.8935
   90SAPS   C23 8715   1.937   1.629   9.981  0.6550  0.5246  0.0134
   90SAPS   H3R 8716   1.885   1.727   9.989  1.0472  0.8973 -1.7512
   90SAPS   H3S 8717   1.854   1.560   9.959  0.7167 -0.2618  2.0696
   90SAPS   C24 8718   2.016   1.621   9.853 -0.1220  0.3179 -0.5507
   90SAPS   H4R 8719   2.050   1.517   9.837  0.3414  0.4481 -0.4085
   90SAPS   H4S 8720   2.110   1.678   9.870  1.8903 -2.2487 -2.6359
   90SAPS   C25 8721   1.929   1.681   9.739 -0.0944  0.1508  0.6597
   90SAPS   H5R 8722   1.855   1.755   9.773 -1.1267 -0.3602 -0.4153
   90SAPS   C26 8723   1.947   1.669   9.608  0.2020 -0.4988 -0.4280
   90SAPS   H6R 8724   1.870   1.710   9.541  0.9689  2.0637  0.1948
   90SAPS   C27 8725   2.064   1.590   9.545 -0.1083 -0.1446  0.5085
   90SAPS   H7R 8726   2.126   1.526   9.611 -0.3987 -0.5244  0.4111
   90SAPS   H7S 8727   2.132   1.671   9.509 -0.0840  0.6329  2.2308
   90SAPS   C28 8728   2.008   1.501   9.437  0.6411  0.0732  0.9132
   90SAPS   H8R 8729   1.974   1.402   9.472  0.9423  0.3287  1.9320
   90SAPS   C29 8730   1.993   1.532   9.310  0.3051 -0.0545 -0.1387
   90SAPS   H9R 8731   1.973   1.460   9.229 -3.0266  2.8589 -2.0298
   90SAPS  C210 8732   2.025   1.671   9.255  0.1855  0.5038  0.4339
   90SAPS  H10R 8733   2.121   1.658   9.200  0.8198  2.1042  1.1380
   90SAPS  H10S 8734   2.051   1.737   9.341 -0.9271 -0.6565  1.6817
   90SAPS  C211 8735   1.918   1.752   9.184 -0.0958  0.4192 -0.0341
   90SAPS  H11R 8736   1.855   1.798   9.261  0.8002 -0.0657  0.9948
   90SAPS  C212 8737   1.879   1.740   9.053 -0.5160  0.2396 -0.1504
   90SAPS  H12R 8738   1.803   1.806   9.009 -1.3323 -0.5465  0.0469
   90SAPS  C213 8739   1.941   1.640   8.954 -0.1748 -0.1394 -0.2270
   90SAPS  H13R 8740   1.849   1.593   8.913 -1.4133  0.0285  2.2512
   90SAPS  H13S 8741   2.006   1.566   9.006  0.0916  1.9907  2.6469
   90SAPS  C214 8742   2.010   1.706   8.844  0.0236  0.2393  0.6125
   90SAPS  H14R 8743   2.091   1.771   8.882 -0.1076  0.5868  0.3038
   90SAPS  C215 8744   1.993   1.701   8.709 -0.1680 -0.5553  0.1194
   90SAPS  H15R 8745   2.069   1.750   8.646  0.0497 -0.4554  0.4552
   90SAPS  C216 8746   1.895   1.623   8.635 -0.7409 -0.3076 -0.3525
   90SAPS  H16R 8747   1.864   1.531   8.690 -0.9923 -0.0083  0.0047
   90SAPS  H16S 8748   1.945   1.598   8.539  2.0718 -0.0422  0.9800
   90SAPS  C217 8749   1.766   1.696   8.593 -0.1020  0.3151  0.0612
   90SAPS  H17R 8750   1.788   1.797   8.555  1.4671 -0.4110 -0.9853
   90SAPS  H17S 8751   1.707   1.708   8.687  3.2134 -1.3147  2.4565
   90SAPS  C218 8752   1.685   1.609   8.491 -0.0806  0.7960 -0.4611
   90SAPS  H18R 8753   1.729   1.615   8.389  1.4479  1.2770  0.2217
   90SAPS  H18S 8754   1.594   1.670   8.471 -0.1635  0.8210 -0.0045
   90SAPS  C219 8755   1.641   1.470   8.535  0.1106 -0.7223  0.3255
   90SAPS  H19R 8756   1.626   1.469   8.645 -0.1123 -0.5926  0.2971
   90SAPS  H19S 8757   1.728   1.405   8.511  0.8476  0.6644 -0.9398
   90SAPS  C220 8758   1.522   1.407   8.460  0.1108  0.4743  0.2715
   90SAPS  H20R 8759   1.497   1.322   8.528 -0.1407 -1.2189 -1.8865
   90SAPS  H20S 8760   1.555   1.376   8.359 -1.1966  2.0492 -0.6493
   90SAPS  H20T 8761   1.427   1.465   8.463  0.1449  0.5186  0.5027
   90SAPS   C33 8762   2.396   1.737   9.757 -0.0372 -0.0976  0.1425
   90SAPS   H3X 8763   2.443   1.814   9.821  1.1570  0.2311 -1.0888
   90SAPS   H3Y 8764   2.285   1.737   9.753 -0.1028 -0.0707  1.7169
   90SAPS   C34 8765   2.434   1.765   9.611 -0.0230 -0.4868  0.3794
   90SAPS   H4X 8766   2.396   1.684   9.544 -0.6954 -0.1027  0.2921
   90SAPS   H4Y 8767   2.544   1.764   9.597 -0.1011  0.5157 -0.4326
   90SAPS   C35 8768   2.376   1.897   9.557 -0.7141 -0.4139 -0.2814
   90SAPS   H5X 8769   2.389   1.979   9.631 -1.9810 -0.7607  0.3483
   90SAPS   H5Y 8770   2.267   1.880   9.541 -0.7186 -0.4156 -0.2498
   90SAPS   C36 8771   2.436   1.951   9.425  0.5297  0.4152 -0.8150
   90SAPS   H6X 8772   2.546   1.942   9.433  0.4449  0.8461  1.3109
   90SAPS   H6Y 8773   2.425   2.061   9.414 -1.5208  0.3513  0.3721
   90SAPS   C37 8774   2.380   1.867   9.305 -0.0845  1.4899  0.1978
   90SAPS   H7X 8775   2.270   1.887   9.304 -0.4001 -0.2731 -1.3786
   90SAPS   H7Y 8776   2.396   1.759   9.324  1.1983  1.4883 -0.8175
   90SAPS   C38 8777   2.451   1.909   9.179 -0.2022  0.6068 -0.2303
   90SAPS   H8X 8778   2.549   1.857   9.169 -0.3045  0.5323 -0.8837
   90SAPS   H8Y 8779   2.473   2.018   9.180 -1.6293  0.9053  0.8379
   90SAPS   C39 8780   2.368   1.882   9.053  0.2197 -0.3396  0.0745
   90SAPS   H9X 8781   2.275   1.943   9.066  1.0440  0.5660  1.9234
   90SAPS   H9Y 8782   2.342   1.776   9.031 -1.8537  0.4998 -1.7539
   90SAPS  C310 8783   2.445   1.955   8.936  0.2609  0.2329  0.3371
   90SAPS  H10X 8784   2.544   1.909   8.916 -0.0897 -0.4919  0.2177
   90SAPS  H10Y 8785   2.460   2.060   8.969  0.1206  0.7259 -1.1318
   90SAPS  C311 8786   2.363   1.964   8.808 -0.3844  0.0544 -0.3322
   90SAPS  H11X 8787   2.272   2.026   8.821  0.2597  0.4859  2.3077
   90SAPS  H11Y 8788   2.326   1.866   8.772 -1.0199  0.2140 -0.1167
   90SAPS  C312 8789   2.451   2.021   8.695 -0.4238  0.5581  0.1504
   90SAPS  H12X 8790   2.547   1.968   8.678  0.7285  1.8441  2.3202
   90SAPS  H12Y 8791   2.472   2.124   8.733  0.0481 -0.1381  1.8173
   90SAPS  C313 8792   2.374   2.029   8.563  0.2388 -0.1614  0.0550
   90SAPS  H13X 8793   2.279   2.088   8.569  2.9671  4.5351 -0.6819
   90SAPS  H13Y 8794   2.364   1.922   8.535  2.6517 -0.5424  0.6213
   90SAPS  C314 8795   2.448   2.104   8.447 -0.6693 -1.1844  0.1279
   90SAPS  H14X 8796   2.551   2.063   8.457 -0.4283 -0.5870  0.0928
   90SAPS  H14Y 8797   2.468   2.209   8.475 -1.1660 -1.6923  2.5461
   90SAPS  C315 8798   2.404   2.089   8.294 -0.3452  0.0612  0.1378
   90SAPS  H15X 8799   2.294   2.089   8.279 -0.3964  2.3487  0.3195
   90SAPS  H15Y 8800   2.432   1.992   8.248 -0.0943  1.0490 -1.8669
   90SAPS  C316 8801   2.469   2.203   8.209  0.1747  0.2145  0.1770
   90SAPS  H16X 8802   2.575   2.174   8.230  0.1559  0.1266  0.1493
   90SAPS  H16Y 8803   2.440   2.306   8.239 -2.6344 -0.3676 -0.3901
   90SAPS  C317 8804   2.428   2.183   8.063 -0.7439  0.8389 -0.2492
   90SAPS  H17X 8805   2.318   2.202   8.062 -0.7991  0.6101  1.0161
   90SAPS  H17Y 8806   2.442   2.079   8.026 -0.1658  1.4895 -1.9082
   90SAPS  C318 8807   2.493   2.286   7.963 -0.2261 -0.5653  0.0652
   90SAPS  H18X 8808   2.455   2.389   7.981  1.6356  0.0589  0.5321
   90SAPS  H18Y 8809   2.467   2.260   7.858 -0.0132 -2.7289  0.5399
   90SAPS  H18Z 8810   2.604   2.287   7.963 -0.2311 -0.1364  0.8699
   91SAPS     N 8811   0.466   0.526   5.753 -0.0658 -0.1089 -0.3939
   91SAPS   HN1 8812   0.483   0.526   5.856 -0.3090 -2.0466 -0.3460
   91SAPS   HN2 8813   0.512   0.617   5.733 -1.8013  1.2494  1.4711
   91SAPS   HN3 8814   0.362   0.526   5.743 -0.2246 -1.1005  1.0909
   91SAPS   C12 8815   0.513   0.389   5.711  0.3290  0.1163 -0.2893
   91SAPS  H12A 8816   0.461   0.311   5.764 -2.0612  1.2427 -0.9102
   91SAPS   C13 8817   0.496   0.363   5.556 -0.1174 -0.4114  0.4835
   91SAPS  O13A 8818   0.423   0.436   5.489 -0.2424 -0.0105  0.0579
   91SAPS  O13B 8819   0.571   0.275   5.499  0.1615  0.0013 -0.0521
   91SAPS   C11 8820   0.668   0.363   5.756 -0.2618 -0.0320 -0.8613
   91SAPS  H11A 8821   0.729   0.434   5.696 -0.2736 -1.7622 -2.9898
   91SAPS  H11B 8822   0.710   0.266   5.723 -1.1869 -0.0288 -2.1246
   91SAPS     P 8823   0.822   0.389   5.972  0.1054  0.3109 -0.3855
   91SAPS   O13 8824   0.913   0.297   5.904 -0.1641  0.1963  0.3517
   91SAPS   O14 8825   0.856   0.535   5.978 -0.5905  0.3869  0.6531
   91SAPS   O12 8826   0.682   0.377   5.898  0.1288 -0.1866 -0.1125
   91SAPS   O11 8827   0.793   0.329   6.116 -0.6374  0.4751 -0.1915
   91SAPS    C1 8828   0.798   0.413   6.228 -1.1567 -0.3752  0.1091
   91SAPS    HA 8829   0.886   0.481   6.223 -1.5617  0.0405 -1.5391
   91SAPS    HB 8830   0.701   0.465   6.245 -0.0509  1.9383 -0.3903
   91SAPS    C2 8831   0.818   0.320   6.351 -0.2821 -0.4615  0.1328
   91SAPS    HS 8832   0.875   0.234   6.310 -3.7289 -1.3884 -2.9955
   91SAPS   O21 8833   0.691   0.281   6.403  0.0520  0.3026 -0.1170
   91SAPS   C21 8834   0.682   0.162   6.450  0.0087 -0.6460  1.0422
   91SAPS   O22 8835   0.763   0.073   6.439  0.5254 -0.2044 -0.0274
   91SAPS   C22 8836   0.547   0.142   6.525  0.0228 -0.3736 -0.0018
   91SAPS   H2R 8837   0.522   0.238   6.575  1.5746  0.6945 -1.2288
   91SAPS   H2S 8838   0.472   0.122   6.446  1.2688 -0.5336 -1.1717
   91SAPS    C3 8839   0.911   0.394   6.452 -0.0391  0.1526 -0.0007
   91SAPS    HX 8840   0.878   0.499   6.469 -2.8093 -0.8286  0.9881
   91SAPS    HY 8841   1.011   0.397   6.406  0.0611  1.4518  0.2970
   91SAPS   O31 8842   0.911   0.337   6.583 -0.2162 -0.7333  0.2972
   91SAPS   C31 8843   1.001   0.244   6.604 -0.1772  0.1739 -0.4944
   91SAPS   O32 8844   1.085   0.201   6.524  0.1347  0.0139  0.3971
   91SAPS   C32 8845   0.979   0.189   6.747  0.1995 -0.2199  0.2941
   91SAPS   H2X 8846   1.083   0.165   6.778  1.0490  0.5478 -1.8245
   91SAPS   H2Y 8847   0.918   0.097   6.735  0.0643 -0.3346  1.7400
   91SAPS   C23 8848   0.541   0.022   6.625 -0.0619  0.6417 -0.3210
   91SAPS   H3R 8849   0.603  -0.059   6.581 -1.8809  0.2295 -2.1785
   91SAPS   H3S 8850   0.437  -0.015   6.637 -1.1151  2.7725 -2.3818
   91SAPS   C24 8851   0.609   0.053   6.762  0.4472  0.1763  0.1534
   91SAPS   H4R 8852   0.544   0.127   6.814 -0.2787  0.3910 -1.0573
   91SAPS   H4S 8853   0.699   0.112   6.736 -0.1539  1.5787  1.1762
   91SAPS   C25 8854   0.629  -0.073   6.838 -0.1325  0.0893 -0.1722
   91SAPS   H5R 8855   0.713  -0.130   6.796  1.5151  1.5756  0.9998
   91SAPS   C26 8856   0.580  -0.112   6.959 -0.7302  0.2241 -0.1359
   91SAPS   H6R 8857   0.620  -0.206   6.997  1.1744  1.1533  0.2043
   91SAPS   C27 8858   0.478  -0.040   7.053 -0.5333  0.1070  0.0021
   91SAPS   H7R 8859   0.390  -0.104   7.075  0.4768 -0.7792  1.5713
   91SAPS   H7S 8860   0.424   0.044   7.006 -0.2093 -0.4886 -1.4624
   91SAPS   C28 8861   0.557   0.005   7.178  0.4766 -0.4387 -0.4077
   91SAPS   H8R 8862   0.660   0.031   7.148  0.5070 -1.1942 -0.9729
   91SAPS   C29 8863   0.518   0.011   7.305  0.3107 -0.2673  1.0255
   91SAPS   H9R 8864   0.592   0.049   7.377 -1.2260  2.6023  1.1701
   91SAPS  C210 8865   0.388  -0.023   7.359  0.5833  0.1814  0.0156
   91SAPS  H10R 8866   0.382  -0.130   7.389  0.4277  0.1382 -0.1694
   91SAPS  H10S 8867   0.303  -0.009   7.289  0.2578  2.1713  0.7713
   91SAPS  C211 8868   0.350   0.066   7.474  0.2746  0.1050 -0.4608
   91SAPS  H11R 8869   0.280   0.149   7.453 -0.1138 -0.5952 -1.9544
   91SAPS  C212 8870   0.396   0.055   7.597  0.5141 -0.1508  0.2534
   91SAPS  H12R 8871   0.349   0.113   7.678  0.6842 -0.1419  0.3471
   91SAPS  C213 8872   0.487  -0.048   7.660 -0.1491  0.9060  0.4293
   91SAPS  H13R 8873   0.557  -0.080   7.580  1.7495  2.1292  1.5635
   91SAPS  H13S 8874   0.435  -0.141   7.693  1.1279  0.5026  1.3235
   91SAPS  C214 8875   0.571   0.016   7.767  0.4457 -0.1098 -1.0783
   91SAPS  H14R 8876   0.678   0.036   7.750  0.8114 -1.5846 -0.5594
   91SAPS  C215 8877   0.534   0.052   7.893  0.2399  0.1088 -0.4496
   91SAPS  H15R 8878   0.610   0.104   7.953  0.6215 -1.1471  0.1773
   91SAPS  C216 8879   0.401   0.050   7.943  0.1589  0.5095 -0.2685
   91SAPS  H16R 8880   0.329   0.011   7.868 -0.7713  2.2117 -0.3011
   91SAPS  H16S 8881   0.359   0.152   7.955 -0.3100  0.4459 -1.3233
   91SAPS  C217 8882   0.382  -0.026   8.074  1.0003  0.7787 -0.2145
   91SAPS  H17R 8883   0.424   0.027   8.162 -1.6501 -0.5160  1.9270
   91SAPS  H17S 8884   0.438  -0.122   8.067 -0.4410 -0.0672 -0.3793
   91SAPS  C218 8885   0.231  -0.061   8.095 -0.0488  0.3325  0.2890
   91SAPS  H18R 8886   0.215  -0.125   8.006  1.3441  0.2454  0.0901
   91SAPS  H18S 8887   0.169   0.029   8.073 -2.1331 -0.9612  0.7153
   91SAPS  C219 8888   0.188  -0.132   8.228 -0.7418  0.6039 -0.0753
   91SAPS  H19R 8889   0.241  -0.084   8.313 -3.2812  0.1724  1.7961
   91SAPS  H19S 8890   0.210  -0.241   8.228  0.0211  0.7546 -0.8800
   91SAPS  C220 8891   0.039  -0.115   8.266  0.3136  0.3853 -0.7101
   91SAPS  H20R 8892  -0.018  -0.194   8.212  1.6146 -0.6488 -0.6265
   91SAPS  H20S 8893  -0.004  -0.014   8.253  0.0781  0.1266 -1.9865
   91SAPS  H20T 8894   0.028  -0.143   8.374  2.8449 -0.3847 -0.6206
   91SAPS   C33 8895   0.909   0.285   6.852  0.2331 -0.2272  0.1086
   91SAPS   H3X 8896   0.802   0.288   6.826  0.1252  0.4821  0.6072
   91SAPS   H3Y 8897   0.946   0.389   6.844  0.8542 -0.5316 -1.0440
   91SAPS   C34 8898   0.913   0.230   6.998 -0.4345 -0.6624  0.4375
   91SAPS   H4X 8899   1.022   0.224   7.017  0.1357 -0.6326 -2.6683
   91SAPS   H4Y 8900   0.876   0.125   7.002  3.6066 -2.2398 -1.2854
   91SAPS   C35 8901   0.835   0.304   7.099  0.0229  0.0090  0.5526
   91SAPS   H5X 8902   0.727   0.321   7.081  0.7397  1.3108 -2.8946
   91SAPS   H5Y 8903   0.880   0.405   7.094  0.8801 -0.4683 -1.9094
   91SAPS   C36 8904   0.844   0.247   7.248 -1.1050 -0.0779 -1.1998
   91SAPS   H6X 8905   0.950   0.258   7.280 -1.0837  1.6050 -1.7739
   91SAPS   H6Y 8906   0.810   0.142   7.256 -0.9761  0.0448  1.6004
   91SAPS   C37 8907   0.758   0.331   7.344  0.1495 -0.2957 -0.5852
   91SAPS   H7X 8908   0.662   0.351   7.291  2.3323  2.6798 -3.6267
   91SAPS   H7Y 8909   0.806   0.432   7.342 -0.0963 -0.1651 -0.1197
   91SAPS   C38 8910   0.740   0.279   7.488  0.6533  0.4371 -0.1231
   91SAPS   H8X 8911   0.837   0.243   7.529 -0.6751 -1.2366  1.6496
   91SAPS   H8Y 8912   0.656   0.206   7.491  2.9029 -2.2760 -0.7740
   91SAPS   C39 8913   0.693   0.401   7.578  0.5540  0.1090 -0.0424
   91SAPS   H9X 8914   0.592   0.438   7.550  0.2539 -1.2540 -0.7883
   91SAPS   H9Y 8915   0.776   0.473   7.563  0.5050 -0.0340 -1.0367
   91SAPS  C310 8916   0.689   0.360   7.731  0.1177 -0.5861 -0.6705
   91SAPS  H10X 8917   0.790   0.328   7.764  0.6913  1.7616 -0.0450
   91SAPS  H10Y 8918   0.598   0.300   7.754  1.4821 -2.1708  0.6943
   91SAPS  C311 8919   0.672   0.498   7.814 -0.0033 -0.3962  0.7863
   91SAPS  H11X 8920   0.575   0.537   7.778 -0.2710 -0.7516  1.1213
   91SAPS  H11Y 8921   0.762   0.563   7.803  1.1887 -1.8592  1.7046
   91SAPS  C312 8922   0.656   0.474   7.967  0.0988  0.4642 -0.2997
   91SAPS  H12X 8923   0.748   0.416   7.992  1.4340  0.5175 -4.6637
   91SAPS  H12Y 8924   0.560   0.427   7.997 -0.4865  0.0509 -2.7016
   91SAPS  C313 8925   0.658   0.617   8.033  0.0858  0.3941 -0.1634
   91SAPS  H13X 8926   0.553   0.654   8.043  0.1884  0.6988 -0.2040
   91SAPS  H13Y 8927   0.708   0.691   7.967  0.5811  0.6721  0.5228
   91SAPS  C314 8928   0.733   0.613   8.172 -0.1453  0.5092 -0.7539
   91SAPS  H14X 8929   0.833   0.567   8.158 -0.7929 -0.6321 -1.7695
   91SAPS  H14Y 8930   0.682   0.550   8.248  1.0611 -0.3944 -0.6770
   91SAPS  C315 8931   0.755   0.754   8.232  0.2277 -0.4532  0.0772
   91SAPS  H15X 8932   0.664   0.818   8.233 -0.0764 -0.9056  1.0688
   91SAPS  H15Y 8933   0.815   0.804   8.152 -2.3727 -3.2474 -3.7997
   91SAPS  C316 8934   0.841   0.742   8.357 -0.3431 -0.3667  0.2975
   91SAPS  H16X 8935   0.946   0.708   8.343  0.4619  2.1153 -0.0433
   91SAPS  H16Y 8936   0.784   0.669   8.417  1.6790 -1.6608  0.6839
   91SAPS  C317 8937   0.838   0.870   8.440  0.2615  0.0055 -0.1575
   91SAPS  H17X 8938   0.917   0.866   8.518  0.9359  0.0715 -0.8286
   91SAPS  H17Y 8939   0.740   0.882   8.490 -1.0402 -1.6960 -2.2648
   91SAPS  C318 8940   0.877   0.993   8.358  0.1921  0.0343 -0.5350
   91SAPS  H18X 8941   0.910   1.077   8.423 -0.0642  0.4823 -0.9812
   91SAPS  H18Y 8942   0.786   1.023   8.301 -1.3243 -3.4056 -0.0711
   91SAPS  H18Z 8943   0.951   0.971   8.280 -2.3843 -0.5379 -2.8977
   92SAPS     N 8944   6.674   4.298   6.043  0.6099 -0.4289 -0.3672
   92SAPS   HN1 8945   6.576   4.312   6.010  0.5189 -2.6967 -1.1874
   92SAPS   HN2 8946   6.737   4.318   5.963 -2.9477 -1.1427 -3.5431
   92SAPS   HN3 8947   6.688   4.198   6.067  1.5413 -0.0413  0.7274
   92SAPS   C12 8948   6.730   4.383   6.156 -0.5387  0.0558 -0.7402
   92SAPS  H12A 8949   6.820   4.340   6.197 -1.8618 -0.3882  1.7895
   92SAPS   C13 8950   6.762   4.531   6.117  0.8189 -0.6265  0.3862
   92SAPS  O13A 8951   6.743   4.572   6.000 -0.3828  0.0976 -0.6010
   92SAPS  O13B 8952   6.834   4.600   6.195 -0.2243  0.0366 -0.2420
   92SAPS   C11 8953   6.628   4.386   6.273 -0.7808  0.4849  0.7539
   92SAPS  H11A 8954   6.533   4.419   6.227 -0.5273 -1.2714 -1.0876
   92SAPS  H11B 8955   6.650   4.462   6.352  0.5157 -0.6199  1.4896
   92SAPS     P 8956   6.698   4.176   6.424 -0.4416 -0.3446  0.0407
   92SAPS   O13 8957   6.609   4.080   6.487 -0.0136  0.4588  0.0678
   92SAPS   O14 8958   6.817   4.124   6.355  0.0792  0.0423  0.1700
   92SAPS   O12 8959   6.613   4.250   6.316  0.5505 -0.3788  0.5623
   92SAPS   O11 8960   6.740   4.297   6.520 -0.4239  0.3471 -0.0281
   92SAPS    C1 8961   6.825   4.264   6.630 -0.3245 -0.1891 -0.8703
   92SAPS    HA 8962   6.768   4.211   6.708  0.9334  1.2473  1.0609
   92SAPS    HB 8963   6.913   4.202   6.599  1.1583  1.0927  0.7089
   92SAPS    C2 8964   6.878   4.384   6.705  0.2850 -0.4496 -0.3869
   92SAPS    HS 8965   6.948   4.351   6.785  1.8438  0.5229 -1.3143
   92SAPS   O21 8966   6.766   4.449   6.762  0.0949 -0.5243 -0.2780
   92SAPS   C21 8967   6.717   4.398   6.878 -0.5574  0.6097  0.0420
   92SAPS   O22 8968   6.767   4.314   6.947  0.0042 -0.0491 -0.0606
   92SAPS   C22 8969   6.590   4.466   6.909 -0.9922  0.9662  0.3016
   92SAPS   H2R 8970   6.590   4.566   6.860  1.2093  1.1376  0.6171
   92SAPS   H2S 8971   6.508   4.406   6.863 -0.6901 -0.1655  1.2263
   92SAPS    C3 8972   6.955   4.470   6.612 -0.5149  0.2673  0.4176
   92SAPS    HX 8973   6.897   4.490   6.519  0.6026  0.7559 -0.1743
   92SAPS    HY 8974   7.044   4.420   6.569 -0.7368 -2.2854  2.7441
   92SAPS   O31 8975   6.988   4.595   6.675 -0.2187 -0.1969  0.1092
   92SAPS   C31 8976   7.112   4.607   6.723  0.1986  0.3544 -0.7858
   92SAPS   O32 8977   7.197   4.515   6.725  0.2466  0.6530  0.0468
   92SAPS   C32 8978   7.120   4.738   6.801  0.5941  0.1081 -0.4076
   92SAPS   H2X 8979   7.013   4.766   6.815 -0.0406 -2.4657  0.0569
   92SAPS   H2Y 8980   7.169   4.811   6.732  0.0007 -0.4029 -1.3808
   92SAPS   C23 8981   6.561   4.484   7.064 -0.1910  0.2205  1.0287
   92SAPS   H3R 8982   6.535   4.382   7.102 -2.1148  0.3215  0.0717
   92SAPS   H3S 8983   6.462   4.530   7.083 -0.3566  0.2698  0.0491
   92SAPS   C24 8984   6.672   4.543   7.150  0.3174 -0.8302  0.3932
   92SAPS   H4R 8985   6.765   4.485   7.132 -0.2386 -1.7962  0.5856
   92SAPS   H4S 8986   6.647   4.531   7.257 -1.6312 -1.0857 -0.0698
   92SAPS   C25 8987   6.704   4.687   7.119  0.0170 -0.3352 -0.8054
   92SAPS   H5R 8988   6.751   4.703   7.021  0.0419  1.1689 -0.5623
   92SAPS   C26 8989   6.683   4.788   7.210  0.2843 -0.2042 -0.4648
   92SAPS   H6R 8990   6.721   4.887   7.179  1.5425 -0.8874 -1.1232
   92SAPS   C27 8991   6.626   4.790   7.350  1.1890 -0.5304 -0.9028
   92SAPS   H7R 8992   6.665   4.869   7.417 -1.6352 -0.4889  0.7628
   92SAPS   H7S 8993   6.627   4.695   7.408 -2.3368  0.0145  0.1358
   92SAPS   C28 8994   6.484   4.841   7.350 -1.0379  0.0344 -0.1651
   92SAPS   H8R 8995   6.426   4.822   7.258  0.6370 -0.1325 -1.2163
   92SAPS   C29 8996   6.422   4.900   7.453 -0.3522 -0.7302  0.2747
   92SAPS   H9R 8997   6.323   4.947   7.455  0.4545  1.0359 -0.4512
   92SAPS  C210 8998   6.483   4.926   7.588 -0.6306 -0.4703  0.3057
   92SAPS  H10R 8999   6.527   5.028   7.594 -0.6240 -0.3379 -1.7834
   92SAPS  H10S 9000   6.566   4.855   7.605 -0.2040 -0.0285  0.0700
   92SAPS  C211 9001   6.377   4.909   7.698 -0.3625 -0.1333 -0.0540
   92SAPS  H11R 9002   6.278   4.950   7.673 -0.2550  0.0101 -0.2497
   92SAPS  C212 9003   6.392   4.870   7.824 -0.2688  0.1266  0.6197
   92SAPS  H12R 9004   6.304   4.877   7.890 -0.3538 -1.3240  0.6852
   92SAPS  C213 9005   6.520   4.820   7.887 -0.5150 -0.2809 -0.3054
   92SAPS  H13R 9006   6.581   4.778   7.803  0.3182 -0.2774  0.2925
   92SAPS  H13S 9007   6.517   4.726   7.947 -0.0589  0.7240  1.3166
   92SAPS  C214 9008   6.593   4.928   7.960 -0.4595  0.7549  0.1164
   92SAPS  H14R 9009   6.665   4.983   7.897 -0.2484  1.2976  0.8373
   92SAPS  C215 9010   6.588   4.956   8.091  0.5291  0.5833  0.5886
   92SAPS  H15R 9011   6.648   5.041   8.127 -1.6547  2.4860 -0.1701
   92SAPS  C216 9012   6.505   4.891   8.201 -0.8085  0.0810  0.6414
   92SAPS  H16R 9013   6.560   4.894   8.297  0.9876  0.5513 -0.3840
   92SAPS  H16S 9014   6.505   4.786   8.164  1.5786 -0.4702  2.1627
   92SAPS  C217 9015   6.366   4.942   8.222 -0.6773 -0.6012 -0.4112
   92SAPS  H17R 9016   6.306   4.947   8.129  0.8393  3.4909 -1.2496
   92SAPS  H17S 9017   6.366   5.049   8.252 -1.8619 -0.1410 -1.9532
   92SAPS  C218 9018   6.269   4.871   8.318  0.9153 -0.0079  0.2169
   92SAPS  H18R 9019   6.242   4.772   8.276 -0.1682  1.6018 -3.0486
   92SAPS  H18S 9020   6.171   4.924   8.323  1.5006  1.1148 -0.0687
   92SAPS  C219 9021   6.320   4.871   8.460  0.3889  0.2816  0.6729
   92SAPS  H19R 9022   6.228   4.845   8.516  0.4506  0.5338  0.8974
   92SAPS  H19S 9023   6.342   4.970   8.506 -0.4868  0.2603  1.1439
   92SAPS  C220 9024   6.415   4.758   8.501 -0.7158  0.4964  0.3562
   92SAPS  H20R 9025   6.522   4.770   8.475 -1.3958  1.6640 -1.9840
   92SAPS  H20S 9026   6.379   4.657   8.471  0.6385 -0.6139  2.3462
   92SAPS  H20T 9027   6.412   4.748   8.612 -0.1584 -2.4348  0.1558
   92SAPS   C33 9028   7.190   4.724   6.941 -0.1648  0.3459 -0.3789
   92SAPS   H3X 9029   7.291   4.772   6.943 -0.7550  1.6154 -0.8164
   92SAPS   H3Y 9030   7.201   4.616   6.964 -1.6996  0.3503  0.4136
   92SAPS   C34 9031   7.087   4.781   7.045  0.0515  0.2360 -0.0442
   92SAPS   H4X 9032   6.993   4.722   7.049  0.3842 -0.3382 -0.5483
   92SAPS   H4Y 9033   7.067   4.882   7.002 -0.8015  0.1043  0.0320
   92SAPS   C35 9034   7.138   4.777   7.188 -1.1383 -0.4187  0.2024
   92SAPS   H5X 9035   7.229   4.840   7.204 -0.4611 -1.7026  1.4787
   92SAPS   H5Y 9036   7.173   4.674   7.209 -1.1931 -0.1511  1.6892
   92SAPS   C36 9037   7.033   4.817   7.287  0.3300 -0.0125  0.1715
   92SAPS   H6X 9038   6.952   4.741   7.293 -1.9051  2.2156 -0.8015
   92SAPS   H6Y 9039   6.993   4.917   7.257 -2.0273 -1.5664 -2.1049
   92SAPS   C37 9040   7.089   4.828   7.433 -0.2838 -0.7564  0.1590
   92SAPS   H7X 9041   7.181   4.891   7.437 -1.5891  1.3183 -1.4211
   92SAPS   H7Y 9042   7.111   4.723   7.462  0.7560 -0.5236  0.2230
   92SAPS   C38 9043   6.976   4.879   7.525 -0.0309 -0.4624 -0.2560
   92SAPS   H8X 9044   6.904   4.795   7.536  0.7219 -0.9989  0.7428
   92SAPS   H8Y 9045   6.920   4.961   7.475  1.1610 -0.2885 -1.3458
   92SAPS   C39 9046   7.046   4.917   7.664  0.3695 -0.0522 -0.3890
   92SAPS   H9X 9047   7.125   4.991   7.641  2.0738 -1.5236  0.5801
   92SAPS   H9Y 9048   7.103   4.830   7.704  2.3102  2.0767  1.6916
   92SAPS  C310 9049   6.951   4.977   7.768 -0.0752  0.3462  0.4602
   92SAPS  H10X 9050   6.889   4.898   7.814 -1.3446 -0.0449 -1.8517
   92SAPS  H10Y 9051   6.884   5.050   7.719 -2.3342 -2.2860 -0.5046
   92SAPS  C311 9052   7.031   5.047   7.881 -0.6345  0.2836  0.3929
   92SAPS  H11X 9053   7.093   5.133   7.848 -0.0561  0.4217  1.8234
   92SAPS  H11Y 9054   7.102   4.972   7.921 -0.5088  0.5693  0.7025
   92SAPS  C312 9055   6.927   5.115   7.974 -0.8222 -0.4675 -0.7625
   92SAPS  H12X 9056   6.894   5.035   8.044  1.3108 -1.2209 -0.5553
   92SAPS  H12Y 9057   6.844   5.164   7.919  0.0915  0.6051 -1.2147
   92SAPS  C313 9058   7.010   5.220   8.055  0.2525 -0.0029 -0.6734
   92SAPS  H13X 9059   6.944   5.282   8.119  0.4016 -1.9878  1.4437
   92SAPS  H13Y 9060   7.049   5.286   7.975  1.4428  1.6552  1.2405
   92SAPS  C314 9061   7.123   5.167   8.157  0.1433  0.6710  0.1364
   92SAPS  H14X 9062   7.183   5.257   8.181 -2.5664  2.5893 -0.0219
   92SAPS  H14Y 9063   7.193   5.106   8.097 -1.7144  0.1088 -1.5295
   92SAPS  C315 9064   7.069   5.103   8.284 -0.3526  0.5446 -0.6016
   92SAPS  H15X 9065   7.000   5.020   8.257  0.7281 -0.2355 -1.0098
   92SAPS  H15Y 9066   7.015   5.177   8.347 -0.0323  0.3198 -0.0569
   92SAPS  C316 9067   7.184   5.049   8.375  0.4955  0.6187 -0.4615
   92SAPS  H16X 9068   7.251   5.134   8.401 -0.1030  0.8996  0.1698
   92SAPS  H16Y 9069   7.239   4.960   8.337 -0.3050 -0.7564  1.4991
   92SAPS  C317 9070   7.120   4.998   8.509  0.9239  0.7598 -0.4507
   92SAPS  H17X 9071   7.197   4.933   8.556 -0.6427 -1.2842 -0.6370
   92SAPS  H17Y 9072   7.030   4.936   8.491  1.6198 -0.3077 -0.2792
   92SAPS  C318 9073   7.083   5.100   8.620  0.3157 -0.1598 -0.2744
   92SAPS  H18X 9074   7.176   5.154   8.647 -0.1105 -0.3946  1.6910
   92SAPS  H18Y 9075   7.047   5.038   8.705 -2.6398  1.1301 -0.5167
   92SAPS  H18Z 9076   7.004   5.171   8.587 -0.3326 -0.4180  0.7119
   93SAPS     N 9077   1.156   4.362   6.121 -0.5464  0.2865  0.2900
   93SAPS   HN1 9078   1.228   4.390   6.191 -0.1645 -2.3386  0.9803
   93SAPS   HN2 9079   1.106   4.277   6.154  0.1084 -0.0613  0.3726
   93SAPS   HN3 9080   1.207   4.333   6.036 -1.0919  1.1433 -0.3438
   93SAPS   C12 9081   1.060   4.464   6.085  0.1605 -0.2457 -0.2436
   93SAPS  H12A 9082   1.109   4.557   6.061 -1.0676 -0.8107 -5.7068
   93SAPS   C13 9083   0.989   4.440   5.950  0.0657  0.2215 -0.2120
   93SAPS  O13A 9084   0.995   4.328   5.887  0.4032 -0.3832  0.4374
   93SAPS  O13B 9085   0.908   4.525   5.904  0.1466 -0.5637  0.2640
   93SAPS   C11 9086   0.964   4.486   6.201 -0.9763 -0.5335 -0.0592
   93SAPS  H11A 9087   0.922   4.386   6.224 -1.4666 -0.2934  0.0798
   93SAPS  H11B 9088   0.877   4.547   6.168  1.1403  2.1867 -0.8414
   93SAPS     P 9089   1.016   4.702   6.343  0.4775  0.1572 -0.0900
   93SAPS   O13 9090   1.121   4.739   6.442 -0.1211 -0.1475  0.0066
   93SAPS   O14 9091   1.018   4.767   6.214 -0.2001  0.1094 -0.5893
   93SAPS   O12 9092   1.024   4.546   6.320 -0.6971  0.4039  0.5270
   93SAPS   O11 9093   0.878   4.722   6.403  0.2392 -0.3271 -0.6782
   93SAPS    C1 9094   0.785   4.629   6.454  0.1141  0.1359  0.1513
   93SAPS    HA 9095   0.691   4.634   6.396  1.1499  3.8467 -1.3467
   93SAPS    HB 9096   0.826   4.526   6.445  2.7659  1.0995  0.6401
   93SAPS    C2 9097   0.759   4.653   6.609 -0.0961  0.1408  0.0588
   93SAPS    HS 9098   0.664   4.602   6.638 -0.6692 -0.1478 -2.2819
   93SAPS   O21 9099   0.752   4.793   6.637 -0.0427 -0.0749  0.0756
   93SAPS   C21 9100   0.675   4.869   6.562  0.5077 -0.9501 -0.1345
   93SAPS   O22 9101   0.583   4.833   6.491 -0.1938  0.1902 -0.4385
   93SAPS   C22 9102   0.708   5.015   6.605  0.7066  0.0919 -0.1732
   93SAPS   H2R 9103   0.709   5.023   6.716  0.2714 -1.4538 -0.0441
   93SAPS   H2S 9104   0.814   5.025   6.571 -0.3059  2.0381 -2.9471
   93SAPS    C3 9105   0.879   4.585   6.692 -0.1479  0.0269  0.4802
   93SAPS    HX 9106   0.978   4.599   6.644 -0.0993 -0.3457  0.4651
   93SAPS    HY 9107   0.853   4.478   6.674 -1.8982  0.7667 -1.6582
   93SAPS   O31 9108   0.893   4.612   6.830  0.6458  0.9343  0.0066
   93SAPS   C31 9109   0.961   4.727   6.859  0.5650 -0.1334  0.0922
   93SAPS   O32 9110   1.028   4.791   6.784  0.4437 -0.2967  0.5990
   93SAPS   C32 9111   0.946   4.773   7.009 -0.3736 -0.7514  0.2174
   93SAPS   H2X 9112   1.051   4.800   7.032 -0.2443 -0.3810 -0.7357
   93SAPS   H2Y 9113   0.914   4.689   7.073 -0.4602 -1.0648 -0.2323
   93SAPS   C23 9114   0.619   5.125   6.549 -0.2089 -0.1242 -0.1390
   93SAPS   H3R 9115   0.515   5.106   6.582 -0.3741 -1.9744 -1.6090
   93SAPS   H3S 9116   0.620   5.123   6.438  0.3949 -0.4281 -0.1358
   93SAPS   C24 9117   0.684   5.264   6.593  0.1764 -0.3015  0.0059
   93SAPS   H4R 9118   0.765   5.295   6.523  0.0897 -0.3831 -0.1290
   93SAPS   H4S 9119   0.738   5.238   6.687  0.1093  1.9752  0.6811
   93SAPS   C25 9120   0.596   5.387   6.618  0.1594 -0.4617 -0.8255
   93SAPS   H5R 9121   0.588   5.462   6.538 -1.3410 -1.5050 -1.6628
   93SAPS   C26 9122   0.521   5.400   6.731 -0.0689  0.4097  0.8408
   93SAPS   H6R 9123   0.453   5.486   6.730 -0.3153  0.2514  2.1160
   93SAPS   C27 9124   0.513   5.293   6.839 -0.3106 -0.3455 -0.2794
   93SAPS   H7R 9125   0.565   5.340   6.926 -1.7523  1.5071 -0.3891
   93SAPS   H7S 9126   0.579   5.206   6.815 -0.6991 -0.9190  0.6876
   93SAPS   C28 9127   0.373   5.242   6.877 -0.8233  0.1010 -0.5317
   93SAPS   H8R 9128   0.313   5.193   6.798 -1.6850  2.2520 -1.2669
   93SAPS   C29 9129   0.334   5.238   7.004 -0.5192 -0.1375  0.2262
   93SAPS   H9R 9130   0.236   5.190   7.016 -1.4448  1.9745  1.3917
   93SAPS  C210 9131   0.395   5.290   7.129 -0.5308  0.4831 -0.1807
   93SAPS  H10R 9132   0.345   5.381   7.168  0.1694  0.8554 -0.1446
   93SAPS  H10S 9133   0.498   5.331   7.119 -1.0889  2.4275  1.8680
   93SAPS  C211 9134   0.402   5.180   7.238  0.5130  0.3358  0.8793
   93SAPS  H11R 9135   0.372   5.078   7.210 -1.2177  1.2832 -0.9471
   93SAPS  C212 9136   0.459   5.190   7.357 -0.4007 -0.9403 -0.5275
   93SAPS  H12R 9137   0.455   5.112   7.435  2.1321 -1.3662 -0.7707
   93SAPS  C213 9138   0.539   5.309   7.405 -0.1348 -0.5296  0.7602
   93SAPS  H13R 9139   0.536   5.390   7.329  0.5024 -1.5380 -0.3340
   93SAPS  H13S 9140   0.648   5.290   7.414 -0.0344 -1.0163 -1.2501
   93SAPS  C214 9141   0.476   5.364   7.535  0.4649  0.1787 -0.0194
   93SAPS  H14R 9142   0.401   5.441   7.514  0.0758 -0.7738 -2.3638
   93SAPS  C215 9143   0.507   5.326   7.659 -0.4465 -0.1290  0.0442
   93SAPS  H15R 9144   0.447   5.365   7.742  0.9881 -1.8046  1.9215
   93SAPS  C216 9145   0.600   5.221   7.701 -0.7712 -0.0578  0.3168
   93SAPS  H16R 9146   0.650   5.177   7.612 -1.2593 -0.5482  0.2827
   93SAPS  H16S 9147   0.558   5.136   7.759  1.7437  1.2571  4.1837
   93SAPS  C217 9148   0.726   5.269   7.787  0.1931  0.6131  0.7098
   93SAPS  H17R 9149   0.781   5.356   7.746  3.7923 -0.8995  2.1167
   93SAPS  H17S 9150   0.801   5.188   7.798 -1.8626 -1.3455  0.6701
   93SAPS  C218 9151   0.688   5.300   7.933 -0.4491 -0.0438 -0.1038
   93SAPS  H18R 9152   0.635   5.213   7.977 -0.0629  0.3151  1.0891
   93SAPS  H18S 9153   0.627   5.393   7.940  1.6396  1.5126 -1.5045
   93SAPS  C219 9154   0.810   5.342   8.018  0.6818 -0.8138 -0.3979
   93SAPS  H19R 9155   0.840   5.447   7.997  0.1765 -1.3064 -3.8160
   93SAPS  H19S 9156   0.894   5.273   7.995 -0.3367 -1.2608 -2.9632
   93SAPS  C220 9157   0.782   5.322   8.166  0.4080  0.5262  0.2681
   93SAPS  H20R 9158   0.713   5.398   8.208 -2.4332 -0.6383 -2.1243
   93SAPS  H20S 9159   0.869   5.350   8.230  0.9551  3.0483 -1.5242
   93SAPS  H20T 9160   0.739   5.226   8.202 -1.0561  1.5742  1.3825
   93SAPS   C33 9161   0.859   4.894   7.020 -0.5866  0.4138 -0.6666
   93SAPS   H3X 9162   0.758   4.851   7.004 -0.7075 -0.7879  2.8938
   93SAPS   H3Y 9163   0.889   4.969   6.944  2.5567  0.6938  0.7895
   93SAPS   C34 9164   0.857   4.954   7.165  0.4862  0.3816 -1.0951
   93SAPS   H4X 9165   0.777   5.030   7.173  0.8714  0.8152 -1.3147
   93SAPS   H4Y 9166   0.956   5.002   7.185 -0.3017  1.7390 -0.4208
   93SAPS   C35 9167   0.828   4.858   7.284 -0.0825  0.2073 -0.6261
   93SAPS   H5X 9168   0.922   4.800   7.300  0.3814  0.1781 -3.1996
   93SAPS   H5Y 9169   0.750   4.783   7.260  1.2423 -1.0733 -0.9855
   93SAPS   C36 9170   0.771   4.932   7.407 -0.1280 -0.3138  0.2313
   93SAPS   H6X 9171   0.670   4.967   7.378  0.0971 -0.4770 -0.7873
   93SAPS   H6Y 9172   0.833   5.017   7.443  1.7716 -0.9377 -1.4549
   93SAPS   C37 9173   0.766   4.833   7.524 -0.0136  0.1381 -0.1843
   93SAPS   H7X 9174   0.857   4.769   7.525 -1.3616 -1.8376 -1.5774
   93SAPS   H7Y 9175   0.690   4.756   7.500  1.4530 -0.2915 -3.7805
   93SAPS   C38 9176   0.729   4.894   7.655  0.6613  0.3798 -0.3722
   93SAPS   H8X 9177   0.631   4.942   7.632  1.0039  0.4131 -1.7716
   93SAPS   H8Y 9178   0.800   4.972   7.691  2.9897 -1.9176  0.1358
   93SAPS   C39 9179   0.701   4.790   7.768 -0.6348  0.6781  0.3749
   93SAPS   H9X 9180   0.805   4.766   7.798 -0.9008  1.8063  2.2679
   93SAPS   H9Y 9181   0.664   4.696   7.722  0.4663 -0.0038  0.8656
   93SAPS  C310 9182   0.628   4.837   7.894  0.5477 -0.5540  0.4389
   93SAPS  H10X 9183   0.544   4.899   7.856  1.3785 -0.8012 -1.9151
   93SAPS  H10Y 9184   0.688   4.912   7.950  1.6157 -1.4992  0.5625
   93SAPS  C311 9185   0.605   4.713   7.976  0.8191 -0.3368  1.3734
   93SAPS  H11X 9186   0.699   4.673   8.019  1.2266 -1.4934 -0.5260
   93SAPS  H11Y 9187   0.557   4.630   7.919  1.0580 -0.3298  1.1572
   93SAPS  C312 9188   0.514   4.745   8.099 -0.1181  0.2727  0.4480
   93SAPS  H12X 9189   0.415   4.782   8.065 -0.3982 -0.1390  0.8049
   93SAPS  H12Y 9190   0.564   4.833   8.144  0.8475  0.5896 -1.1839
   93SAPS  C313 9191   0.493   4.632   8.200 -0.4173  0.5556  0.0819
   93SAPS  H13X 9192   0.585   4.570   8.194  0.7257  2.3063 -1.1556
   93SAPS  H13Y 9193   0.410   4.573   8.157  0.2415 -0.7552  0.6060
   93SAPS  C314 9194   0.446   4.687   8.342  0.8330 -0.2048 -0.4253
   93SAPS  H14X 9195   0.337   4.701   8.353  1.1844  0.0148  3.3722
   93SAPS  H14Y 9196   0.506   4.780   8.348  1.0664 -0.4590  1.3431
   93SAPS  C315 9197   0.481   4.597   8.455 -0.0877  0.5174 -0.3143
   93SAPS  H15X 9198   0.458   4.659   8.545 -0.9839 -0.1345 -0.0895
   93SAPS  H15Y 9199   0.590   4.572   8.450  0.0541  0.9051  0.6283
   93SAPS  C316 9200   0.405   4.462   8.475 -0.1022  0.6940  0.1678
   93SAPS  H16X 9201   0.455   4.392   8.405 -2.1294 -2.6322  1.8987
   93SAPS  H16Y 9202   0.304   4.484   8.435 -0.0266  0.8571  0.0669
   93SAPS  C317 9203   0.409   4.411   8.619  0.1346 -0.0450 -1.2652
   93SAPS  H17X 9204   0.359   4.312   8.623 -0.7297  0.4858  1.6347
   93SAPS  H17Y 9205   0.352   4.483   8.682 -0.6840 -1.1739 -0.7012
   93SAPS  C318 9206   0.555   4.392   8.670  0.4946 -0.2271  0.1867
   93SAPS  H18X 9207   0.619   4.318   8.619  0.3441 -0.7204  0.7034
   93SAPS  H18Y 9208   0.544   4.357   8.775  0.7538 -0.9290 -0.0196
   93SAPS  H18Z 9209   0.612   4.486   8.685  0.7919 -0.7583  2.7547
   94SAPS     N 9210   6.435   0.664   5.790  0.6719  0.4135 -0.1376
   94SAPS   HN1 9211   6.354   0.598   5.788 -1.5603  3.1001 -2.8854
   94SAPS   HN2 9212   6.408   0.741   5.854  0.1281 -0.9532  1.3144
   94SAPS   HN3 9213   6.446   0.713   5.699 -0.0935  0.0164 -0.4549
   94SAPS   C12 9214   6.571   0.618   5.829  0.0918 -0.2593  0.6344
   94SAPS  H12A 9215   6.579   0.588   5.933  1.3529  0.3658  0.7207
   94SAPS   C13 9216   6.615   0.496   5.743  0.2839 -0.1922 -0.4385
   94SAPS  O13A 9217   6.550   0.461   5.644  0.1087  0.0021  0.6900
   94SAPS  O13B 9218   6.724   0.448   5.772  0.0980  0.7073 -0.2800
   94SAPS   C11 9219   6.672   0.731   5.808  0.0349 -0.1069  0.1153
   94SAPS  H11A 9220   6.687   0.747   5.699 -1.4443 -1.3203 -0.2922
   94SAPS  H11B 9221   6.772   0.701   5.846 -1.6857 -4.9247  1.2139
   94SAPS     P 9222   6.689   0.959   5.942  0.3191  0.0758  0.2965
   94SAPS   O13 9223   6.758   1.041   5.840 -0.8044 -0.4918 -0.1874
   94SAPS   O14 9224   6.604   1.030   6.036 -0.0393 -0.3654 -0.1022
   94SAPS   O12 9225   6.609   0.850   5.866 -0.2133 -0.7930  0.5935
   94SAPS   O11 9226   6.792   0.871   6.014 -0.1883 -0.1794 -0.5688
   94SAPS    C1 9227   6.765   0.781   6.123 -0.1788 -0.0642 -0.0621
   94SAPS    HA 9228   6.659   0.749   6.123  0.0810 -0.9403 -1.0450
   94SAPS    HB 9229   6.822   0.686   6.112 -1.3941 -0.8175  0.0650
   94SAPS    C2 9230   6.802   0.845   6.259 -0.0665 -0.0087  0.0163
   94SAPS    HS 9231   6.764   0.950   6.259  1.0256  0.4059  2.1105
   94SAPS   O21 9232   6.947   0.832   6.271 -0.5021  0.1180  0.2155
   94SAPS   C21 9233   7.008   0.939   6.316  0.0942 -0.6732 -0.5805
   94SAPS   O22 9234   6.961   1.046   6.352  0.5327 -0.6788  0.2649
   94SAPS   C22 9235   7.154   0.911   6.318  0.9580  0.0429 -0.7802
   94SAPS   H2R 9236   7.175   0.811   6.275 -1.1779 -0.9432  0.3994
   94SAPS   H2S 9237   7.207   0.987   6.257 -0.2453  0.6518 -1.0850
   94SAPS    C3 9238   6.736   0.773   6.374 -0.4633  0.0565  0.4666
   94SAPS    HX 9239   6.768   0.667   6.362  1.7613  0.7190  0.3596
   94SAPS    HY 9240   6.625   0.784   6.373 -0.3465  1.3851  0.7245
   94SAPS   O31 9241   6.805   0.817   6.496 -0.7106 -0.2772  0.2302
   94SAPS   C31 9242   6.734   0.803   6.598 -0.2408 -1.0120  0.2931
   94SAPS   O32 9243   6.622   0.754   6.597 -0.1038 -0.1604  0.2115
   94SAPS   C32 9244   6.804   0.870   6.716  0.1281  0.3510 -0.2768
   94SAPS   H2X 9245   6.729   0.930   6.772  0.8554 -1.9801  3.3884
   94SAPS   H2Y 9246   6.880   0.943   6.681 -0.6532  1.6597  0.7074
   94SAPS   C23 9247   7.213   0.902   6.463 -0.2653 -0.2653  0.6251
   94SAPS   H3R 9248   7.169   0.990   6.515  1.0922 -0.0476  1.4148
   94SAPS   H3S 9249   7.322   0.923   6.462 -0.8251  2.9259 -1.6088
   94SAPS   C24 9250   7.183   0.764   6.533  0.0038 -0.3274 -0.0229
   94SAPS   H4R 9251   7.085   0.713   6.517  0.6375 -1.1702 -1.2477
   94SAPS   H4S 9252   7.197   0.790   6.640  1.2774 -2.0543  0.2369
   94SAPS   C25 9253   7.279   0.659   6.485  0.0882 -0.1074  0.8550
   94SAPS   H5R 9254   7.254   0.627   6.382 -0.2543 -0.6827  1.1183
   94SAPS   C26 9255   7.395   0.616   6.539  0.0341  0.9092 -0.0684
   94SAPS   H6R 9256   7.441   0.526   6.495 -1.9742 -0.6832  1.0079
   94SAPS   C27 9257   7.447   0.664   6.673  0.1674  0.4975 -0.1819
   94SAPS   H7R 9258   7.439   0.775   6.681 -1.2096  0.4724 -1.1015
   94SAPS   H7S 9259   7.558   0.652   6.679  0.0885 -0.1577 -0.0526
   94SAPS   C28 9260   7.381   0.612   6.801  0.3774  0.8645 -0.2452
   94SAPS   H8R 9261   7.304   0.537   6.775  0.9264 -0.7469  2.5535
   94SAPS   C29 9262   7.415   0.630   6.930  0.0036  0.1608 -0.3792
   94SAPS   H9R 9263   7.355   0.579   7.007 -0.1101  0.0077 -0.5669
   94SAPS  C210 9264   7.529   0.713   6.980 -0.0733 -0.7715  0.1079
   94SAPS  H10R 9265   7.596   0.741   6.896 -1.8122 -0.7325 -1.2933
   94SAPS  H10S 9266   7.581   0.643   7.049  0.4694 -1.3251 -0.8515
   94SAPS  C211 9267   7.496   0.840   7.052  0.4911  0.1517  0.3832
   94SAPS  H11R 9268   7.464   0.928   6.993  1.9257 -0.9114 -2.0423
   94SAPS  C212 9269   7.523   0.876   7.178 -0.0355  0.5355 -0.1378
   94SAPS  H12R 9270   7.495   0.975   7.216  0.9030 -0.5296  3.5006
   94SAPS  C213 9271   7.590   0.787   7.278  0.0852  0.0304  0.4487
   94SAPS  H13R 9272   7.681   0.835   7.319  0.0451 -1.2540  2.0968
   94SAPS  H13S 9273   7.633   0.692   7.239 -2.3743 -0.6893 -0.6659
   94SAPS  C214 9274   7.490   0.759   7.387  0.5717  0.3086  0.2371
   94SAPS  H14R 9275   7.429   0.669   7.374  0.6238  0.6529 -2.8965
   94SAPS  C215 9276   7.470   0.820   7.508  0.6497  0.4885 -0.2457
   94SAPS  H15R 9277   7.401   0.783   7.585  1.0988  2.7587  1.3197
   94SAPS  C216 9278   7.554   0.938   7.549  0.4562 -0.0881 -0.4565
   94SAPS  H16R 9279   7.497   1.019   7.600 -0.2989  0.7180 -2.5297
   94SAPS  H16S 9280   7.588   0.984   7.453  2.5713 -0.8471 -0.1027
   94SAPS  C217 9281   7.665   0.922   7.654 -0.1365  0.3141 -0.4856
   94SAPS  H17R 9282   7.727   1.014   7.647  0.6425 -0.2191 -0.6305
   94SAPS  H17S 9283   7.740   0.850   7.616  1.1457  3.2489 -3.7970
   94SAPS  C218 9284   7.612   0.888   7.792  0.2608  0.0713  0.5296
   94SAPS  H18R 9285   7.581   0.781   7.795 -0.7506  0.3408  0.0760
   94SAPS  H18S 9286   7.521   0.952   7.794  1.1642  1.5083 -2.3041
   94SAPS  C219 9287   7.702   0.933   7.904  0.4002  0.7686  0.3363
   94SAPS  H19R 9288   7.644   0.942   7.998 -0.4506  0.0407 -0.1158
   94SAPS  H19S 9289   7.738   1.037   7.884 -0.9320  0.9870 -1.0215
   94SAPS  C220 9290   7.814   0.837   7.944 -0.8153 -0.1806  0.5266
   94SAPS  H20R 9291   7.861   0.872   8.038 -2.9377  2.1297  0.7738
   94SAPS  H20S 9292   7.889   0.821   7.863 -2.3292 -1.2188 -0.6992
   94SAPS  H20T 9293   7.777   0.738   7.979 -0.8328  0.5235  2.5304
   94SAPS   C33 9294   6.856   0.763   6.813  0.5058 -0.0954 -0.2781
   94SAPS   H3X 9295   6.959   0.726   6.795  0.9035 -1.1274  3.6021
   94SAPS   H3Y 9296   6.792   0.672   6.811 -0.5742  0.6524 -0.0512
   94SAPS   C34 9297   6.851   0.819   6.956  0.3647  0.3614 -0.2650
   94SAPS   H4X 9298   6.890   0.923   6.962  0.3866  0.3512 -0.2324
   94SAPS   H4Y 9299   6.928   0.752   7.000  0.5639  0.3509 -0.6290
   94SAPS   C35 9300   6.714   0.810   7.024  0.8245 -0.2087 -0.3306
   94SAPS   H5X 9301   6.686   0.703   7.011  0.5952 -0.3385  1.1403
   94SAPS   H5Y 9302   6.640   0.876   6.974 -1.2800 -1.1317  1.4772
   94SAPS   C36 9303   6.727   0.824   7.170 -0.5082  0.6735  0.1763
   94SAPS   H6X 9304   6.771   0.923   7.194  2.6283 -0.1287 -1.9771
   94SAPS   H6Y 9305   6.796   0.747   7.210  0.3701 -0.3450 -3.1246
   94SAPS   C37 9306   6.596   0.808   7.242 -0.4402 -0.0028  0.0261
   94SAPS   H7X 9307   6.551   0.707   7.231  0.4321 -0.3159 -0.6761
   94SAPS   H7Y 9308   6.521   0.879   7.201 -0.7031 -0.9987 -1.2637
   94SAPS   C38 9309   6.608   0.834   7.394  0.0862 -0.1717 -0.1657
   94SAPS   H8X 9310   6.512   0.810   7.445 -0.7373 -0.0998 -1.6485
   94SAPS   H8Y 9311   6.632   0.941   7.412 -0.0582 -0.1226 -0.2633
   94SAPS   C39 9312   6.728   0.769   7.466  0.5086  0.4042 -0.0223
   94SAPS   H9X 9313   6.818   0.825   7.431  1.4004 -0.1621  1.3308
   94SAPS   H9Y 9314   6.732   0.660   7.447 -1.1685  0.4614 -0.7091
   94SAPS  C310 9315   6.724   0.783   7.624 -0.1533 -0.2749  0.0034
   94SAPS  H10X 9316   6.813   0.741   7.675 -0.8337 -0.3999  1.1085
   94SAPS  H10Y 9317   6.633   0.728   7.657 -0.2663 -0.4461 -0.5953
   94SAPS  C311 9318   6.709   0.927   7.684  0.5386  1.2103 -0.5216
   94SAPS  H11X 9319   6.603   0.958   7.682  0.5775  1.3122 -1.0015
   94SAPS  H11Y 9320   6.771   0.996   7.623  0.1281  0.7711 -1.4483
   94SAPS  C312 9321   6.748   0.929   7.834 -0.6048 -0.2201 -0.1337
   94SAPS  H12X 9322   6.853   0.894   7.843 -0.0512  1.3594 -0.1334
   94SAPS  H12Y 9323   6.684   0.855   7.886 -0.3132 -0.0145  0.5223
   94SAPS  C313 9324   6.730   1.070   7.890 -0.8226  0.2621  0.5368
   94SAPS  H13X 9325   6.621   1.093   7.894 -0.9152 -0.0268 -0.2170
   94SAPS  H13Y 9326   6.782   1.140   7.822 -2.3446 -0.2398 -1.1611
   94SAPS  C314 9327   6.772   1.084   8.040 -0.3163 -0.5898  0.1287
   94SAPS  H14X 9328   6.883   1.088   8.048 -0.1812  1.9313 -2.1359
   94SAPS  H14Y 9329   6.729   0.999   8.096 -0.9255 -0.1053  0.3976
   94SAPS  C315 9330   6.721   1.215   8.096  0.4988  0.3325 -0.6568
   94SAPS  H15X 9331   6.617   1.200   8.132  1.0977  1.3920  1.5883
   94SAPS  H15Y 9332   6.728   1.292   8.016  1.8920  0.1547 -0.7200
   94SAPS  C316 9333   6.811   1.278   8.202 -0.6699  0.4268 -0.5210
   94SAPS  H16X 9334   6.902   1.317   8.153  0.7865 -0.2543  1.5371
   94SAPS  H16Y 9335   6.845   1.194   8.268 -0.6318  2.6454  2.3906
   94SAPS  C317 9336   6.759   1.398   8.276 -0.3676  1.3231  0.6335
   94SAPS  H17X 9337   6.678   1.373   8.347 -1.1079  0.4213 -0.5092
   94SAPS  H17Y 9338   6.724   1.462   8.192  1.5287 -0.6400 -1.7205
   94SAPS  C318 9339   6.862   1.465   8.367 -0.0147  0.2283  0.4421
   94SAPS  H18X 9340   6.946   1.503   8.305  0.6855  1.6280  2.1836
   94SAPS  H18Y 9341   6.901   1.399   8.447 -0.8065 -0.6351  0.1120
   94SAPS  H18Z 9342   6.828   1.554   8.424  0.2151 -1.7174  3.7564
   95SAPS     N 9343   3.632   5.216   6.004 -0.5903  0.1863  0.1981
   95SAPS   HN1 9344   3.689   5.228   5.917 -2.1372  0.3556 -0.8038
   95SAPS   HN2 9345   3.542   5.174   5.974  0.0517 -0.5160 -0.7916
   95SAPS   HN3 9346   3.620   5.313   6.040 -0.5651 -0.6791  2.6182
   95SAPS   C12 9347   3.701   5.123   6.096 -0.2035  0.4216  0.1629
   95SAPS  H12A 9348   3.650   5.142   6.190 -0.4451  0.8969 -0.0603
   95SAPS   C13 9349   3.679   4.973   6.063 -0.1742 -0.1539 -0.4336
   95SAPS  O13A 9350   3.633   4.943   5.953  0.3750 -0.2145  0.2462
   95SAPS  O13B 9351   3.713   4.889   6.148  0.3505  0.4681  0.1226
   95SAPS   C11 9352   3.858   5.142   6.110  0.8152  0.9863 -0.2676
   95SAPS  H11A 9353   3.905   5.094   6.021  0.2049  0.6467 -0.4036
   95SAPS  H11B 9354   3.895   5.081   6.195  0.4746 -1.9576 -2.1582
   95SAPS     P 9355   3.952   5.347   6.250 -0.3595  0.1552  0.0808
   95SAPS   O13 9356   4.094   5.330   6.274 -0.4725  0.4444 -0.1185
   95SAPS   O14 9357   3.904   5.486   6.254  0.1139  0.1496 -0.1947
   95SAPS   O12 9358   3.906   5.278   6.122 -0.3465 -0.5623  0.3848
   95SAPS   O11 9359   3.877   5.263   6.358  1.0658 -0.0485 -0.3870
   95SAPS    C1 9360   3.781   5.315   6.450 -0.0500 -0.2938  0.0919
   95SAPS    HA 9361   3.714   5.394   6.411  0.4223 -1.0232 -2.2640
   95SAPS    HB 9362   3.711   5.233   6.475 -1.0842  0.3089 -0.7677
   95SAPS    C2 9363   3.848   5.376   6.577 -0.7990  0.2870 -0.1506
   95SAPS    HS 9364   3.928   5.444   6.541  1.4162 -0.6397  2.8316
   95SAPS   O21 9365   3.924   5.266   6.630  0.1174  0.2642 -0.3756
   95SAPS   C21 9366   4.010   5.295   6.730  0.5473  0.5457  0.1476
   95SAPS   O22 9367   4.040   5.410   6.766 -0.0098 -0.2620  0.3094
   95SAPS   C22 9368   4.052   5.166   6.799 -0.4817  0.0782  0.2125
   95SAPS   H2R 9369   3.962   5.109   6.831 -0.3752 -0.8671 -1.1526
   95SAPS   H2S 9370   4.099   5.096   6.727 -0.4002  1.6657 -1.2756
   95SAPS    C3 9371   3.754   5.447   6.677  0.3403  0.0010 -0.5603
   95SAPS    HX 9372   3.696   5.525   6.623  0.2485  1.2623  1.2848
   95SAPS    HY 9373   3.814   5.497   6.756 -0.1464  2.7992 -1.9014
   95SAPS   O31 9374   3.660   5.357   6.734 -0.6787  0.2907 -0.1088
   95SAPS   C31 9375   3.609   5.382   6.859  0.2113 -0.7594 -0.2042
   95SAPS   O32 9376   3.637   5.482   6.925  0.1177  0.8239  0.0409
   95SAPS   C32 9377   3.541   5.257   6.906 -0.2881 -0.3053  0.1632
   95SAPS   H2X 9378   3.590   5.167   6.863  0.7683  0.0820  0.5336
   95SAPS   H2Y 9379   3.432   5.251   6.885  0.1547 -2.8375 -1.6810
   95SAPS   C23 9380   4.145   5.188   6.924 -0.0980  0.7383  0.5253
   95SAPS   H3R 9381   4.232   5.245   6.886  1.6421 -1.5971  0.8589
   95SAPS   H3S 9382   4.189   5.091   6.956 -1.0367  0.0033 -0.3783
   95SAPS   C24 9383   4.077   5.262   7.047 -0.4016  0.1144 -0.0668
   95SAPS   H4R 9384   4.011   5.343   7.008 -2.6716 -1.6598 -0.0082
   95SAPS   H4S 9385   4.164   5.298   7.107 -1.4081  1.1002  0.8058
   95SAPS   C25 9386   4.009   5.165   7.132  0.1862 -0.0301  0.1119
   95SAPS   H5R 9387   3.900   5.157   7.118  0.1787 -0.5286  0.4008
   95SAPS   C26 9388   4.046   5.101   7.248  0.4990  0.0707 -0.0274
   95SAPS   H6R 9389   3.978   5.026   7.291 -1.2954  1.2937 -0.6808
   95SAPS   C27 9390   4.179   5.123   7.319  0.5670  0.2121  0.3779
   95SAPS   H7R 9391   4.200   5.229   7.344  3.7564  0.0858 -1.4183
   95SAPS   H7S 9392   4.265   5.099   7.252  3.0977 -2.5468  4.3238
   95SAPS   C28 9393   4.180   5.036   7.442  0.2679 -0.1642 -0.3786
   95SAPS   H8R 9394   4.166   4.930   7.413  1.1432  0.3075 -2.6452
   95SAPS   C29 9395   4.183   5.072   7.575 -0.9855 -0.2706 -0.0259
   95SAPS   H9R 9396   4.191   4.986   7.644  1.7360 -0.5071 -0.5498
   95SAPS  C210 9397   4.180   5.209   7.636 -0.3696 -0.0315  0.4030
   95SAPS  H10R 9398   4.120   5.280   7.575 -2.5406 -0.7131  1.6875
   95SAPS  H10S 9399   4.288   5.233   7.648  0.2335 -2.1520 -0.5084
   95SAPS  C211 9400   4.115   5.196   7.769 -0.5641  0.5188 -0.0542
   95SAPS  H11R 9401   4.034   5.123   7.776  0.1768 -0.2137  0.9666
   95SAPS  C212 9402   4.171   5.252   7.877 -0.2018 -0.6671 -0.0256
   95SAPS  H12R 9403   4.131   5.217   7.973  1.7710  0.0307  1.0984
   95SAPS  C213 9404   4.293   5.340   7.906 -0.0300 -0.5749 -0.3679
   95SAPS  H13R 9405   4.366   5.340   7.822  0.0968  0.8815 -0.2651
   95SAPS  H13S 9406   4.341   5.290   7.993 -3.3417 -1.2524  1.1536
   95SAPS  C214 9407   4.261   5.483   7.939  0.3617  0.3852 -0.4678
   95SAPS  H14R 9408   4.239   5.543   7.850  1.9087 -0.5425 -1.5071
   95SAPS  C215 9409   4.254   5.541   8.067  0.5135  0.2790  0.0645
   95SAPS  H15R 9410   4.225   5.647   8.072  0.0878  0.1304  0.8525
   95SAPS  C216 9411   4.288   5.464   8.200  0.6831  0.1107  0.0766
   95SAPS  H16R 9412   4.381   5.404   8.191 -0.9800 -2.6475  0.5381
   95SAPS  H16S 9413   4.217   5.382   8.225  0.4256 -0.1904 -1.5806
   95SAPS  C217 9414   4.284   5.548   8.334 -0.1869  0.8238  0.4707
   95SAPS  H17R 9415   4.276   5.493   8.430 -0.7872  4.5608  2.6577
   95SAPS  H17S 9416   4.192   5.609   8.328 -0.8036  0.2406  3.4837
   95SAPS  C218 9417   4.389   5.653   8.339  0.0621 -0.2164 -0.8946
   95SAPS  H18R 9418   4.372   5.720   8.252 -0.5809 -0.8215 -1.2418
   95SAPS  H18S 9419   4.480   5.594   8.316 -0.2874 -2.1266  2.2893
   95SAPS  C219 9420   4.407   5.730   8.475  0.0282 -0.3556 -0.1102
   95SAPS  H19R 9421   4.405   5.647   8.548  1.5295 -0.4924 -0.2096
   95SAPS  H19S 9422   4.330   5.809   8.491  0.6171  0.4909 -1.3249
   95SAPS  C220 9423   4.544   5.802   8.482 -0.5284 -0.0480 -0.2464
   95SAPS  H20R 9424   4.567   5.847   8.581 -1.0593 -1.1413  0.3750
   95SAPS  H20S 9425   4.544   5.883   8.406  0.9208  1.9632  1.8403
   95SAPS  H20T 9426   4.622   5.732   8.447  0.3699  1.0735 -0.5306
   95SAPS   C33 9427   3.553   5.232   7.052  0.5692  0.6862 -1.2493
   95SAPS   H3X 9428   3.517   5.320   7.109 -2.3940 -2.3923  1.8610
   95SAPS   H3Y 9429   3.661   5.213   7.071  0.3509 -0.8741 -1.5218
   95SAPS   C34 9430   3.461   5.113   7.107  0.2778  0.4979  0.2893
   95SAPS   H4X 9431   3.516   5.018   7.087  2.3696  1.5030  1.1300
   95SAPS   H4Y 9432   3.368   5.114   7.046  0.5190  0.7258 -0.0830
   95SAPS   C35 9433   3.435   5.134   7.252 -0.4340  0.0744 -0.0439
   95SAPS   H5X 9434   3.359   5.057   7.281 -1.9489  1.8533  0.8176
   95SAPS   H5Y 9435   3.375   5.227   7.262 -0.4379 -0.0199  0.8658
   95SAPS   C36 9436   3.573   5.156   7.338  0.4625 -0.7201  0.2380
   95SAPS   H6X 9437   3.615   5.258   7.326 -0.7336 -0.1535  0.7591
   95SAPS   H6Y 9438   3.650   5.079   7.316  0.8464 -0.2643 -0.0150
   95SAPS   C37 9439   3.534   5.155   7.484 -0.7265  0.1615 -0.9718
   95SAPS   H7X 9440   3.477   5.063   7.508 -1.7656  1.0106 -0.1496
   95SAPS   H7Y 9441   3.469   5.241   7.510 -0.5950  0.8904 -2.9524
   95SAPS   C38 9442   3.654   5.154   7.570  0.5667 -0.2994 -0.4804
   95SAPS   H8X 9443   3.720   5.241   7.549  1.2815 -0.5975  0.5019
   95SAPS   H8Y 9444   3.708   5.057   7.563  0.5429 -0.4982  1.7691
   95SAPS   C39 9445   3.626   5.155   7.719 -0.4085 -0.1990 -0.4801
   95SAPS   H9X 9446   3.566   5.063   7.735 -2.6324  1.3106  0.0002
   95SAPS   H9Y 9447   3.563   5.241   7.749  0.7247  0.0696  1.2079
   95SAPS  C310 9448   3.761   5.180   7.792  0.1684 -0.0264 -0.2443
   95SAPS  H10X 9449   3.808   5.277   7.765 -1.2163  0.5688 -0.5287
   95SAPS  H10Y 9450   3.837   5.104   7.764 -0.8196 -0.8915 -0.5953
   95SAPS  C311 9451   3.734   5.176   7.939 -0.0839  0.1121 -0.2483
   95SAPS  H11X 9452   3.755   5.070   7.963  1.2131  0.5656  0.6846
   95SAPS  H11Y 9453   3.627   5.199   7.958  0.2706  0.9751  0.7438
   95SAPS  C312 9454   3.815   5.285   8.017  0.4406 -0.6721 -0.1329
   95SAPS  H12X 9455   3.799   5.380   7.961 -0.4107 -0.5722  0.2735
   95SAPS  H12Y 9456   3.921   5.254   8.010  0.5210 -0.9261  1.8779
   95SAPS  C313 9457   3.785   5.302   8.168  0.3657 -0.3977  0.1398
   95SAPS  H13X 9458   3.780   5.200   8.211  0.9938 -0.1732  0.7547
   95SAPS  H13Y 9459   3.687   5.353   8.182 -0.5179 -0.8151 -3.7150
   95SAPS  C314 9460   3.893   5.388   8.235 -1.1784 -1.1093 -0.6288
   95SAPS  H14X 9461   3.911   5.493   8.201 -1.1230 -1.1140 -0.6140
   95SAPS  H14Y 9462   3.987   5.331   8.223 -0.0667 -0.4274  3.8720
   95SAPS  C315 9463   3.860   5.387   8.386  0.6199  0.3338 -0.7454
   95SAPS  H15X 9464   3.848   5.283   8.421 -0.9688  0.2005 -1.6567
   95SAPS  H15Y 9465   3.763   5.433   8.414  0.9382  1.0514 -0.8061
   95SAPS  C316 9466   3.981   5.448   8.469 -0.3817 -0.4244  0.2980
   95SAPS  H16X 9467   3.983   5.552   8.430 -0.8892 -0.2587  0.6978
   95SAPS  H16Y 9468   4.072   5.392   8.439 -0.7386  0.5605 -2.8280
   95SAPS  C317 9469   3.964   5.448   8.623  0.0942 -0.1442 -0.4268
   95SAPS  H17X 9470   4.071   5.448   8.653  0.0222 -0.7055 -0.1701
   95SAPS  H17Y 9471   3.918   5.352   8.656 -2.1190  1.1769  0.4663
   95SAPS  C318 9472   3.888   5.574   8.670 -0.1776  0.5642  0.9745
   95SAPS  H18X 9473   3.791   5.583   8.616 -0.2368  0.4495  1.0642
   95SAPS  H18Y 9474   3.948   5.666   8.653  2.3255 -0.8401  1.9048
   95SAPS  H18Z 9475   3.873   5.570   8.780  0.5233  0.1000  1.0567
   96SAPS     N 9476   5.167   0.209   6.479 -0.1140  0.7027  0.1014
   96SAPS   HN1 9477   5.234   0.130   6.491 -0.5697  0.7786  3.8455
   96SAPS   HN2 9478   5.182   0.279   6.555  2.6412  2.5619 -2.0856
   96SAPS   HN3 9479   5.071   0.176   6.504  0.3751  0.0439  1.1420
   96SAPS   C12 9480   5.184   0.247   6.341 -0.1482  0.5708  0.4454
   96SAPS  H12A 9481   5.125   0.335   6.318 -0.9392 -0.0784 -0.0456
   96SAPS   C13 9482   5.335   0.283   6.298 -0.3218  0.4014  0.0377
   96SAPS  O13A 9483   5.433   0.270   6.373  0.4253  0.2120 -0.1642
   96SAPS  O13B 9484   5.359   0.330   6.183 -0.5806  0.0439 -0.0790
   96SAPS   C11 9485   5.136   0.128   6.246 -0.3669 -0.0112 -0.2037
   96SAPS  H11A 9486   5.217   0.052   6.260  0.7818  0.9332 -1.6569
   96SAPS  H11B 9487   5.121   0.167   6.144 -2.3061  2.2024  0.8863
   96SAPS     P 9488   4.936  -0.052   6.220  0.0677 -0.4046 -0.0644
   96SAPS   O13 9489   4.802  -0.024   6.166 -0.0513 -0.3007  0.3332
   96SAPS   O14 9490   5.023  -0.127   6.130 -0.2391  0.1917 -0.0452
   96SAPS   O12 9491   5.008   0.080   6.285 -0.2662  0.0170  0.5271
   96SAPS   O11 9492   4.916  -0.128   6.358 -0.3448 -0.6086  0.2936
   96SAPS    C1 9493   5.028  -0.189   6.420  0.1102 -0.2868  0.3231
   96SAPS    HA 9494   5.068  -0.261   6.346 -2.3350 -0.8487 -0.4951
   96SAPS    HB 9495   5.107  -0.115   6.445  2.6248 -2.5921 -0.5988
   96SAPS    C2 9496   4.997  -0.285   6.536 -0.5599 -1.1109  0.5758
   96SAPS    HS 9497   4.952  -0.378   6.496 -1.3863  0.4577 -2.3348
   96SAPS   O21 9498   4.930  -0.213   6.637 -0.0197  0.1926 -0.0457
   96SAPS   C21 9499   4.862  -0.288   6.713 -0.0650  0.3800 -0.4391
   96SAPS   O22 9500   4.830  -0.404   6.692 -0.7157 -0.2633 -0.8396
   96SAPS   C22 9501   4.789  -0.209   6.821 -0.0003 -0.7553 -0.6538
   96SAPS   H2R 9502   4.840  -0.214   6.920  1.2895 -0.9741 -1.3217
   96SAPS   H2S 9503   4.781  -0.104   6.786  0.3434 -0.5388 -0.1034
   96SAPS    C3 9504   5.134  -0.331   6.606 -0.2903 -0.2251  0.2922
   96SAPS    HX 9505   5.195  -0.381   6.528 -1.7608  0.4792 -1.3285
   96SAPS    HY 9506   5.114  -0.416   6.675 -1.2972  0.7505  1.2096
   96SAPS   O31 9507   5.220  -0.226   6.662  0.0535  0.0663 -0.0785
   96SAPS   C31 9508   5.207  -0.196   6.791 -0.6915  0.5543  0.3738
   96SAPS   O32 9509   5.115  -0.230   6.865  0.4242 -0.3732 -0.2948
   96SAPS   C32 9510   5.326  -0.099   6.833  0.1617  0.0606  0.0847
   96SAPS   H2X 9511   5.297  -0.039   6.921  0.0286 -0.0094  0.0875
   96SAPS   H2Y 9512   5.344  -0.033   6.746  2.5455 -0.7197 -0.0573
   96SAPS   C23 9513   4.643  -0.244   6.847 -0.2748 -0.1809 -0.8966
   96SAPS   H3R 9514   4.641  -0.355   6.850 -0.4414 -0.2077 -1.9363
   96SAPS   H3S 9515   4.569  -0.223   6.766 -0.6334 -1.0508 -0.8014
   96SAPS   C24 9516   4.587  -0.176   6.972  0.3079 -0.2231 -0.5627
   96SAPS   H4R 9517   4.587  -0.065   6.964  1.4562 -0.1784 -0.1326
   96SAPS   H4S 9518   4.662  -0.189   7.054 -2.8809  0.6323  2.6040
   96SAPS   C25 9519   4.448  -0.228   7.007  0.7371  1.0560  0.0734
   96SAPS   H5R 9520   4.395  -0.271   6.921 -0.5656  0.7448  1.0071
   96SAPS   C26 9521   4.397  -0.234   7.134  0.0321  0.6074  1.1381
   96SAPS   H6R 9522   4.293  -0.267   7.145  0.0641  0.2343  0.3132
   96SAPS   C27 9523   4.457  -0.184   7.260 -0.1983 -0.3108 -0.0985
   96SAPS   H7R 9524   4.377  -0.147   7.327 -1.3332 -1.9658 -0.4986
   96SAPS   H7S 9525   4.517  -0.097   7.225 -1.6757  1.0136  0.6117
   96SAPS   C28 9526   4.544  -0.287   7.328 -0.0272 -0.0212 -0.5392
   96SAPS   H8R 9527   4.599  -0.348   7.255  1.0023 -0.3838  0.5141
   96SAPS   C29 9528   4.557  -0.305   7.461 -0.3899 -0.3717 -0.3331
   96SAPS   H9R 9529   4.626  -0.385   7.494 -1.0240 -1.7316 -2.2004
   96SAPS  C210 9530   4.478  -0.222   7.569 -0.2284 -0.0665  0.1861
   96SAPS  H10R 9531   4.423  -0.291   7.636 -0.0846  1.1524  1.5752
   96SAPS  H10S 9532   4.401  -0.161   7.517  0.3138 -0.3902 -1.0160
   96SAPS  C211 9533   4.564  -0.125   7.649  0.0655  0.1093  0.0428
   96SAPS  H11R 9534   4.624  -0.063   7.581  0.0108 -1.2002 -1.2154
   96SAPS  C212 9535   4.556  -0.110   7.783 -0.0788  0.2807  0.2282
   96SAPS  H12R 9536   4.624  -0.032   7.821  0.9778 -0.0329 -0.9756
   96SAPS  C213 9537   4.484  -0.181   7.896  0.3796 -0.0899 -1.0442
   96SAPS  H13R 9538   4.501  -0.290   7.903 -0.2981 -0.2196 -1.3370
   96SAPS  H13S 9539   4.375  -0.170   7.875  0.0964 -1.7722 -0.5109
   96SAPS  C214 9540   4.501  -0.120   8.036 -0.8603  0.4657 -0.1603
   96SAPS  H14R 9541   4.494  -0.011   8.051 -2.6072  0.6593 -2.2097
   96SAPS  C215 9542   4.529  -0.188   8.153  0.6990  0.3690  0.3981
   96SAPS  H15R 9543   4.550  -0.133   8.246  2.9624 -1.7784  1.2108
   96SAPS  C216 9544   4.551  -0.339   8.161 -0.3579  0.2499 -0.6510
   96SAPS  H16R 9545   4.496  -0.398   8.085  2.0823 -1.7701 -0.9040
   96SAPS  H16S 9546   4.509  -0.388   8.252 -0.4443 -2.2512 -1.9943
   96SAPS  C217 9547   4.700  -0.400   8.142 -0.3191  0.7866 -0.0158
   96SAPS  H17R 9548   4.756  -0.328   8.078  0.3139 -0.8064 -1.2827
   96SAPS  H17S 9549   4.691  -0.493   8.082 -1.1796  0.5084  0.5479
   96SAPS  C218 9550   4.771  -0.424   8.277  0.1722  0.3903  0.2957
   96SAPS  H18R 9551   4.793  -0.329   8.331 -0.2880  1.2377 -0.9811
   96SAPS  H18S 9552   4.870  -0.466   8.252 -0.5878 -0.2106 -1.8268
   96SAPS  C219 9553   4.698  -0.514   8.373  0.1823 -0.3514  0.3306
   96SAPS  H19R 9554   4.628  -0.568   8.306 -1.0849  0.1640  1.2238
   96SAPS  H19S 9555   4.635  -0.450   8.438  0.1596 -0.9167  0.8622
   96SAPS  C220 9556   4.777  -0.619   8.454  0.1756  0.3698  0.5475
   96SAPS  H20R 9557   4.839  -0.567   8.530 -1.5088  4.0561 -0.4492
   96SAPS  H20S 9558   4.841  -0.686   8.392  0.3715 -0.7197  1.9022
   96SAPS  H20T 9559   4.710  -0.695   8.500  0.6109  0.2213  0.9317
   96SAPS   C33 9560   5.458  -0.170   6.872 -0.6982 -0.3091 -0.2518
   96SAPS   H3X 9561   5.545  -0.103   6.886  0.0529 -1.4197  0.4482
   96SAPS   H3Y 9562   5.475  -0.245   6.792 -2.0212 -1.1022  0.1830
   96SAPS   C34 9563   5.474  -0.245   7.006  0.5847 -0.2812  0.0134
   96SAPS   H4X 9564   5.580  -0.277   7.018  0.5410 -0.4432 -0.0209
   96SAPS   H4Y 9565   5.423  -0.342   6.985  0.5240  0.2188 -2.3470
   96SAPS   C35 9566   5.421  -0.164   7.122  0.8087  0.0680 -0.4996
   96SAPS   H5X 9567   5.311  -0.155   7.120  0.8253  0.2095 -0.9781
   96SAPS   H5Y 9568   5.470  -0.065   7.108 -1.9288  1.2111 -2.3506
   96SAPS   C36 9569   5.455  -0.214   7.266  0.0985 -0.4389 -0.1074
   96SAPS   H6X 9570   5.562  -0.242   7.277  0.7487  2.2272  0.8122
   96SAPS   H6Y 9571   5.405  -0.308   7.297 -0.5863 -0.6708 -1.9107
   96SAPS   C37 9572   5.423  -0.101   7.370  0.1047 -0.5242  0.1985
   96SAPS   H7X 9573   5.314  -0.088   7.350  0.1325 -2.0807 -1.0278
   96SAPS   H7Y 9574   5.475  -0.008   7.338  0.1790 -1.1945 -1.6762
   96SAPS   C38 9575   5.470  -0.160   7.504  0.1150 -0.2155  0.2197
   96SAPS   H8X 9576   5.559  -0.225   7.490  0.1015  0.1108 -1.4678
   96SAPS   H8Y 9577   5.401  -0.235   7.547  1.8754 -1.2899  1.2427
   96SAPS   C39 9578   5.485  -0.047   7.604 -0.3894  0.3574 -0.5970
   96SAPS   H9X 9579   5.398   0.022   7.610  0.9408  1.9379  1.4918
   96SAPS   H9Y 9580   5.562   0.025   7.570 -0.9859  1.5658  0.5329
   96SAPS  C310 9581   5.517  -0.094   7.743  0.6387  0.2486 -0.2279
   96SAPS  H10X 9582   5.616  -0.145   7.740  0.4405 -0.1938  0.7505
   96SAPS  H10Y 9583   5.441  -0.169   7.773  1.3173 -1.0678 -1.6987
   96SAPS  C311 9584   5.516   0.029   7.841  0.3217 -0.3513  0.1857
   96SAPS  H11X 9585   5.417   0.077   7.830  0.7398  0.0747 -1.9094
   96SAPS  H11Y 9586   5.593   0.100   7.803  1.7101 -1.5938  0.5952
   96SAPS  C312 9587   5.550  -0.015   7.982  0.4649  0.5783 -0.9839
   96SAPS  H12X 9588   5.661  -0.027   7.987  0.5804  2.3081  1.8059
   96SAPS  H12Y 9589   5.503  -0.115   7.982  0.1894  0.7042  0.3970
   96SAPS  C313 9590   5.503   0.078   8.095 -0.1927 -0.3789 -0.3506
   96SAPS  H13X 9591   5.398   0.098   8.067 -0.1733 -2.2291 -1.8718
   96SAPS  H13Y 9592   5.569   0.166   8.080  0.3062 -1.0269 -2.2439
   96SAPS  C314 9593   5.507   0.020   8.237  0.5947  0.3285 -0.0277
   96SAPS  H14X 9594   5.448  -0.073   8.224  1.3213 -0.1341 -0.0267
   96SAPS  H14Y 9595   5.457   0.081   8.315  1.1401  0.8969 -0.1179
   96SAPS  C315 9596   5.652  -0.016   8.280 -0.7252 -1.0621  0.0771
   96SAPS  H15X 9597   5.682   0.067   8.347 -0.2304 -0.6864 -0.6050
   96SAPS  H15Y 9598   5.715  -0.005   8.190  1.0914  0.0739  1.4650
   96SAPS  C316 9599   5.679  -0.153   8.346  0.1334 -1.5335  0.0624
   96SAPS  H16X 9600   5.788  -0.174   8.353  0.4053 -0.2745 -0.4096
   96SAPS  H16Y 9601   5.627  -0.238   8.297 -1.9608 -2.6706  4.0516
   96SAPS  C317 9602   5.632  -0.164   8.497 -0.7907  0.3496 -0.6684
   96SAPS  H17X 9603   5.522  -0.148   8.503 -0.6982  0.6763  0.3161
   96SAPS  H17Y 9604   5.694  -0.097   8.561 -1.1059 -0.7130  0.7671
   96SAPS  C318 9605   5.650  -0.306   8.548  0.3024  0.0710  0.5916
   96SAPS  H18X 9606   5.601  -0.387   8.490 -2.7892  0.8033  2.0572
   96SAPS  H18Y 9607   5.604  -0.314   8.649  0.3142  0.5350  0.6327
   96SAPS  H18Z 9608   5.757  -0.331   8.559  0.0894 -1.2525 -0.2726
   97SAPS     N 9609   5.410   4.545   6.416 -0.3868 -0.7201 -0.2196
   97SAPS   HN1 9610   5.356   4.615   6.361  1.0290  0.0533 -0.6342
   97SAPS   HN2 9611   5.380   4.452   6.381  2.1838 -1.7350  0.1547
   97SAPS   HN3 9612   5.394   4.552   6.518  0.9222 -0.6720 -0.0060
   97SAPS   C12 9613   5.551   4.539   6.371 -0.4955 -0.6085 -0.4151
   97SAPS  H12A 9614   5.605   4.459   6.419  1.6857  1.7743  1.2388
   97SAPS   C13 9615   5.561   4.534   6.225  0.5019 -0.0459  0.4322
   97SAPS  O13A 9616   5.452   4.536   6.156  0.1858 -0.1851  0.3371
   97SAPS  O13B 9617   5.669   4.493   6.162 -0.6893  0.0936 -0.2354
   97SAPS   C11 9618   5.620   4.674   6.415 -0.0214 -0.7160 -0.1583
   97SAPS  H11A 9619   5.571   4.762   6.368 -0.3738 -0.6084  0.4007
   97SAPS  H11B 9620   5.720   4.674   6.367  0.7576  1.6899  1.4106
   97SAPS     P 9621   5.749   4.717   6.636 -0.3962 -0.5468 -0.4162
   97SAPS   O13 9622   5.834   4.797   6.549  0.2437 -0.9281  0.0250
   97SAPS   O14 9623   5.732   4.753   6.779 -0.6706  0.2014 -0.1729
   97SAPS   O12 9624   5.615   4.689   6.561  0.0828 -0.0010 -0.6126
   97SAPS   O11 9625   5.796   4.567   6.640 -0.3655 -0.3932 -0.2046
   97SAPS    C1 9626   5.734   4.463   6.726 -0.0695 -0.1021  0.1808
   97SAPS    HA 9627   5.624   4.474   6.741  0.1232  0.1338  1.4690
   97SAPS    HB 9628   5.745   4.364   6.677  2.0062 -0.6119  1.6115
   97SAPS    C2 9629   5.807   4.454   6.861  0.4398  0.6600 -0.5453
   97SAPS    HS 9630   5.772   4.541   6.921  0.2130  0.0072  0.2719
   97SAPS   O21 9631   5.949   4.464   6.838 -0.1380  0.2042  0.3422
   97SAPS   C21 9632   6.024   4.518   6.933  0.4369  0.1120 -1.0825
   97SAPS   O22 9633   5.979   4.566   7.033  0.1198 -0.2574 -0.5392
   97SAPS   C22 9634   6.172   4.492   6.907  0.2823  0.1432  0.0005
   97SAPS   H2R 9635   6.197   4.562   6.825  0.4979  2.7520  2.2248
   97SAPS   H2S 9636   6.236   4.524   6.992  0.8252 -1.6642  0.2848
   97SAPS    C3 9637   5.766   4.331   6.944  0.5288 -0.0085  0.7145
   97SAPS    HX 9638   5.801   4.237   6.896  0.9766 -0.2769  1.5525
   97SAPS    HY 9639   5.657   4.315   6.934  0.7827 -1.3918  0.0869
   97SAPS   O31 9640   5.819   4.340   7.074 -0.0218 -0.0916 -0.7686
   97SAPS   C31 9641   5.748   4.412   7.160  0.1720 -0.5558  0.2747
   97SAPS   O32 9642   5.647   4.474   7.133  0.5014 -0.1362  1.0597
   97SAPS   C32 9643   5.820   4.425   7.294 -0.1722  0.0348  0.2277
   97SAPS   H2X 9644   5.885   4.515   7.289 -0.8031  0.4822 -0.0386
   97SAPS   H2Y 9645   5.875   4.330   7.311  0.8482  0.3117 -1.4349
   97SAPS   C23 9646   6.194   4.348   6.869 -0.4250  0.0306 -0.4548
   97SAPS   H3R 9647   6.299   4.334   6.834 -0.8667 -1.7977 -1.1086
   97SAPS   H3S 9648   6.129   4.313   6.786  1.3541  1.3953 -2.4784
   97SAPS   C24 9649   6.181   4.240   6.987  0.9548  0.7696 -0.2447
   97SAPS   H4R 9650   6.178   4.137   6.946  1.4000  0.5395  0.2958
   97SAPS   H4S 9651   6.079   4.257   7.028  0.5649  0.3536 -1.0482
   97SAPS   C25 9652   6.290   4.251   7.088 -0.2732 -0.1384 -0.1255
   97SAPS   H5R 9653   6.389   4.211   7.060 -0.3134  0.1757 -0.7098
   97SAPS   C26 9654   6.294   4.297   7.214 -0.1346 -0.2804  0.3377
   97SAPS   H6R 9655   6.386   4.280   7.272  0.9711 -2.0654 -1.8758
   97SAPS   C27 9656   6.182   4.364   7.284 -0.6761  0.7242 -0.1220
   97SAPS   H7R 9657   6.182   4.303   7.377 -0.3205  2.2774  0.9142
   97SAPS   H7S 9658   6.083   4.354   7.235 -1.1703  3.0610  0.3444
   97SAPS   C28 9659   6.208   4.506   7.320 -1.4844  0.0514 -0.3712
   97SAPS   H8R 9660   6.187   4.579   7.241 -1.4366 -0.0361 -0.4635
   97SAPS   C29 9661   6.241   4.565   7.442 -0.4686 -0.2305  0.8747
   97SAPS   H9R 9662   6.262   4.672   7.436  1.4911 -0.6305  0.2362
   97SAPS  C210 9663   6.255   4.490   7.575 -0.6301  0.0130 -0.5331
   97SAPS  H10R 9664   6.252   4.381   7.558 -0.5803 -0.1094  0.1963
   97SAPS  H10S 9665   6.166   4.523   7.633 -1.0496  0.0420 -1.1888
   97SAPS  C211 9666   6.378   4.517   7.661 -0.1345 -0.2706  0.1882
   97SAPS  H11R 9667   6.432   4.609   7.637 -1.5807  0.9096  1.3957
   97SAPS  C212 9668   6.430   4.429   7.752  0.3763 -0.4463  0.4156
   97SAPS  H12R 9669   6.526   4.455   7.800  0.0158  2.6109 -0.3998
   97SAPS  C213 9670   6.372   4.294   7.788 -0.3942  0.0015  0.2712
   97SAPS  H13R 9671   6.269   4.276   7.751 -0.8672  2.5810  0.2121
   97SAPS  H13S 9672   6.356   4.284   7.897 -4.0631 -2.0855 -0.3705
   97SAPS  C214 9673   6.458   4.176   7.740 -0.6501  0.0616  0.1088
   97SAPS  H14R 9674   6.425   4.145   7.640 -2.4796  0.1139  0.6789
   97SAPS  C215 9675   6.556   4.110   7.805  0.1880  0.3504 -0.7829
   97SAPS  H15R 9676   6.616   4.034   7.752 -3.1217 -2.0337 -1.3298
   97SAPS  C216 9677   6.603   4.152   7.941 -0.7909 -0.2754 -0.6822
   97SAPS  H16R 9678   6.566   4.081   8.019  0.6630  0.8602  1.0659
   97SAPS  H16S 9679   6.580   4.258   7.967  2.2205  0.2603  0.0033
   97SAPS  C217 9680   6.760   4.157   7.944  0.7509 -1.0231  1.3058
   97SAPS  H17R 9681   6.797   4.214   7.856 -3.1824  0.4978  0.5543
   97SAPS  H17S 9682   6.791   4.051   7.931  0.3818 -0.9705 -0.0751
   97SAPS  C218 9683   6.805   4.214   8.080  0.4960  0.0609 -0.9319
   97SAPS  H18R 9684   6.777   4.145   8.161  1.4490  0.9080  0.1439
   97SAPS  H18S 9685   6.765   4.314   8.109  0.0674 -0.1000 -0.9814
   97SAPS  C219 9686   6.957   4.221   8.077 -0.3175 -0.5581  0.5616
   97SAPS  H19R 9687   6.983   4.305   8.008  0.9990 -1.8394 -0.5349
   97SAPS  H19S 9688   7.004   4.134   8.027 -0.0503  0.6355 -1.3092
   97SAPS  C220 9689   7.028   4.235   8.212 -0.2182  0.4573  0.3258
   97SAPS  H20R 9690   6.988   4.167   8.291 -0.7838 -0.9623 -1.1578
   97SAPS  H20S 9691   7.030   4.343   8.238  0.7669  0.5777 -0.2102
   97SAPS  H20T 9692   7.137   4.219   8.196 -0.7789 -1.0204 -2.1426
   97SAPS   C33 9693   5.722   4.462   7.410 -0.0432 -0.4010 -0.5314
   97SAPS   H3X 9694   5.641   4.385   7.410  0.8994 -1.4086 -0.6407
   97SAPS   H3Y 9695   5.684   4.562   7.381  0.7771  0.2155  0.4647
   97SAPS   C34 9696   5.801   4.462   7.539  0.3783 -0.0100  0.3526
   97SAPS   H4X 9697   5.894   4.523   7.533 -2.0083  3.7854 -0.1452
   97SAPS   H4Y 9698   5.840   4.361   7.566 -0.5195 -0.5044 -0.2094
   97SAPS   C35 9699   5.725   4.510   7.664 -0.9340 -0.3498  0.0408
   97SAPS   H5X 9700   5.641   4.444   7.696 -1.4621 -0.0690 -0.7529
   97SAPS   H5Y 9701   5.667   4.598   7.627 -1.1674 -0.5741 -0.1211
   97SAPS   C36 9702   5.809   4.551   7.792  0.2971  0.5316  0.4020
   97SAPS   H6X 9703   5.736   4.578   7.872 -2.5996 -0.5148 -1.7852
   97SAPS   H6Y 9704   5.866   4.641   7.763  1.7046 -0.4422  0.1041
   97SAPS   C37 9705   5.896   4.438   7.846 -0.0393  0.1894  0.3980
   97SAPS   H7X 9706   5.957   4.389   7.768 -0.6403  0.4643 -0.2530
   97SAPS   H7Y 9707   5.823   4.360   7.878 -1.4280  0.1416 -2.6834
   97SAPS   C38 9708   5.985   4.466   7.972  0.6832  0.5918 -0.3211
   97SAPS   H8X 9709   6.017   4.367   8.011  2.4780  1.3594  0.1957
   97SAPS   H8Y 9710   5.924   4.514   8.052 -1.5275 -0.1773 -1.4867
   97SAPS   C39 9711   6.103   4.559   7.951 -0.9296  0.2098  0.2895
   97SAPS   H9X 9712   6.075   4.655   7.902  0.9377  0.6329  0.0094
   97SAPS   H9Y 9713   6.163   4.515   7.869 -2.2435 -2.1788  0.5795
   97SAPS  C310 9714   6.181   4.605   8.080 -0.3116  0.1539 -1.0404
   97SAPS  H10X 9715   6.127   4.640   8.171  1.7114  0.2307  0.1479
   97SAPS  H10Y 9716   6.252   4.684   8.048  0.6947 -0.7091 -0.9287
   97SAPS  C311 9717   6.261   4.487   8.121  0.1513  0.8496 -0.1289
   97SAPS  H11X 9718   6.331   4.487   8.035  0.2531  0.6095 -0.0446
   97SAPS  H11Y 9719   6.202   4.393   8.126  2.1448 -0.3467  1.1615
   97SAPS  C312 9720   6.336   4.502   8.257  1.0675 -0.2941 -0.4383
   97SAPS  H12X 9721   6.263   4.507   8.341 -2.1147  0.4325 -3.1192
   97SAPS  H12Y 9722   6.384   4.602   8.262 -0.4529  0.4902 -0.9695
   97SAPS  C313 9723   6.424   4.375   8.272 -0.1822  0.2815 -0.2606
   97SAPS  H13X 9724   6.496   4.398   8.190 -1.2154  2.5889 -0.5675
   97SAPS  H13Y 9725   6.371   4.279   8.257 -2.1423  0.8841  2.5273
   97SAPS  C314 9726   6.482   4.376   8.408 -0.1344  0.2619  0.2954
   97SAPS  H14X 9727   6.401   4.362   8.483 -1.0458 -2.8610 -1.1943
   97SAPS  H14Y 9728   6.522   4.473   8.446  0.4405 -0.1194  0.6730
   97SAPS  C315 9729   6.589   4.268   8.406  0.7026  0.1061  0.0911
   97SAPS  H15X 9730   6.664   4.299   8.329  0.2304  1.0080 -0.0047
   97SAPS  H15Y 9731   6.542   4.170   8.382  0.9847 -0.4010  1.5384
   97SAPS  C316 9732   6.659   4.273   8.543  0.2039 -0.3409 -0.1502
   97SAPS  H16X 9733   6.587   4.250   8.624  1.8124  1.4952  1.8383
   97SAPS  H16Y 9734   6.707   4.370   8.568  1.2872 -1.1434  0.9164
   97SAPS  C317 9735   6.764   4.160   8.542 -0.3843 -0.6416  0.1785
   97SAPS  H17X 9736   6.838   4.202   8.470  0.7539  1.2545  2.4104
   97SAPS  H17Y 9737   6.712   4.067   8.510 -2.7756  1.5909 -2.6860
   97SAPS  C318 9738   6.828   4.137   8.675  0.3139 -0.4745 -0.2043
   97SAPS  H18X 9739   6.765   4.077   8.744 -1.3837 -0.0364 -1.3552
   97SAPS  H18Y 9740   6.843   4.232   8.730 -0.6262 -0.2967 -0.2391
   97SAPS  H18Z 9741   6.930   4.095   8.662  1.6318  2.4623  0.2667
   98SAPS     N 9742   3.432   4.756   5.894 -0.3180  0.2258 -0.4142
   98SAPS   HN1 9743   3.521   4.717   5.858 -0.2162 -0.4888  0.5735
   98SAPS   HN2 9744   3.444   4.810   5.983 -1.5517  0.7842 -0.5711
   98SAPS   HN3 9745   3.372   4.679   5.931  2.3454 -0.6290  2.3236
   98SAPS   C12 9746   3.355   4.848   5.805 -0.1154 -0.4353  0.0803
   98SAPS  H12A 9747   3.416   4.934   5.782  1.2913 -0.9582  1.7617
   98SAPS   C13 9748   3.323   4.792   5.662 -0.5171  0.1459  0.9640
   98SAPS  O13A 9749   3.347   4.672   5.629  0.1071 -0.0318  0.6427
   98SAPS  O13B 9750   3.277   4.877   5.580 -0.5134 -0.3058  0.7824
   98SAPS   C11 9751   3.223   4.906   5.875  0.1946 -0.0089 -0.1142
   98SAPS  H11A 9752   3.140   4.834   5.860 -0.4285 -0.1619  3.5010
   98SAPS  H11B 9753   3.195   4.999   5.823 -1.5429 -0.6753 -0.3935
   98SAPS     P 9754   3.271   5.072   6.072 -0.4754  0.2175 -0.3326
   98SAPS   O13 9755   3.372   5.139   5.993 -0.4558 -0.3317  0.0974
   98SAPS   O14 9756   3.139   5.135   6.092  0.2001  0.5433  0.2838
   98SAPS   O12 9757   3.242   4.928   6.014 -0.6959  0.3939  0.3164
   98SAPS   O11 9758   3.337   5.048   6.215  0.7156  0.4818 -0.2889
   98SAPS    C1 9759   3.343   4.918   6.268 -0.6478 -0.1255  0.6248
   98SAPS    HA 9760   3.240   4.875   6.268 -0.7172  0.0296 -0.7970
   98SAPS    HB 9761   3.424   4.864   6.216 -0.4116 -0.8462  1.7228
   98SAPS    C2 9762   3.386   4.925   6.423  0.4729 -0.5675  0.7143
   98SAPS    HS 9763   3.342   4.838   6.478 -0.2192 -0.9278 -0.3992
   98SAPS   O21 9764   3.337   5.042   6.488 -0.7456  0.2621  0.0069
   98SAPS   C21 9765   3.204   5.033   6.517 -0.4835  0.2490 -0.5855
   98SAPS   O22 9766   3.137   4.944   6.474 -0.0431 -0.7754 -0.3175
   98SAPS   C22 9767   3.154   5.141   6.609 -0.3485 -0.2106  0.0219
   98SAPS   H2R 9768   3.195   5.114   6.709  1.5285  0.9905 -0.3963
   98SAPS   H2S 9769   3.192   5.241   6.579  1.1467 -1.0964 -1.0696
   98SAPS    C3 9770   3.539   4.924   6.441  0.0012  0.8561 -0.4149
   98SAPS    HX 9771   3.577   5.020   6.398 -0.8181  0.6536 -1.6209
   98SAPS    HY 9772   3.584   4.843   6.380  0.7342 -0.3915  1.7543
   98SAPS   O31 9773   3.578   4.914   6.579  0.2118  0.1679  0.4503
   98SAPS   C31 9774   3.611   4.794   6.623 -0.0748 -0.3451 -0.6471
   98SAPS   O32 9775   3.605   4.686   6.567  0.1217  0.7222 -0.0217
   98SAPS   C32 9776   3.648   4.805   6.765  0.1643 -0.3264 -0.0386
   98SAPS   H2X 9777   3.561   4.865   6.800  0.2762  0.4421 -1.0518
   98SAPS   H2Y 9778   3.745   4.859   6.766  0.7439 -1.3114 -1.6147
   98SAPS   C23 9779   3.006   5.135   6.628 -1.1241  0.2726 -0.1185
   98SAPS   H3R 9780   2.983   5.045   6.688  0.7815  0.3382  0.7335
   98SAPS   H3S 9781   2.952   5.126   6.532 -1.3517 -0.7065  0.0945
   98SAPS   C24 9782   2.948   5.255   6.691  0.5200 -0.5548 -0.6887
   98SAPS   H4R 9783   2.979   5.331   6.616 -1.0028  0.1899 -0.5843
   98SAPS   H4S 9784   2.988   5.284   6.790 -2.6628  1.8484 -0.0264
   98SAPS   C25 9785   2.800   5.248   6.722  0.5158  0.2055  0.0268
   98SAPS   H5R 9786   2.736   5.259   6.633 -0.6211  0.5664  0.8671
   98SAPS   C26 9787   2.735   5.219   6.833 -0.8998  0.2284  0.1428
   98SAPS   H6R 9788   2.626   5.219   6.818 -0.4464  0.6815 -3.5518
   98SAPS   C27 9789   2.788   5.183   6.970  0.7537 -0.2706  0.2891
   98SAPS   H7R 9790   2.899   5.181   6.966  0.6888 -1.1792 -1.8037
   98SAPS   H7S 9791   2.768   5.075   6.988 -1.1792  0.0554  0.1673
   98SAPS   C28 9792   2.764   5.255   7.100 -0.2792 -0.0409  0.0454
   98SAPS   H8R 9793   2.757   5.364   7.088  1.5915 -0.1035 -1.8619
   98SAPS   C29 9794   2.774   5.210   7.227  0.1928  0.1675 -0.3348
   98SAPS   H9R 9795   2.775   5.293   7.299 -0.2963  0.4984 -0.7044
   98SAPS  C210 9796   2.793   5.073   7.285  0.1071 -0.3790  0.5458
   98SAPS  H10R 9797   2.841   5.001   7.215 -1.2554 -2.0041  1.2547
   98SAPS  H10S 9798   2.688   5.040   7.302 -0.3660  0.9063  0.2105
   98SAPS  C211 9799   2.859   5.063   7.426 -0.0639 -0.6824  0.3170
   98SAPS  H11R 9800   2.969   5.058   7.421 -0.0400  0.7606 -0.6816
   98SAPS  C212 9801   2.794   5.058   7.543  0.2188  0.1119 -0.0006
   98SAPS  H12R 9802   2.864   5.059   7.628 -1.6109  2.2227  1.5541
   98SAPS  C213 9803   2.647   5.072   7.572 -0.4333  0.0901  0.3059
   98SAPS  H13R 9804   2.620   5.026   7.669 -0.9932  0.1444  0.1812
   98SAPS  H13S 9805   2.586   5.022   7.493 -2.5812  1.9314  0.7588
   98SAPS  C214 9806   2.624   5.224   7.560  0.5383 -0.5289 -0.4842
   98SAPS  H14R 9807   2.638   5.267   7.459  1.1363  2.0014  0.6249
   98SAPS  C215 9808   2.576   5.307   7.651 -0.2276  0.4063  0.4638
   98SAPS  H15R 9809   2.578   5.415   7.632 -0.1034  0.2785 -0.2659
   98SAPS  C216 9810   2.541   5.272   7.794 -0.0638 -0.6867  0.1683
   98SAPS  H16R 9811   2.511   5.165   7.798  0.9939 -1.1830 -3.3127
   98SAPS  H16S 9812   2.462   5.341   7.830 -1.0570 -1.4268 -0.5387
   98SAPS  C217 9813   2.652   5.283   7.897 -0.2630  0.2174 -0.3851
   98SAPS  H17R 9814   2.697   5.385   7.902 -1.9402  1.1066 -2.5668
   98SAPS  H17S 9815   2.727   5.210   7.862 -0.6628 -0.7155  0.6849
   98SAPS  C218 9816   2.598   5.244   8.033 -0.4554 -0.3385  0.0993
   98SAPS  H18R 9817   2.557   5.141   8.029 -0.1045 -0.4244 -1.7316
   98SAPS  H18S 9818   2.514   5.311   8.058  0.1021  0.7813 -0.9517
   98SAPS  C219 9819   2.710   5.252   8.136  0.1886 -0.1717  0.4641
   98SAPS  H19R 9820   2.652   5.231   8.229  1.1360 -2.2732  0.6113
   98SAPS  H19S 9821   2.747   5.357   8.134 -1.2578  0.3840  1.8098
   98SAPS  C220 9822   2.821   5.144   8.117 -0.0385 -0.3308 -0.2268
   98SAPS  H20R 9823   2.774   5.044   8.101  2.7631 -1.5555 -1.1532
   98SAPS  H20S 9824   2.893   5.143   8.202 -2.1614  1.5700  1.6580
   98SAPS  H20T 9825   2.877   5.171   8.025 -0.4908  0.8260 -0.1608
   98SAPS   C33 9826   3.678   4.673   6.846 -0.3482  0.1127 -0.5075
   98SAPS   H3X 9827   3.721   4.592   6.782  3.7161  1.0171  0.9460
   98SAPS   H3Y 9828   3.582   4.634   6.885  1.0655 -0.4378  2.5349
   98SAPS   C34 9829   3.777   4.689   6.961  0.0113 -0.3310  0.0012
   98SAPS   H4X 9830   3.863   4.751   6.928 -1.3568  0.7744 -1.5644
   98SAPS   H4Y 9831   3.827   4.592   6.981  1.7538  0.9768  2.2683
   98SAPS   C35 9832   3.716   4.746   7.097  0.0580  0.1166  0.1629
   98SAPS   H5X 9833   3.638   4.673   7.129 -1.9608  1.2391 -1.9863
   98SAPS   H5Y 9834   3.669   4.846   7.084  0.9916  0.4478 -0.7458
   98SAPS   C36 9835   3.817   4.732   7.213  0.4832 -0.4432 -0.1481
   98SAPS   H6X 9836   3.903   4.792   7.176 -0.0020 -1.1483 -2.5273
   98SAPS   H6Y 9837   3.856   4.628   7.206 -0.2644 -0.7307 -0.1608
   98SAPS   C37 9838   3.755   4.773   7.341  0.5039 -0.6193  0.3692
   98SAPS   H7X 9839   3.654   4.727   7.346 -0.0403  0.4352 -0.5347
   98SAPS   H7Y 9840   3.738   4.883   7.350  3.6476 -0.1882  1.6311
   98SAPS   C38 9841   3.843   4.722   7.452 -0.0454 -0.2839  0.1971
   98SAPS   H8X 9842   3.944   4.766   7.437 -0.1162  0.6378  2.1919
   98SAPS   H8Y 9843   3.846   4.612   7.438 -1.2966 -0.2196 -0.6130
   98SAPS   C39 9844   3.792   4.756   7.592  0.0037 -0.1035 -0.1773
   98SAPS   H9X 9845   3.696   4.710   7.623 -0.0180 -0.1322 -0.2881
   98SAPS   H9Y 9846   3.777   4.866   7.596  0.2686 -0.0960  0.8953
   98SAPS  C310 9847   3.911   4.737   7.692  0.4368 -0.2218 -0.1466
   98SAPS  H10X 9848   3.988   4.800   7.642 -0.4672 -0.0884 -1.3991
   98SAPS  H10Y 9849   3.953   4.634   7.692 -0.4291 -0.5738 -0.5455
   98SAPS  C311 9850   3.874   4.778   7.833 -0.2286 -0.4190 -0.0194
   98SAPS  H11X 9851   3.789   4.718   7.872 -0.0119  0.1176  1.2733
   98SAPS  H11Y 9852   3.843   4.884   7.832 -0.0037 -0.3342 -2.2093
   98SAPS  C312 9853   3.990   4.755   7.933  0.6772  0.2024  0.0370
   98SAPS  H12X 9854   4.087   4.775   7.882  0.2248  0.3810 -0.7579
   98SAPS  H12Y 9855   3.995   4.648   7.965  1.1966  0.6748  1.6073
   98SAPS  C313 9856   3.972   4.843   8.063 -0.4836  0.4929 -0.1560
   98SAPS  H13X 9857   3.879   4.830   8.122 -0.3550  2.9556  0.6530
   98SAPS  H13Y 9858   3.962   4.950   8.035 -1.1150  0.6285  0.5873
   98SAPS  C314 9859   4.076   4.823   8.171 -0.6120 -0.0670  0.7800
   98SAPS  H14X 9860   4.178   4.849   8.134 -0.3609 -0.9262  0.8555
   98SAPS  H14Y 9861   4.083   4.718   8.208 -0.3810 -0.3544 -0.0742
   98SAPS  C315 9862   4.062   4.916   8.293 -0.1691 -0.1072  0.0344
   98SAPS  H15X 9863   4.038   5.015   8.249  0.4284  0.1918  0.3869
   98SAPS  H15Y 9864   4.157   4.920   8.350 -0.2256  0.3240  0.0960
   98SAPS  C316 9865   3.944   4.875   8.391 -0.7001  0.2476 -0.4417
   98SAPS  H16X 9866   3.968   4.775   8.432 -1.1807 -0.1162 -1.0412
   98SAPS  H16Y 9867   3.849   4.874   8.335 -1.3820  1.5829  0.6428
   98SAPS  C317 9868   3.926   4.989   8.491  0.1733  0.2246 -0.0701
   98SAPS  H17X 9869   3.819   5.000   8.516  0.3186 -0.0549  0.6784
   98SAPS  H17Y 9870   3.927   5.081   8.428  1.7535 -0.4930 -1.1211
   98SAPS  C318 9871   4.024   4.994   8.612  0.1213  0.3682  0.3811
   98SAPS  H18X 9872   3.986   4.933   8.697  0.2881 -0.6253 -0.2417
   98SAPS  H18Y 9873   4.028   5.096   8.654  2.2294  0.6729 -0.4938
   98SAPS  H18Z 9874   4.122   4.947   8.587 -0.3028  0.0275 -0.6923
   99SAPS     N 9875   3.598   2.649   6.157  0.2287 -0.3865 -0.3126
   99SAPS   HN1 9876   3.589   2.704   6.069 -0.1389  0.5901  0.3274
   99SAPS   HN2 9877   3.522   2.578   6.154 -1.5284  1.5001 -1.2173
   99SAPS   HN3 9878   3.578   2.720   6.230 -1.2470  0.1235 -1.1740
   99SAPS   C12 9879   3.728   2.596   6.179 -0.1036 -0.7455  0.3742
   99SAPS  H12A 9880   3.752   2.547   6.086 -2.5089  0.4914 -0.9529
   99SAPS   C13 9881   3.829   2.716   6.205 -0.3980 -0.5007 -0.0185
   99SAPS  O13A 9882   3.802   2.833   6.177 -0.9751 -0.4595  0.0681
   99SAPS  O13B 9883   3.948   2.679   6.207 -0.3783  0.5244 -0.2426
   99SAPS   C11 9884   3.725   2.488   6.287  0.2827 -0.1586  0.0078
   99SAPS  H11A 9885   3.678   2.524   6.381  1.3707  2.7264 -0.5098
   99SAPS  H11B 9886   3.833   2.477   6.312  0.2133 -0.0216  0.3762
   99SAPS     P 9887   3.523   2.327   6.265 -0.4720  0.3085 -0.1768
   99SAPS   O13 9888   3.444   2.426   6.193  0.1083  0.0321  0.5722
   99SAPS   O14 9889   3.501   2.187   6.219  0.6269  0.0284  0.0112
   99SAPS   O12 9890   3.676   2.366   6.246 -0.3360 -0.1040 -0.1923
   99SAPS   O11 9891   3.492   2.340   6.426 -0.6803  0.0728 -0.0238
   99SAPS    C1 9892   3.577   2.284   6.518  0.1188  0.6834  0.0546
   99SAPS    HA 9893   3.554   2.175   6.524  0.0637  0.6408 -0.8140
   99SAPS    HB 9894   3.683   2.317   6.516  0.6422 -0.7269  2.3085
   99SAPS    C2 9895   3.555   2.324   6.668  0.6157 -0.3197 -0.5780
   99SAPS    HS 9896   3.608   2.248   6.729 -1.3387 -1.0412  0.2603
   99SAPS   O21 9897   3.410   2.332   6.691 -0.1237 -0.0119 -0.1970
   99SAPS   C21 9898   3.355   2.219   6.734 -0.3959 -0.0549  0.0783
   99SAPS   O22 9899   3.410   2.111   6.737 -0.1151 -0.6263  0.3251
   99SAPS   C22 9900   3.207   2.246   6.737  0.0934  0.2206 -0.1176
   99SAPS   H2R 9901   3.182   2.302   6.829 -1.7134 -1.0462  0.1846
   99SAPS   H2S 9902   3.170   2.303   6.649  1.1260  2.2954  0.7695
   99SAPS    C3 9903   3.617   2.464   6.692  0.2832  0.4899 -0.1799
   99SAPS    HX 9904   3.554   2.523   6.623  1.2492  2.0833  0.2557
   99SAPS    HY 9905   3.721   2.464   6.654  0.0775 -0.0998 -0.7376
   99SAPS   O31 9906   3.612   2.513   6.824  0.2217 -0.1494 -0.2705
   99SAPS   C31 9907   3.563   2.634   6.848  0.0192 -0.1534  0.8748
   99SAPS   O32 9908   3.494   2.696   6.767 -0.2390 -0.2311  0.3668
   99SAPS   C32 9909   3.575   2.674   6.997 -0.2854 -0.5853 -1.0342
   99SAPS   H2X 9910   3.682   2.702   7.007 -1.0748  2.5985 -1.0156
   99SAPS   H2Y 9911   3.563   2.578   7.052  2.1161 -1.6807 -2.3321
   99SAPS   C23 9912   3.130   2.113   6.751 -0.0544 -0.5109  0.3703
   99SAPS   H3R 9913   3.163   2.047   6.835 -1.0838  0.1884  1.3347
   99SAPS   H3S 9914   3.139   2.050   6.660  1.9813 -1.6018  1.2764
   99SAPS   C24 9915   2.978   2.138   6.781  0.1851  0.3932  0.5352
   99SAPS   H4R 9916   2.924   2.041   6.775  3.3975 -1.2903 -3.3773
   99SAPS   H4S 9917   2.937   2.194   6.695  1.1745  0.6290  0.2153
   99SAPS   C25 9918   2.931   2.218   6.898 -0.0189  0.0803  0.6740
   99SAPS   H5R 9919   2.989   2.307   6.927  0.5174 -0.3935  1.0542
   99SAPS   C26 9920   2.823   2.193   6.974  0.2127 -0.8455 -0.4585
   99SAPS   H6R 9921   2.799   2.260   7.058  1.0911 -0.6102 -0.3952
   99SAPS   C27 9922   2.722   2.085   6.979  0.6267  0.7294  0.2886
   99SAPS   H7R 9923   2.723   2.031   7.076 -0.4168  1.6319  0.8166
   99SAPS   H7S 9924   2.757   2.015   6.901 -0.9400  3.1003 -2.6324
   99SAPS   C28 9925   2.584   2.124   6.949 -0.6493  0.1841  0.8520
   99SAPS   H8R 9926   2.571   2.229   6.916  0.4988  0.9498  2.7428
   99SAPS   C29 9927   2.476   2.052   6.979  0.4104 -0.2366  0.3293
   99SAPS   H9R 9928   2.372   2.088   6.971 -0.1645 -2.0356 -0.5331
   99SAPS  C210 9929   2.481   1.911   7.025 -0.2170 -0.3699 -0.1334
   99SAPS  H10R 9930   2.577   1.862   6.998 -0.9076 -0.9927 -1.4845
   99SAPS  H10S 9931   2.409   1.847   6.970 -0.4289 -1.2755  1.1904
   99SAPS  C211 9932   2.465   1.907   7.174  0.3309 -0.7645  0.0096
   99SAPS  H11R 9933   2.544   1.946   7.239 -0.0201  0.3289 -0.2156
   99SAPS  C212 9934   2.355   1.857   7.236  0.2359  0.0041  0.3282
   99SAPS  H12R 9935   2.349   1.859   7.346  1.4114  4.1188  0.3743
   99SAPS  C213 9936   2.237   1.793   7.172 -0.2658 -0.2863 -0.4646
   99SAPS  H13R 9937   2.194   1.726   7.249  0.4150 -0.4613 -0.2309
   99SAPS  H13S 9938   2.269   1.723   7.092 -0.1494 -1.0270  0.2283
   99SAPS  C214 9939   2.125   1.891   7.134 -0.1981  0.1281  0.5932
   99SAPS  H14R 9940   2.095   1.890   7.028 -1.9642  2.6656  1.0215
   99SAPS  C215 9941   2.062   1.979   7.215 -0.6503  0.1071  0.2356
   99SAPS  H15R 9942   1.996   2.051   7.165 -1.0347 -0.9771 -0.8348
   99SAPS  C216 9943   2.084   1.993   7.365  0.5060 -0.2273 -0.0604
   99SAPS  H16R 9944   2.149   1.912   7.406  1.2522  0.4543  0.1109
   99SAPS  H16S 9945   1.984   1.987   7.412 -0.1855  0.5705 -1.3914
   99SAPS  C217 9946   2.152   2.131   7.399  0.3494  0.5988 -0.0745
   99SAPS  H17R 9947   2.105   2.211   7.338 -0.7047  1.6505  2.0513
   99SAPS  H17S 9948   2.250   2.119   7.350 -0.2467 -3.8807 -0.4151
   99SAPS  C218 9949   2.145   2.174   7.547 -0.2632  0.5234 -0.1823
   99SAPS  H18R 9950   2.167   2.094   7.620  0.4404  0.5020 -0.4155
   99SAPS  H18S 9951   2.038   2.202   7.558 -0.4082  0.2961 -0.9588
   99SAPS  C219 9952   2.248   2.287   7.569  0.6689 -0.1781 -0.0187
   99SAPS  H19R 9953   2.217   2.340   7.662 -1.0657  1.3255 -1.4337
   99SAPS  H19S 9954   2.237   2.354   7.481 -0.4676 -0.9175 -0.4556
   99SAPS  C220 9955   2.396   2.237   7.571  0.3036 -0.0123 -0.1875
   99SAPS  H20R 9956   2.416   2.171   7.484  0.8078  0.2846 -0.2942
   99SAPS  H20S 9957   2.418   2.179   7.663 -1.3270  1.8761  1.4630
   99SAPS  H20T 9958   2.473   2.316   7.585  0.4747 -0.1762 -0.2174
   99SAPS   C33 9959   3.483   2.792   7.037 -0.1013  0.4279  1.2422
   99SAPS   H3X 9960   3.379   2.753   7.047 -0.8100  1.7378 -0.6604
   99SAPS   H3Y 9961   3.481   2.863   6.951 -2.3358  0.6677  1.4621
   99SAPS   C34 9962   3.526   2.861   7.170  0.4650  0.1466 -0.4939
   99SAPS   H4X 9963   3.500   2.969   7.174 -1.0233 -0.2546  1.8520
   99SAPS   H4Y 9964   3.636   2.861   7.154  0.0977 -1.7526 -3.3379
   99SAPS   C35 9965   3.502   2.772   7.298  0.2866 -0.0533  0.2906
   99SAPS   H5X 9966   3.574   2.689   7.280 -0.6873 -0.8734  0.1520
   99SAPS   H5Y 9967   3.396   2.741   7.308 -0.4149  1.3320 -2.4047
   99SAPS   C36 9968   3.558   2.847   7.417 -0.2928  0.0162  0.0959
   99SAPS   H6X 9969   3.487   2.922   7.457 -3.4208 -1.8131 -1.8277
   99SAPS   H6Y 9970   3.655   2.890   7.386 -1.2240  3.4716  1.7010
   99SAPS   C37 9971   3.583   2.749   7.538  0.1151  0.1980 -0.1845
   99SAPS   H7X 9972   3.658   2.674   7.507  2.8172  2.6546  0.2310
   99SAPS   H7Y 9973   3.484   2.708   7.569  0.3350 -1.4654 -1.6118
   99SAPS   C38 9974   3.652   2.828   7.654 -0.3984 -0.5744 -0.2122
   99SAPS   H8X 9975   3.588   2.911   7.690 -0.4788 -0.1111 -1.4202
   99SAPS   H8Y 9976   3.755   2.855   7.623  0.4627 -0.5953  2.4770
   99SAPS   C39 9977   3.681   2.723   7.777 -0.2730 -0.1459  0.5286
   99SAPS   H9X 9978   3.710   2.623   7.739 -0.5120 -0.7719  1.9461
   99SAPS   H9Y 9979   3.584   2.718   7.831 -1.6620 -1.1360 -1.9871
   99SAPS  C310 9980   3.797   2.770   7.859 -0.3006 -0.2971 -0.8172
   99SAPS  H10X 9981   3.765   2.868   7.899 -3.2002 -0.6854 -2.0703
   99SAPS  H10Y 9982   3.880   2.776   7.785  1.0332 -0.9867  0.5826
   99SAPS  C311 9983   3.832   2.678   7.976 -0.4918 -0.2092 -0.2781
   99SAPS  H11X 9984   3.831   2.575   7.933 -4.6289 -1.5350  2.7329
   99SAPS  H11Y 9985   3.760   2.707   8.055 -0.9538 -1.0293 -0.3985
   99SAPS  C312 9986   3.969   2.700   8.046  0.5216 -0.4215  0.6295
   99SAPS  H12X 9987   3.978   2.803   8.087  0.0667  0.6409 -1.8410
   99SAPS  H12Y 9988   4.054   2.686   7.977 -0.0394  2.0272 -0.6067
   99SAPS  C313 9989   3.978   2.614   8.170  0.8167  0.7518  0.2833
   99SAPS  H13X 9990   3.971   2.510   8.134  0.9279  0.6597  0.5294
   99SAPS  H13Y 9991   3.898   2.633   8.245  0.1762  0.8815 -0.4246
   99SAPS  C314 9992   4.104   2.646   8.256 -0.6904 -1.1195  0.2143
   99SAPS  H14X 9993   4.089   2.585   8.348 -0.7285 -2.7656 -0.8829
   99SAPS  H14Y 9994   4.112   2.751   8.294  0.1146 -0.5250 -1.5783
   99SAPS  C315 9995   4.240   2.608   8.191 -0.1635  0.6586  0.3786
   99SAPS  H15X 9996   4.319   2.646   8.260  0.2675 -1.6355  1.1977
   99SAPS  H15Y 9997   4.251   2.652   8.089  1.1470 -1.7853 -0.5766
   99SAPS  C316 9998   4.254   2.456   8.167 -0.4452  0.7297  1.0113
   99SAPS  H16X 9999   4.362   2.446   8.142 -1.6160 -1.8956 -3.5587
   99SAPS  H16Y10000   4.200   2.421   8.076 -0.8772 -1.9591  2.2334
   99SAPS  C31710001   4.217   2.370   8.288 -0.0009  0.4176 -0.5883
   99SAPS  H17X10002   4.107   2.373   8.300  0.1450  1.4073  0.6069
   99SAPS  H17Y10003   4.255   2.403   8.387  1.0475  1.4540 -1.3240
   99SAPS  C31810004   4.249   2.224   8.275 -0.4153  0.8286 -0.3775
   99SAPS  H18X10005   4.238   2.163   8.367  0.2760 -1.1946 -1.6186
   99SAPS  H18Y10006   4.354   2.200   8.249 -0.4084 -1.9241  1.9714
   99SAPS  H18Z10007   4.184   2.187   8.193  0.2308 -0.1541 -0.4527
  100SAPS     N10008   5.769   4.226   6.185  0.9008 -0.0757 -0.2676
  100SAPS   HN110009   5.735   4.314   6.142  0.1957  0.1098  0.6535
  100SAPS   HN210010   5.724   4.213   6.278  1.0312  1.2414 -0.0026
  100SAPS   HN310011   5.870   4.247   6.202  0.7339  1.0572 -0.6535
  100SAPS   C1210012   5.756   4.116   6.090 -0.1424 -0.3603  0.1937
  100SAPS  H12A10013   5.649   4.103   6.075 -0.5406  2.9470 -0.1280
  100SAPS   C1310014   5.816   4.152   5.943  0.0765  0.0800  0.0704
  100SAPS  O13A10015   5.876   4.258   5.931 -0.1392 -0.0333  0.4246
  100SAPS  O13B10016   5.809   4.073   5.849  0.5574  0.1254  0.2897
  100SAPS   C1110017   5.821   3.986   6.156 -0.5743  0.2619 -0.4386
  100SAPS  H11A10018   5.920   4.021   6.190 -0.5813  1.3619 -1.5079
  100SAPS  H11B10019   5.825   3.905   6.079 -1.3553  0.1015 -0.3189
  100SAPS     P10020   5.773   3.813   6.349 -0.6502 -0.2110  0.1436
  100SAPS   O1310021   5.648   3.741   6.382  0.7078 -0.3828 -0.4304
  100SAPS   O1410022   5.872   3.738   6.268  0.1865  0.2466 -0.1202
  100SAPS   O1210023   5.744   3.943   6.271  0.1177  0.2484 -0.1550
  100SAPS   O1110024   5.830   3.865   6.484 -0.2907  0.1932  0.1175
  100SAPS    C110025   5.941   3.965   6.480  0.3822  0.1450  0.4731
  100SAPS    HA10026   5.971   3.996   6.377 -3.5958  2.2600 -0.1669
  100SAPS    HB10027   5.911   4.067   6.513 -0.2978 -0.1235  0.6891
  100SAPS    C210028   6.072   3.932   6.559  0.8850  0.2743 -0.0731
  100SAPS    HS10029   6.115   3.837   6.521  0.7225  0.2931 -0.3051
  100SAPS   O2110030   6.029   3.929   6.692 -0.8111  0.2806  0.2007
  100SAPS   C2110031   6.064   3.824   6.763  0.1718 -0.7477  0.3292
  100SAPS   O2210032   6.146   3.741   6.727  0.2628  0.2363  0.6047
  100SAPS   C2210033   5.982   3.824   6.889 -0.1890 -0.1156  0.1268
  100SAPS   H2R10034   6.042   3.870   6.971 -1.7851 -2.0555  2.4417
  100SAPS   H2S10035   5.901   3.900   6.888 -0.5227 -0.4607 -1.7645
  100SAPS    C310036   6.191   4.034   6.546  0.6123 -0.0052  0.4409
  100SAPS    HX10037   6.146   4.125   6.591 -0.7688 -0.1300 -0.6572
  100SAPS    HY10038   6.221   4.066   6.444 -2.5657  3.3272  0.4338
  100SAPS   O3110039   6.312   3.988   6.613 -0.3617  0.0718  0.7614
  100SAPS   C3110040   6.391   4.089   6.660  0.7733  0.3955 -0.5010
  100SAPS   O3210041   6.377   4.205   6.634  0.2797  0.4874 -0.0671
  100SAPS   C3210042   6.497   4.037   6.764  0.3843  0.0021 -0.4959
  100SAPS   H2X10043   6.544   4.131   6.802 -0.9325  0.8684 -0.9523
  100SAPS   H2Y10044   6.571   3.978   6.706  1.7080  1.1795 -0.0588
  100SAPS   C2310045   5.945   3.682   6.931 -0.1434 -0.4765  0.2550
  100SAPS   H3R10046   6.040   3.635   6.963 -0.1445 -0.4240  0.3357
  100SAPS   H3S10047   5.910   3.614   6.851 -1.4451 -0.5505  0.8706
  100SAPS   C2410048   5.833   3.674   7.037  0.4683  0.1462 -0.3570
  100SAPS   H4R10049   5.869   3.726   7.129 -1.4880  0.1555  0.4224
  100SAPS   H4S10050   5.804   3.568   7.055 -1.5893  0.9523  1.2111
  100SAPS   C2510051   5.705   3.745   7.005 -0.0863  0.7523  0.1672
  100SAPS   H5R10052   5.662   3.701   6.914  3.0411 -1.0029 -0.5494
  100SAPS   C2610053   5.653   3.836   7.084  0.4163 -0.2866  0.0538
  100SAPS   H6R10054   5.556   3.879   7.054  0.8936 -0.4140 -1.7261
  100SAPS   C2710055   5.703   3.896   7.215 -0.4156 -0.3791  0.0541
  100SAPS   H7R10056   5.755   3.811   7.266 -0.1029 -1.1530 -1.5322
  100SAPS   H7S10057   5.615   3.924   7.278 -0.4084 -1.7382  0.6962
  100SAPS   C2810058   5.788   4.016   7.185 -0.7610  0.1715 -0.8708
  100SAPS   H8R10059   5.758   4.077   7.098 -1.9775 -1.4585 -1.6196
  100SAPS   C2910060   5.895   4.055   7.258  0.0988 -0.5549 -0.6673
  100SAPS   H9R10061   5.940   4.152   7.234  0.3527 -0.2453  0.9858
  100SAPS  C21010062   5.938   3.994   7.395 -0.4161 -0.0585  0.2905
  100SAPS  H10R10063   6.034   3.938   7.388  0.3287  1.0422  1.3853
  100SAPS  H10S10064   5.861   3.927   7.439 -0.4384 -1.7639 -2.2592
  100SAPS  C21110065   5.967   4.105   7.495  0.0686 -1.1013 -0.3829
  100SAPS  H11R10066   5.926   4.205   7.473 -0.4164 -1.3824 -0.7876
  100SAPS  C21210067   6.039   4.099   7.610  0.1283 -0.1941  0.5997
  100SAPS  H12R10068   6.062   4.189   7.669  1.5133  0.4061 -0.8029
  100SAPS  C21310069   6.113   3.981   7.669 -0.6868 -0.7768 -0.2494
  100SAPS  H13R10070   6.209   4.016   7.713 -0.3129 -1.9366 -0.1226
  100SAPS  H13S10071   6.136   3.904   7.591 -0.6928 -0.5130 -0.5121
  100SAPS  C21410072   6.037   3.916   7.785 -0.0664  0.4071 -0.6420
  100SAPS  H14R10073   5.960   3.845   7.751 -0.0148  0.4994 -0.9562
  100SAPS  C21510074   6.059   3.941   7.915 -0.2576 -0.6939  0.0135
  100SAPS  H15R10075   5.989   3.905   7.992  0.5767 -1.1327  0.5766
  100SAPS  C21610076   6.165   4.036   7.964  0.2343 -0.0510  0.3516
  100SAPS  H16R10077   6.151   4.145   7.948 -0.6121  0.1912  2.5032
  100SAPS  H16S10078   6.263   4.014   7.917 -0.0414  1.5361 -1.0034
  100SAPS  C21710079   6.177   4.024   8.112 -0.1052 -0.3406  0.6206
  100SAPS  H17R10080   6.268   4.063   8.162  2.2655 -0.4965 -3.3441
  100SAPS  H17S10081   6.192   3.916   8.134  3.3751 -0.4673 -1.8487
  100SAPS  C21810082   6.058   4.083   8.196  0.1130  0.7089 -0.4201
  100SAPS  H18R10083   5.958   4.044   8.167  0.3799  0.8925 -1.6095
  100SAPS  H18S10084   6.054   4.192   8.173 -2.9272  0.6180 -0.4444
  100SAPS  C21910085   6.073   4.059   8.348  0.1482 -0.6575 -0.7744
  100SAPS  H19R10086   6.168   4.103   8.386 -0.6420 -2.3859  3.5192
  100SAPS  H19S10087   6.074   3.952   8.378 -2.3070 -0.4813  0.0623
  100SAPS  C22010088   5.976   4.150   8.425 -0.7366  0.1397 -0.5757
  100SAPS  H20R10089   6.008   4.257   8.418 -1.6969  0.4984  0.4284
  100SAPS  H20S10090   5.983   4.123   8.532  1.3061  1.3684 -0.3568
  100SAPS  H20T10091   5.875   4.133   8.382 -1.2304 -0.1783  0.6915
  100SAPS   C3310092   6.460   3.949   6.885  0.4808 -0.2427  0.7737
  100SAPS   H3X10093   6.424   3.854   6.839 -0.7033 -0.1014  1.3776
  100SAPS   H3Y10094   6.372   3.996   6.934 -1.1301 -1.0917 -1.2086
  100SAPS   C3410095   6.574   3.922   6.979 -0.2939 -0.3312 -0.6657
  100SAPS   H4X10096   6.669   3.895   6.929  0.5934  3.9925 -1.5785
  100SAPS   H4Y10097   6.534   3.840   7.041 -3.2743 -0.3762 -2.5197
  100SAPS   C3510098   6.582   4.039   7.077  0.3056 -0.4189 -0.7032
  100SAPS   H5X10099   6.491   4.053   7.140  1.5001  1.3943  0.6890
  100SAPS   H5Y10100   6.600   4.138   7.031 -2.1945 -1.2832 -3.6863
  100SAPS   C3610101   6.697   4.033   7.178  0.4727 -0.4450  0.0091
  100SAPS   H6X10102   6.793   4.056   7.129 -0.3389 -0.1001 -1.4503
  100SAPS   H6Y10103   6.708   3.928   7.212  0.2683 -1.6660 -3.4581
  100SAPS   C3710104   6.669   4.122   7.301 -1.4171 -0.2169  1.1766
  100SAPS   H7X10105   6.574   4.079   7.339 -0.8539 -1.8150  0.8246
  100SAPS   H7Y10106   6.656   4.227   7.268 -0.7452 -0.8443 -1.1724
  100SAPS   C3810107   6.778   4.110   7.404 -0.5904  0.2876  0.2351
  100SAPS   H8X10108   6.878   4.124   7.359 -0.8891 -0.9776 -0.8253
  100SAPS   H8Y10109   6.783   4.008   7.448 -0.1801 -0.2031 -0.9230
  100SAPS   C3910110   6.758   4.214   7.515  0.1196 -0.1365  0.3840
  100SAPS   H9X10111   6.844   4.217   7.585  1.5639  2.2981 -1.3943
  100SAPS   H9Y10112   6.664   4.195   7.571  1.0935 -0.6055  1.8749
  100SAPS  C31010113   6.759   4.357   7.461 -0.4253  0.7815 -0.0715
  100SAPS  H10X10114   6.652   4.383   7.449 -0.6273  0.1995  0.4630
  100SAPS  H10Y10115   6.806   4.354   7.360  0.5480  0.3877  0.3772
  100SAPS  C31110116   6.816   4.459   7.549  0.4825 -0.2303 -0.5622
  100SAPS  H11X10117   6.799   4.558   7.501  0.2920  0.1269  0.2406
  100SAPS  H11Y10118   6.924   4.438   7.566  0.4253 -0.6137 -0.6679
  100SAPS  C31210119   6.762   4.469   7.692 -0.2797  0.6761 -0.6860
  100SAPS  H12X10120   6.729   4.369   7.728 -1.7763  1.0678 -0.9066
  100SAPS  H12Y10121   6.672   4.534   7.695 -1.3113 -0.7740  1.2567
  100SAPS  C31310122   6.861   4.539   7.787  0.6649  0.1198 -0.0152
  100SAPS  H13X10123   6.914   4.614   7.725  2.6199 -0.5455  0.8142
  100SAPS  H13Y10124   6.943   4.465   7.797 -1.5135 -2.6483 -1.7678
  100SAPS  C31410125   6.809   4.586   7.926  0.0028  0.3002  0.1603
  100SAPS  H14X10126   6.744   4.517   7.983 -0.4580  2.9847  3.0200
  100SAPS  H14Y10127   6.750   4.680   7.929  3.1015  2.3391 -0.7716
  100SAPS  C31510128   6.931   4.630   8.005  0.4129  0.1348 -0.1468
  100SAPS  H15X10129   6.997   4.700   7.949 -0.8795  0.3948 -1.3734
  100SAPS  H15Y10130   7.000   4.548   8.033  3.0143  1.3927 -2.5932
  100SAPS  C31610131   6.892   4.695   8.135  0.6753  0.3125  0.8718
  100SAPS  H16X10132   6.842   4.791   8.112 -0.2026 -0.7108 -1.6645
  100SAPS  H16Y10133   6.992   4.720   8.175  1.4413 -0.6752 -0.4045
  100SAPS  C31710134   6.816   4.606   8.238  0.3243  0.2721 -0.2555
  100SAPS  H17X10135   6.885   4.521   8.254  0.0395  0.1296  0.2192
  100SAPS  H17Y10136   6.727   4.558   8.193  0.4556 -0.2008 -0.0210
  100SAPS  C31810137   6.789   4.680   8.364 -0.1372 -0.7017  0.3660
  100SAPS  H18X10138   6.715   4.762   8.347  0.4605 -0.4471 -1.0487
  100SAPS  H18Y10139   6.892   4.706   8.396  0.1643 -2.4118  0.8306
  100SAPS  H18Z10140   6.750   4.614   8.444 -1.7489 -1.2264 -0.8231
  101OSM      N10141   4.939   4.200  10.902 -0.4615 -0.0584  0.1317
  101OSM    C1510142   4.929   4.089  11.003 -0.0471  0.5847  0.0946
  101OSM   H15A10143   4.971   4.119  11.098 -0.2641  1.2361 -0.0081
  101OSM   H15B10144   4.963   3.998  10.957 -0.6327  0.7449 -0.6769
  101OSM   H15C10145   4.826   4.072  11.031 -0.4104 -0.3632 -1.7224
  101OSM    C1410146   4.864   4.158  10.782 -0.0338  0.6261  0.2709
  101OSM   H14A10147   4.847   4.246  10.722 -1.3426 -1.2473 -2.2409
  101OSM   H14B10148   4.767   4.121  10.813 -0.9391 -1.5209 -4.6424
  101OSM   H14C10149   4.911   4.076  10.731 -0.1482 -0.0237  1.1909
  101OSM    C1310150   4.879   4.323  10.960  0.0501  0.0443  0.0754
  101OSM   H13A10151   4.780   4.310  11.000  0.1169  2.2844  1.0779
  101OSM   H13B10152   4.873   4.412  10.897 -1.4868  0.0299  0.1858
  101OSM   H13C10153   4.938   4.354  11.045 -0.1784 -0.6645  0.4903
  101OSM    C1210154   5.092   4.217  10.863  0.0751  1.0251 -0.2458
  101OSM   H12A10155   5.144   4.228  10.957  0.1552  2.1384 -0.4171
  101OSM   H12B10156   5.110   4.311  10.814 -1.4056  1.8457  0.7286
  101OSM    C1110157   5.179   4.109  10.791  0.8162 -0.4087 -0.0201
  101OSM   H11A10158   5.287   4.133  10.803  0.6385  1.3714 -1.7254
  101OSM   H11B10159   5.150   4.095  10.684  2.1584  1.8338 -0.6946
  101OSM      P10160   5.143   3.843  10.803 -0.0903  0.0826 -0.2176
  101OSM    O1310161   5.262   3.765  10.839 -0.6014  0.4077  0.7766
  101OSM    O1410162   5.016   3.787  10.857  0.6670 -1.0228 -0.2327
  101OSM    O1110163   5.137   3.865  10.647 -0.1970  0.0151  0.1136
  101OSM    O1210164   5.163   3.988  10.866 -0.2016 -0.1693 -0.1461
  101OSM    C1S10165   5.011   3.858  10.581 -0.2023  0.1481  0.4963
  101OSM    H1S10166   4.943   3.930  10.631  1.4067  1.9615  0.1427
  101OSM    H1T10167   4.972   3.755  10.594 -0.0812  0.4311  3.5851
  101OSM     NF10168   4.897   3.893  10.363  0.7116 -0.6589 -0.5722
  101OSM    HNF10169   4.870   3.803  10.330 -1.1728 -0.7002  0.9771
  101OSM    C2S10170   5.024   3.899  10.428  0.4502 -0.0765 -0.3145
  101OSM    H2S10171   5.068   4.000  10.415 -1.7270  0.9734  0.0695
  101OSM    C3S10172   5.131   3.811  10.367 -0.0439  0.0504 -0.3394
  101OSM    H3S10173   5.107   3.704  10.382  0.4924  0.1496  1.2625
  101OSM     O310174   5.258   3.816  10.418  0.2043 -0.0893 -0.3437
  101OSM    HO310175   5.257   3.870  10.498 -0.5932  1.7650 -1.5763
  101OSM    C4S10176   5.124   3.826  10.219  0.5006 -0.0434 -0.2572
  101OSM    H4S10177   5.042   3.765  10.178  0.2328  0.0212  0.1789
  101OSM    C5S10178   5.194   3.909  10.135  0.1473  0.0659  0.4406
  101OSM    H5S10179   5.277   3.965  10.180 -0.1482  0.3228  0.6700
  101OSM    C6S10180   5.165   3.921   9.984  0.1477  0.2960  0.2118
  101OSM    H6S10181   5.264   3.928   9.935  0.1917 -0.5592  0.1630
  101OSM    H6T10182   5.116   4.020   9.971 -1.9236 -0.3441  2.8290
  101OSM    C7S10183   5.088   3.805   9.927  0.5521 -0.4704 -0.5584
  101OSM    H7S10184   4.984   3.798   9.965  1.5321 -2.8583  1.8667
  101OSM    H7T10185   5.140   3.714   9.966  0.1870 -1.4749 -2.3514
  101OSM    C8S10186   5.090   3.808   9.775  0.2339 -0.1815  0.1414
  101OSM    H8S10187   5.072   3.707   9.731  0.5978 -0.1423 -0.1027
  101OSM    H8T10188   5.195   3.834   9.750 -0.1082  0.5815 -0.5102
  101OSM    C9S10189   4.996   3.903   9.707 -0.0336 -0.7268 -0.6467
  101OSM    H9S10190   4.992   4.003   9.755 -0.5654 -1.4587  0.8592
  101OSM    H9T10191   4.889   3.874   9.722 -0.2295 -0.0745 -0.7953
  101OSM   C10S10192   5.021   3.913   9.552 -0.8414 -0.6755 -0.1129
  101OSM   H10S10193   5.131   3.924   9.552 -0.9212  0.1989 -0.5412
  101OSM   H10T10194   4.984   4.009   9.510 -3.1483 -1.9025 -0.9779
  101OSM   C11S10195   4.953   3.804   9.468  0.1134  0.8391 -0.6341
  101OSM   H11S10196   4.844   3.822   9.457 -0.8704 -3.5174  1.2173
  101OSM   H11T10197   4.959   3.709   9.525 -2.3808  0.8410 -0.3174
  101OSM   C12S10198   5.029   3.807   9.333 -0.8346  0.0636 -0.6937
  101OSM   H12S10199   5.136   3.794   9.357 -0.0992  2.0598 -2.6839
  101OSM   H12T10200   5.020   3.903   9.277 -0.0996 -0.2518 -1.3571
  101OSM   C13S10201   4.965   3.712   9.234  0.0867  0.3355 -0.0469
  101OSM   H13S10202   4.865   3.743   9.195  0.4054 -1.4730 -2.4034
  101OSM   H13T10203   4.966   3.614   9.286  1.3872 -0.1715 -0.9821
  101OSM   C14S10204   5.057   3.682   9.112 -0.0363 -0.2883  0.4913
  101OSM   H14S10205   5.159   3.652   9.144  0.6029  0.5555 -0.7174
  101OSM   H14T10206   5.053   3.769   9.043 -1.5140  0.7147  1.8123
  101OSM   C15S10207   5.007   3.558   9.040  0.4782  1.1464  0.6629
  101OSM   H15S10208   5.069   3.547   8.949  0.3164 -1.7035  0.8692
  101OSM   H15T10209   4.902   3.574   9.007  0.6452 -0.8460 -0.9254
  101OSM   C16S10210   5.025   3.427   9.119 -0.0768 -0.0784 -0.2924
  101OSM   H16S10211   4.947   3.422   9.197  0.0762 -0.4230 -0.1636
  101OSM   H16T10212   5.124   3.427   9.170  0.5325 -1.4654 -1.4416
  101OSM   C17S10213   5.011   3.298   9.037  0.3240 -0.7586  0.2501
  101OSM   H17S10214   5.105   3.307   8.977  0.5885 -0.3711  0.7188
  101OSM   H17T10215   4.927   3.299   8.964  1.1485 -1.8147 -0.7334
  101OSM   C18S10216   4.997   3.171   9.125 -0.5744 -1.0950 -0.0642
  101OSM   H18S10217   5.022   3.077   9.071  0.5858 -0.8267 -0.0136
  101OSM   H18T10218   4.887   3.170   9.140 -0.6626 -2.9859 -0.7851
  101OSM   H18U10219   5.039   3.174   9.228 -1.8363 -1.2278  0.4657
  101OSM    C1F10220   4.808   3.984  10.379 -0.6850  0.3625  0.0572
  101OSM     OF10221   4.816   4.071  10.467  0.4873  0.7923  0.0344
  101OSM    C2F10222   4.683   3.968  10.291  0.0398  0.0008  0.1974
  101OSM    H2F10223   4.594   3.952  10.356  0.2818 -2.7208 -0.0957
  101OSM    H2G10224   4.702   3.882  10.223 -0.7542  0.2966 -0.4047
  101OSM    C3F10225   4.648   4.098  10.207  0.8071  0.0520  0.6036
  101OSM    H3F10226   4.604   4.175  10.274  0.6539  0.5729 -0.0966
  101OSM    H3G10227   4.568   4.062  10.140 -0.5931 -1.7210  3.1170
  101OSM    C4F10228   4.758   4.156  10.122  0.6048  0.4934 -0.2389
  101OSM    H4F10229   4.817   4.076  10.072  0.5312  1.6485 -2.2372
  101OSM    H4G10230   4.829   4.203  10.192 -0.4687  2.5885 -0.5194
  101OSM    C5F10231   4.712   4.260  10.020 -0.2764  0.2331 -0.5508
  101OSM    H5F10232   4.807   4.301   9.978 -0.0658 -0.2264 -0.5287
  101OSM    H5G10233   4.645   4.335  10.067 -0.6113  0.2441 -1.0499
  101OSM    C6F10234   4.637   4.210   9.896 -0.0947 -0.0993  0.3165
  101OSM    H6F10235   4.536   4.179   9.930  0.9459 -1.0386  2.6493
  101OSM    H6G10236   4.683   4.118   9.854 -3.2126 -1.9793  0.9246
  101OSM    C7F10237   4.622   4.319   9.784  0.4962  0.0836 -0.2194
  101OSM    H7F10238   4.719   4.344   9.736  1.4207  0.6128  1.8628
  101OSM    H7G10239   4.573   4.410   9.825  0.2797 -0.1052 -0.0595
  101OSM    C8F10240   4.530   4.271   9.675 -0.2511  0.5135  0.1133
  101OSM    H8F10241   4.508   4.346   9.597  0.9449  0.4522 -0.2948
  101OSM    H8G10242   4.428   4.249   9.713 -0.9229 -1.3352 -2.6371
  101OSM    C9F10243   4.593   4.155   9.603 -0.3425  0.7645 -0.0518
  101OSM    H9F10244   4.561   4.055   9.635  1.3098  0.0610 -0.5791
  101OSM   C10F10245   4.699   4.150   9.525  1.5074 -0.0494  0.4220
  101OSM   H10F10246   4.731   4.050   9.494 -1.5764 -1.0816  0.4490
  101OSM   C11F10247   4.769   4.273   9.474  0.0974 -0.6175  0.1386
  101OSM   H11F10248   4.862   4.296   9.530  0.3700 -2.2561  0.3768
  101OSM   H11G10249   4.706   4.363   9.489  0.7231  0.1862 -1.9729
  101OSM   C12F10250   4.799   4.250   9.323  0.1470 -0.0431 -0.8562
  101OSM   H12F10251   4.702   4.215   9.281 -0.0971 -1.4116  0.8159
  101OSM   H12G10252   4.879   4.175   9.306 -2.2407 -2.7161 -0.7142
  101OSM   C13F10253   4.833   4.381   9.249 -0.6164 -0.7445 -0.4506
  101OSM   H13F10254   4.930   4.426   9.281  0.2992 -1.9088 -1.5293
  101OSM   H13G10255   4.758   4.458   9.277  0.9624  0.3651  0.8597
  101OSM   C14F10256   4.834   4.350   9.100 -0.3076 -0.3351  0.6597
  101OSM   H14F10257   4.755   4.278   9.072 -0.6000 -0.0783  0.8191
  101OSM   H14G10258   4.924   4.285   9.099 -0.7656 -0.9657  0.4702
  101OSM   C15F10259   4.843   4.477   9.014  0.6449 -0.4172  0.0560
  101OSM   H15F10260   4.920   4.544   9.058  1.8753 -1.0962 -1.0187
  101OSM   H15G10261   4.743   4.518   8.987  1.6357  2.1641  0.1619
  101OSM   C16F10262   4.905   4.448   8.882 -0.4198  0.4977 -0.7305
  101OSM   H16F10263   4.997   4.390   8.908 -0.0286  2.2082  1.8383
  101OSM   H16G10264   4.932   4.540   8.826 -2.1435  2.5225  1.6851
  101OSM   C17F10265   4.825   4.368   8.777  0.5231  0.2980  0.5590
  101OSM   H17F10266   4.723   4.407   8.761  0.4815  0.0182  0.1301
  101OSM   H17G10267   4.798   4.269   8.821 -2.3342 -0.6592 -3.0349
  101OSM   C18F10268   4.901   4.357   8.643  0.9636  0.1641  0.5548
  101OSM   H18F10269   4.988   4.289   8.643 -1.1184 -2.6055 -0.2312
  101OSM   H18G10270   4.932   4.456   8.603  0.5773 -0.5797 -1.6561
  101OSM   H18H10271   4.838   4.318   8.559  3.9208 -3.4055 -0.1097
  102OSM      N10272   5.118   3.334  10.703  0.5056  0.2537 -0.0320
  102OSM    C1510273   5.242   3.262  10.743 -0.2023 -0.3930 -0.8132
  102OSM   H15A10274   5.224   3.180  10.812 -1.0071  1.7677  1.6124
  102OSM   H15B10275   5.317   3.328  10.783  1.0447 -1.1261 -1.8905
  102OSM   H15C10276   5.288   3.225  10.653 -0.9558  1.6808 -2.0679
  102OSM    C1410277   5.059   3.397  10.828 -0.1234 -0.6380  0.0625
  102OSM   H14A10278   5.078   3.333  10.913  1.1664  0.6723  0.7767
  102OSM   H14B10279   4.955   3.426  10.827  0.4838  1.7725  2.4932
  102OSM   H14C10280   5.111   3.489  10.849 -0.9843  0.0171 -0.6132
  102OSM    C1310281   5.148   3.457  10.623  0.0943 -0.0155  0.2545
  102OSM   H13A10282   5.070   3.528  10.597  0.2492  0.4005  0.9017
  102OSM   H13B10283   5.210   3.434  10.538  1.0427  0.8608  0.6893
  102OSM   H13C10284   5.218   3.522  10.674  0.6689 -0.6905  0.3346
  102OSM    C1210285   5.020   3.247  10.644 -0.9862  0.0596 -0.3303
  102OSM   H12A10286   4.987   3.184  10.725  2.8346 -2.5476 -0.6989
  102OSM   H12B10287   5.071   3.186  10.571 -0.7235 -0.4775  0.3038
  102OSM    C1110288   4.891   3.305  10.581 -0.3986 -0.2323 -0.8050
  102OSM   H11A10289   4.851   3.227  10.513  0.8555 -0.3790 -1.4073
  102OSM   H11B10290   4.910   3.395  10.518  3.1014 -2.3546 -2.9321
  102OSM      P10291   4.692   3.253  10.758 -0.2820 -0.5004  0.1708
  102OSM    O1310292   4.758   3.146  10.836  0.0735 -0.1091 -0.1797
  102OSM    O1410293   4.630   3.352  10.848 -0.0456 -0.5730  0.0832
  102OSM    O1110294   4.590   3.195  10.655 -0.1252  0.0285 -0.1437
  102OSM    O1210295   4.791   3.339  10.675 -0.1033  0.2299 -0.3323
  102OSM    C1S10296   4.504   3.267  10.575 -0.4619  0.2043  0.3817
  102OSM    H1S10297   4.541   3.371  10.563 -1.1770  0.1756 -2.4132
  102OSM    H1T10298   4.399   3.259  10.608 -0.0547  0.2981  1.7397
  102OSM     NF10299   4.443   3.320  10.341 -0.6311  0.0658 -0.4359
  102OSM    HNF10300   4.348   3.313  10.311 -0.2675 -1.2873 -1.2956
  102OSM    C2S10301   4.502   3.216  10.434  0.0685  0.5344 -0.2434
  102OSM    H2S10302   4.609   3.205  10.407 -0.5997  0.1678 -2.9525
  102OSM    C3S10303   4.424   3.077  10.441 -0.8115 -0.4635 -0.2406
  102OSM    H3S10304   4.327   3.115  10.481 -0.8761 -0.0056 -0.8378
  102OSM     O310305   4.460   2.996  10.554 -0.0906 -0.5452 -0.3377
  102OSM    HO310306   4.516   3.061  10.596 -1.5222  1.8094 -1.9799
  102OSM    C4S10307   4.426   3.011  10.304  0.2053 -0.1334 -0.0055
  102OSM    H4S10308   4.327   3.007  10.257 -0.9397  2.7079  2.0762
  102OSM    C5S10309   4.529   2.941  10.256  0.4865  0.5964 -0.3761
  102OSM    H5S10310   4.616   2.927  10.322  0.8659  0.9586 -0.7987
  102OSM    C6S10311   4.513   2.867  10.126 -0.1032 -0.0411  0.3748
  102OSM    H6S10312   4.502   2.757  10.141  1.1056 -0.1531  0.4943
  102OSM    H6T10313   4.613   2.857  10.077  0.6872  0.3988  1.8463
  102OSM    C7S10314   4.419   2.917  10.014 -0.3968 -1.0043 -0.5770
  102OSM    H7S10315   4.450   3.018   9.979  0.6947 -0.2972  2.3413
  102OSM    H7T10316   4.320   2.936  10.060 -0.8177 -0.3559 -1.7177
  102OSM    C8S10317   4.414   2.832   9.890 -0.6159 -0.4868  0.7407
  102OSM    H8S10318   4.347   2.745   9.907  0.3699 -1.8837 -2.1997
  102OSM    H8T10319   4.507   2.793   9.844  0.5568  0.5311  2.1656
  102OSM    C9S10320   4.355   2.908   9.764 -0.9308 -0.6998 -0.3857
  102OSM    H9S10321   4.392   3.011   9.744 -1.2879 -0.2692  1.1294
  102OSM    H9T10322   4.247   2.928   9.782 -0.4082  2.2976 -0.2629
  102OSM   C10S10323   4.363   2.816   9.640 -0.2696  0.1624 -0.1948
  102OSM   H10S10324   4.315   2.716   9.646  0.7758 -0.2842  1.0807
  102OSM   H10T10325   4.472   2.797   9.625 -0.8637 -3.7642 -0.1278
  102OSM   C11S10326   4.299   2.880   9.514  0.5571  0.2351  0.5266
  102OSM   H11S10327   4.339   2.981   9.494  1.4041 -0.6345 -2.3585
  102OSM   H11T10328   4.188   2.888   9.522  0.6616  0.6285  1.6596
  102OSM   C12S10329   4.335   2.795   9.388 -0.2321 -0.8331 -0.5610
  102OSM   H12S10330   4.313   2.688   9.409  0.9515 -1.0149 -0.2074
  102OSM   H12T10331   4.445   2.802   9.373  0.2198 -0.8629  2.4044
  102OSM   C13S10332   4.263   2.854   9.266  0.6986  0.1405  0.2301
  102OSM   H13S10333   4.297   2.959   9.260  0.8479  0.1452  1.1108
  102OSM   H13T10334   4.153   2.851   9.287  0.3367 -0.7251 -1.6665
  102OSM   C14S10335   4.297   2.786   9.131 -0.3782 -0.4493 -0.2405
  102OSM   H14S10336   4.272   2.678   9.136  0.1459 -0.4451  3.0889
  102OSM   H14T10337   4.408   2.777   9.125 -0.2817 -0.3041  1.2014
  102OSM   C15S10338   4.250   2.855   9.001 -0.0889  0.0655 -0.3025
  102OSM   H15S10339   4.305   2.950   8.981 -2.0079  0.9214 -1.7202
  102OSM   H15T10340   4.144   2.885   9.011 -0.0415 -0.2858  1.2085
  102OSM   C16S10341   4.271   2.762   8.882 -0.8076  0.4195 -0.7977
  102OSM   H16S10342   4.234   2.663   8.916 -1.6976  0.7147 -0.8877
  102OSM   H16T10343   4.381   2.748   8.871 -0.7377 -0.5756  1.0197
  102OSM   C17S10344   4.191   2.805   8.759  0.0451 -0.0559  0.4375
  102OSM   H17S10345   4.208   2.914   8.750 -2.4166  0.5068  2.2321
  102OSM   H17T10346   4.083   2.781   8.769  0.5425 -2.3380  0.5806
  102OSM   C18S10347   4.239   2.717   8.640  0.7479  0.0551 -0.1376
  102OSM   H18S10348   4.343   2.681   8.658  0.5536  0.2239  1.3909
  102OSM   H18T10349   4.223   2.772   8.545 -2.3247  2.2255  1.5371
  102OSM   H18U10350   4.170   2.630   8.642  1.1442 -0.3077 -1.6042
  102OSM    C1F10351   4.506   3.426  10.304 -0.2723  0.5752 -0.3785
  102OSM     OF10352   4.631   3.433  10.319  0.7120 -0.0108 -0.7256
  102OSM    C2F10353   4.423   3.531  10.237 -0.2721 -0.3006  0.6620
  102OSM    H2F10354   4.349   3.561  10.314 -1.0009  0.0714 -0.1797
  102OSM    H2G10355   4.379   3.482  10.147  1.2808 -2.1361  0.8568
  102OSM    C3F10356   4.507   3.657  10.199 -0.0161 -0.2542  0.0776
  102OSM    H3F10357   4.601   3.624  10.150 -0.6013 -1.0401 -0.5132
  102OSM    H3G10358   4.535   3.710  10.293  3.1211  1.9668 -2.0157
  102OSM    C4F10359   4.427   3.748  10.102 -0.2078 -0.8181 -0.4401
  102OSM    H4F10360   4.472   3.850  10.100 -3.7576  0.8287 -1.1549
  102OSM    H4G10361   4.320   3.758  10.130  0.1522 -1.6008  1.2603
  102OSM    C5F10362   4.437   3.692   9.956  0.3042  0.1775 -0.3470
  102OSM    H5F10363   4.362   3.611   9.944  0.7515 -0.5550  1.6368
  102OSM    H5G10364   4.537   3.649   9.936  1.1502  1.7401  0.4641
  102OSM    C6F10365   4.403   3.791   9.843 -0.1731  0.0307 -0.2380
  102OSM    H6F10366   4.461   3.886   9.852  0.9067 -0.5571 -0.8770
  102OSM    H6G10367   4.296   3.816   9.853 -0.7721 -3.2425  2.3379
  102OSM    C7F10368   4.435   3.731   9.707 -0.3571  0.3767  0.1302
  102OSM    H7F10369   4.405   3.624   9.714 -1.3193  0.7270  1.3462
  102OSM    H7G10370   4.546   3.736   9.704 -0.3938  0.4898 -2.7829
  102OSM    C8F10371   4.375   3.806   9.590  0.5207  0.3427  0.4585
  102OSM    H8F10372   4.402   3.773   9.487  2.9613 -0.1130  1.2048
  102OSM    H8G10373   4.395   3.915   9.600 -2.5004  0.8726  1.3391
  102OSM    C9F10374   4.225   3.790   9.597 -0.2268  0.0309 -0.4312
  102OSM    H9F10375   4.190   3.691   9.630  1.5773 -0.3799  0.3132
  102OSM   C10F10376   4.129   3.883   9.589  0.1828 -0.1183 -0.0437
  102OSM   H10F10377   4.024   3.853   9.597 -0.1771  1.4634  1.3200
  102OSM   C11F10378   4.161   4.026   9.545  0.6769  0.9065  1.2109
  102OSM   H11F10379   4.228   4.079   9.616  3.1691 -1.7902  0.9827
  102OSM   H11G10380   4.066   4.082   9.527 -0.0371 -0.5957  0.1661
  102OSM   C12F10381   4.229   4.043   9.405  0.4652  0.1787 -0.9285
  102OSM   H12F10382   4.167   4.002   9.322 -0.9090  0.6957 -0.1893
  102OSM   H12G10383   4.326   3.989   9.406  0.7121  0.6337 -0.5611
  102OSM   C13F10384   4.261   4.192   9.386  0.1678 -0.2479  0.1624
  102OSM   H13F10385   4.307   4.232   9.479 -0.4749  0.0799  0.3399
  102OSM   H13G10386   4.162   4.240   9.375 -0.6797 -1.9539  0.1377
  102OSM   C14F10387   4.346   4.247   9.269  0.4215 -0.6700 -0.4296
  102OSM   H14F10388   4.311   4.218   9.167 -1.2074  0.3600 -0.1713
  102OSM   H14G10389   4.445   4.204   9.295  0.6480  1.2796  2.0748
  102OSM   C15F10390   4.357   4.401   9.279 -0.2289 -0.1880 -0.6422
  102OSM   H15F10391   4.378   4.433   9.384  1.7846  1.7177 -1.5804
  102OSM   H15G10392   4.257   4.438   9.248 -0.5348  1.1840  1.8324
  102OSM   C16F10393   4.460   4.474   9.187  1.2162 -0.0424  0.2537
  102OSM   H16F10394   4.564   4.446   9.214  1.2700  0.5647  0.7045
  102OSM   H16G10395   4.452   4.583   9.209  1.9864  0.0725 -0.0360
  102OSM   C17F10396   4.450   4.437   9.033 -0.1062 -0.9491 -0.5347
  102OSM   H17F10397   4.490   4.334   9.015  0.9084 -0.5082 -0.8544
  102OSM   H17G10398   4.517   4.510   8.982 -1.3140  0.1871 -0.4895
  102OSM   C18F10399   4.299   4.439   8.981 -0.0586  0.2053  0.2341
  102OSM   H18F10400   4.256   4.339   9.003 -1.0459  0.2575 -1.3945
  102OSM   H18G10401   4.301   4.456   8.872 -1.0307  0.8516  0.3025
  102OSM   H18H10402   4.240   4.519   9.032 -0.1763  1.6393 -2.1081
  103OSM      N10403   5.459   6.233  10.888  0.5750  0.3431 -0.4896
  103OSM    C1510404   5.506   6.372  10.883  1.0880  0.6235 -0.2938
  103OSM   H15A10405   5.597   6.384  10.941  1.2649 -0.4852 -0.3253
  103OSM   H15B10406   5.427   6.439  10.911  1.9217  1.2933  0.5133
  103OSM   H15C10407   5.537   6.401  10.784 -3.3771  2.2858 -1.2941
  103OSM    C1410408   5.424   6.206  11.027 -0.0154 -0.2298 -0.2323
  103OSM   H14A10409   5.355   6.277  11.071 -0.7754 -1.6106  0.8821
  103OSM   H14B10410   5.501   6.216  11.102 -0.3611 -2.0771  0.3986
  103OSM   H14C10411   5.401   6.101  11.038 -0.0944 -0.0983  1.0042
  103OSM    C1310412   5.335   6.218  10.805  0.0088  0.5351  0.2320
  103OSM   H13A10413   5.301   6.116  10.802  0.5124  0.3771 -0.2122
  103OSM   H13B10414   5.343   6.258  10.705 -0.9764 -1.8426 -0.8333
  103OSM   H13C10415   5.249   6.266  10.848 -0.6558 -2.3472  2.2725
  103OSM    C1210416   5.568   6.141  10.835 -0.7062 -0.2086  0.6188
  103OSM   H12A10417   5.648   6.150  10.907 -0.9512 -1.2616  1.0313
  103OSM   H12B10418   5.613   6.187  10.748  1.1719  0.9224  2.1173
  103OSM    C1110419   5.532   5.992  10.806  0.3845  0.6681  0.4376
  103OSM   H11A10420   5.615   5.929  10.769  0.2754  0.6497  0.2213
  103OSM   H11B10421   5.460   5.993  10.721  0.8602 -0.9973 -0.0062
  103OSM      P10422   5.449   5.771  10.931  0.4187  0.3503  0.1530
  103OSM    O1310423   5.570   5.700  10.986 -0.4531 -0.2927  0.0799
  103OSM    O1410424   5.324   5.738  11.000  0.0324 -1.0304 -0.0620
  103OSM    O1110425   5.439   5.746  10.779  0.2998  0.0900 -0.4710
  103OSM    O1210426   5.471   5.927  10.922 -0.4560 -0.3554  0.2254
  103OSM    C1S10427   5.310   5.755  10.711  0.5054  0.4351  0.8299
  103OSM    H1S10428   5.260   5.847  10.746 -0.7912 -0.5484  1.6129
  103OSM    H1T10429   5.239   5.673  10.736 -0.0895  0.1569 -1.6774
  103OSM     NF10430   5.199   5.780  10.492  0.3350 -0.0283  0.3101
  103OSM    HNF10431   5.174   5.701  10.435 -0.7301 -0.1653  0.9552
  103OSM    C2S10432   5.328   5.760  10.559 -0.5538  0.5751  0.4764
  103OSM    H2S10433   5.394   5.848  10.542 -1.4713  0.7582 -2.6015
  103OSM    C3S10434   5.402   5.640  10.496  0.4889  0.2219 -0.3902
  103OSM    H3S10435   5.347   5.550  10.531 -1.1216  0.4250 -2.3504
  103OSM     O310436   5.526   5.615  10.560 -0.0833  0.2611 -0.3573
  103OSM    HO310437   5.530   5.677  10.633 -2.6180  0.9347 -0.7532
  103OSM    C4S10438   5.419   5.639  10.347 -0.5514  0.7678 -0.0085
  103OSM    H4S10439   5.469   5.734  10.320  0.6285  0.0771 -0.3155
  103OSM    C5S10440   5.401   5.542  10.249  0.8659  0.1847  0.3777
  103OSM    H5S10441   5.364   5.442  10.275 -3.0316  1.7387  1.2496
  103OSM    C6S10442   5.428   5.566  10.100  0.0576 -0.1060 -0.0062
  103OSM    H6S10443   5.497   5.484  10.072 -1.3127 -1.2035 -0.2312
  103OSM    H6T10444   5.478   5.663  10.081  1.7275 -1.1580 -1.0333
  103OSM    C7S10445   5.294   5.562  10.018 -0.1757 -0.0349 -0.3805
  103OSM    H7S10446   5.226   5.645  10.048  0.8178  0.2523  1.0856
  103OSM    H7T10447   5.241   5.465  10.028  2.6696 -1.6721 -0.6000
  103OSM    C8S10448   5.336   5.588   9.877 -0.0525  0.5131  0.7023
  103OSM    H8S10449   5.394   5.505   9.830  2.6713  1.4245  2.3551
  103OSM    H8T10450   5.405   5.675   9.876  1.1778 -0.4365  1.5818
  103OSM    C9S10451   5.218   5.618   9.782 -1.1625  0.6109 -0.0785
  103OSM    H9S10452   5.157   5.704   9.817 -0.6323  0.3630  1.4971
  103OSM    H9T10453   5.162   5.525   9.760 -2.4642  1.3446  0.0639
  103OSM   C10S10454   5.264   5.655   9.645  0.0223  0.3753  0.3368
  103OSM   H10S10455   5.311   5.559   9.615  0.2549  0.7035 -0.3572
  103OSM   H10T10456   5.352   5.722   9.659  1.0346 -0.5871 -1.2786
  103OSM   C11S10457   5.154   5.696   9.556  0.3592  0.0603  0.3002
  103OSM   H11S10458   5.093   5.785   9.582  1.3198  0.5118  1.0270
  103OSM   H11T10459   5.097   5.601   9.546 -1.7673  0.9660  3.1289
  103OSM   C12S10460   5.202   5.727   9.414 -0.2872 -0.7506 -0.0337
  103OSM   H12S10461   5.289   5.663   9.387 -0.5656 -1.8327  1.5363
  103OSM   H12T10462   5.240   5.831   9.426 -1.5867 -0.4622  1.8207
  103OSM   C13S10463   5.088   5.711   9.314  0.3945  0.3408 -0.2759
  103OSM   H13S10464   5.003   5.778   9.338  0.6597  0.4952  0.2485
  103OSM   H13T10465   5.039   5.613   9.332  0.0748  0.8667  1.8857
  103OSM   C14S10466   5.132   5.719   9.169  0.0040  0.5102  0.0180
  103OSM   H14S10467   5.187   5.625   9.146  0.8853  1.3206 -1.2365
  103OSM   H14T10468   5.215   5.792   9.163 -0.5018  1.0907  0.0628
  103OSM   C15S10469   5.017   5.749   9.079  0.5517 -0.2437  0.5044
  103OSM   H15S10470   4.971   5.848   9.102 -0.5293 -0.4273 -0.7789
  103OSM   H15T10471   4.946   5.664   9.087 -0.3875  0.3920 -0.8982
  103OSM   C16S10472   5.053   5.745   8.930  0.6149 -0.2040 -0.3734
  103OSM   H16S10473   5.091   5.642   8.913 -1.2744 -1.1567  0.8601
  103OSM   H16T10474   5.137   5.811   8.901  0.0920 -0.2996 -2.1545
  103OSM   C17S10475   4.938   5.756   8.834  0.4139  0.1290  0.1121
  103OSM   H17S10476   4.873   5.846   8.834 -3.4106 -2.5005  0.3320
  103OSM   H17T10477   4.865   5.674   8.856  2.8869 -2.1414  0.0856
  103OSM   C18S10478   4.984   5.751   8.692  0.3513  0.6245 -0.1269
  103OSM   H18S10479   5.044   5.663   8.664 -1.0647 -0.6530  0.7727
  103OSM   H18T10480   5.056   5.834   8.676  1.0019  0.0990  0.0718
  103OSM   H18U10481   4.906   5.751   8.613 -0.2607  0.4600  0.4739
  103OSM    C1F10482   5.114   5.882  10.513 -0.1608 -0.1582 -0.6418
  103OSM     OF10483   5.141   5.982  10.578  0.3276 -0.5381  0.4724
  103OSM    C2F10484   4.975   5.862  10.460  0.1974 -0.3726 -0.0636
  103OSM    H2F10485   4.912   5.827  10.544  1.7320  0.2561  1.3910
  103OSM    H2G10486   4.969   5.783  10.382 -0.1368  0.8585 -1.3101
  103OSM    C3F10487   4.922   5.997  10.391 -0.0363  0.0614  0.4305
  103OSM    H3F10488   4.921   6.077  10.468 -1.1632  1.0891 -0.6433
  103OSM    H3G10489   4.815   5.980  10.366 -0.1845  0.9877  0.4195
  103OSM    C4F10490   4.994   6.049  10.274  0.0592 -0.4868  0.1363
  103OSM    H4F10491   5.101   6.060  10.302 -0.0892 -0.9622  0.9060
  103OSM    H4G10492   4.963   6.149  10.238  0.4665 -1.2641 -2.5262
  103OSM    C5F10493   4.989   5.948  10.161 -0.3943 -0.7646 -0.2184
  103OSM    H5F10494   4.880   5.934  10.146  0.0590 -2.0890 -2.4240
  103OSM    H5G10495   5.042   5.858  10.199  2.6233  1.5013  1.1589
  103OSM    C6F10496   5.038   5.991  10.019 -0.2076 -0.1309 -0.1187
  103OSM    H6F10497   4.982   6.079   9.982  1.6748  0.9142 -0.5297
  103OSM    H6G10498   5.008   5.910   9.949  1.1000 -0.8713  0.1496
  103OSM    C7F10499   5.188   6.018  10.018 -0.2458  0.5460 -0.0183
  103OSM    H7F10500   5.233   5.920  10.046 -0.6091 -0.3198 -2.3085
  103OSM    H7G10501   5.215   6.096  10.092  3.0548 -1.4516  1.0248
  103OSM    C8F10502   5.244   6.065   9.888  0.3184  0.0791 -0.0016
  103OSM    H8F10503   5.196   6.163   9.872  0.9479  0.7444  1.9622
  103OSM    H8G10504   5.217   5.999   9.803 -1.3674  0.7162  0.0284
  103OSM    C9F10505   5.389   6.104   9.892 -0.0080  0.3073 -0.5554
  103OSM    H9F10506   5.422   6.153   9.985 -0.6378  1.4468 -0.9148
  103OSM   C10F10507   5.478   6.086   9.790  0.3604  0.0179 -0.3679
  103OSM   H10F10508   5.580   6.120   9.814  0.6292 -0.1413 -1.2616
  103OSM   C11F10509   5.457   6.033   9.644 -1.0040 -0.9193 -0.6473
  103OSM   H11F10510   5.350   6.036   9.617 -1.4932 -1.4794  1.1047
  103OSM   H11G10511   5.490   5.927   9.649  0.2629 -0.5016  0.0882
  103OSM   C12F10512   5.551   6.091   9.543  0.2016 -0.1955 -0.1641
  103OSM   H12F10513   5.652   6.113   9.583 -0.8986  1.2785  1.8746
  103OSM   H12G10514   5.501   6.187   9.515 -0.1940 -0.4432 -0.3057
  103OSM   C13F10515   5.553   6.010   9.413  0.0964  0.1472 -0.0356
  103OSM   H13F10516   5.625   5.927   9.431 -0.5420 -0.5778 -0.7685
  103OSM   H13G10517   5.450   5.970   9.401 -0.1989  0.8754  0.0729
  103OSM   C14F10518   5.590   6.097   9.291 -0.2942 -0.5807 -0.8739
  103OSM   H14F10519   5.699   6.117   9.298 -0.3673 -0.8602  1.2173
  103OSM   H14G10520   5.542   6.197   9.287  0.7186 -0.0043  0.8701
  103OSM   C15F10521   5.565   6.023   9.158  0.4700  0.0530 -0.1342
  103OSM   H15F10522   5.457   6.008   9.140  0.7157 -1.5098 -0.3605
  103OSM   H15G10523   5.618   5.926   9.144 -1.6632 -1.0957 -0.3573
  103OSM   C16F10524   5.606   6.113   9.031  0.2886 -0.7158  0.2751
  103OSM   H16F10525   5.711   6.120   9.066  0.2513  0.1463  0.2316
  103OSM   H16G10526   5.554   6.210   9.045 -0.0640 -0.6606 -1.3175
  103OSM   C17F10527   5.609   6.044   8.895 -0.3405 -0.5724 -0.0259
  103OSM   H17F10528   5.503   6.029   8.864 -1.2485 -0.8138  3.0640
  103OSM   H17G10529   5.667   5.950   8.910 -1.3635 -0.9367  1.8018
  103OSM   C18F10530   5.685   6.137   8.798 -0.1457  0.0108 -0.2428
  103OSM   H18F10531   5.622   6.226   8.774  2.2469  1.9879  0.5863
  103OSM   H18G10532   5.698   6.069   8.711  1.8948 -1.7769  1.4159
  103OSM   H18H10533   5.789   6.158   8.832 -0.8786  1.5231  1.1676
  104OSM      N10534   2.935   5.663  11.070 -0.5840  0.3493 -0.7522
  104OSM    C1510535   2.823   5.678  10.967  0.0944  0.0432 -0.0295
  104OSM   H15A10536   2.743   5.730  11.017  1.5678  1.0615  1.3037
  104OSM   H15B10537   2.784   5.583  10.932  0.7047 -0.4268  0.5675
  104OSM   H15C10538   2.861   5.741  10.888 -0.2438  1.9061  1.2650
  104OSM    C1410539   2.946   5.792  11.149  1.1310 -0.5405  0.0438
  104OSM   H14A10540   2.982   5.781  11.250 -3.4356 -1.7044  1.6752
  104OSM   H14B10541   2.850   5.832  11.177  1.6867  1.4804 -0.8072
  104OSM   H14C10542   2.996   5.871  11.094  0.3776  1.5618  2.2771
  104OSM    C1310543   2.896   5.558  11.162 -0.5818  0.2556  0.2889
  104OSM   H13A10544   2.800   5.577  11.207 -0.6816  0.8261 -0.1568
  104OSM   H13B10545   2.972   5.549  11.239  1.5210  3.4970 -1.3036
  104OSM   H13C10546   2.884   5.464  11.110 -0.1514  0.5875 -0.4191
  104OSM    C1210547   3.075   5.635  11.006  0.4173  0.7004 -0.0638
  104OSM   H12A10548   3.140   5.592  11.080  1.1925 -3.0166 -2.7617
  104OSM   H12B10549   3.116   5.722  10.956 -0.7439  1.2948  0.0012
  104OSM    C1110550   3.065   5.522  10.894 -0.3868  0.0603  0.1714
  104OSM   H11A10551   3.011   5.432  10.932 -2.6594  1.7723  1.1140
  104OSM   H11B10552   3.169   5.491  10.872 -1.1412 -1.0371 -1.9820
  104OSM      P10553   2.973   5.450  10.657  0.2273 -0.2636 -0.3886
  104OSM    O1310554   3.089   5.460  10.567 -0.5664  0.0757 -0.3099
  104OSM    O1410555   2.938   5.318  10.712 -0.7458  0.1863  0.1324
  104OSM    O1110556   2.855   5.497  10.575  0.0142 -0.1530  0.8798
  104OSM    O1210557   2.989   5.560  10.778  0.1403  0.0990  0.4299
  104OSM    C1S10558   2.831   5.627  10.523  0.2445  0.0550 -0.2370
  104OSM    H1S10559   2.868   5.696  10.602 -0.4722 -1.0193  1.0466
  104OSM    H1T10560   2.722   5.643  10.519  0.1964 -0.2605 -0.1838
  104OSM     NF10561   2.876   5.809  10.349  0.8808 -0.2577  0.2108
  104OSM    HNF10562   2.787   5.845  10.320  1.8916  0.1842 -2.4358
  104OSM    C2S10563   2.884   5.662  10.377 -0.0557  0.3503  0.7451
  104OSM    H2S10564   2.990   5.632  10.373 -0.3555 -0.8510  1.4778
  104OSM    C3S10565   2.817   5.566  10.278 -0.5062 -0.1280  0.4045
  104OSM    H3S10566   2.708   5.588  10.280 -0.4083  0.3713  0.2879
  104OSM     O310567   2.820   5.425  10.309  0.1228  0.9377  0.0100
  104OSM    HO310568   2.862   5.409  10.395  1.2306 -1.8589 -0.9888
  104OSM    C4S10569   2.884   5.584  10.141 -0.2392  0.2716  0.3541
  104OSM    H4S10570   2.990   5.556  10.138 -0.7316 -1.4682 -1.3399
  104OSM    C5S10571   2.814   5.630  10.036  0.2031 -0.0022  0.8384
  104OSM    H5S10572   2.704   5.633  10.039  0.1399  2.1410 -1.3996
  104OSM    C6S10573   2.882   5.656   9.900  0.1953 -0.4104  0.9036
  104OSM    H6S10574   2.990   5.629   9.898  0.8207  2.0223  0.1493
  104OSM    H6T10575   2.882   5.767   9.894 -0.6440 -0.5600 -3.0854
  104OSM    C7S10576   2.814   5.606   9.774 -0.4479 -0.6245  0.0849
  104OSM    H7S10577   2.708   5.640   9.777 -0.7446 -1.5181 -0.1981
  104OSM    H7T10578   2.804   5.496   9.772 -0.7399 -0.6593  2.0407
  104OSM    C8S10579   2.871   5.661   9.638  0.2054  0.2148 -0.5484
  104OSM    H8S10580   2.956   5.593   9.618  1.0665  0.7681  1.1795
  104OSM    H8T10581   2.924   5.757   9.656  0.5767 -0.0672 -0.1256
  104OSM    C9S10582   2.776   5.646   9.522 -0.2421 -0.0874  0.3417
  104OSM    H9S10583   2.712   5.737   9.523  1.3744  1.0722  0.9312
  104OSM    H9T10584   2.710   5.557   9.533  0.0086 -0.3649 -0.3740
  104OSM   C10S10585   2.855   5.646   9.390  0.1892  0.4935 -0.2561
  104OSM   H10S10586   2.919   5.556   9.381  1.1515  1.2376 -0.9365
  104OSM   H10T10587   2.916   5.738   9.380  2.5644 -0.9804  0.2772
  104OSM   C11S10588   2.764   5.649   9.264  0.4694 -0.7915  0.6081
  104OSM   H11S10589   2.706   5.744   9.274 -1.0017 -1.7010  0.9699
  104OSM   H11T10590   2.688   5.568   9.267 -0.4483  0.0542  0.3799
  104OSM   C12S10591   2.841   5.624   9.132 -0.3769 -0.1465 -0.8340
  104OSM   H12S10592   2.891   5.526   9.149  3.3283  1.7193 -0.6475
  104OSM   H12T10593   2.919   5.702   9.122  0.5317 -1.1411 -1.6068
  104OSM   C13S10594   2.731   5.615   9.017 -0.0121 -0.0064 -0.1150
  104OSM   H13S10595   2.699   5.716   8.985  1.9356  1.5492  2.5538
  104OSM   H13T10596   2.641   5.556   9.046  1.9313 -2.7629  0.5406
  104OSM   C14S10597   2.791   5.552   8.900 -0.3175 -0.2109  0.0582
  104OSM   H14S10598   2.808   5.443   8.910  0.1699  0.0557  2.4865
  104OSM   H14T10599   2.891   5.598   8.885 -0.2164  0.5811  2.9294
  104OSM   C15S10600   2.699   5.577   8.778  0.4502  0.7682 -0.0760
  104OSM   H15S10601   2.763   5.585   8.688  0.5087  0.2281 -0.0830
  104OSM   H15T10602   2.661   5.681   8.784  1.4540  1.0619  1.3020
  104OSM   C16S10603   2.584   5.474   8.760 -0.4082 -0.1655  0.8184
  104OSM   H16S10604   2.526   5.481   8.855 -0.4470 -2.4374  1.0006
  104OSM   H16T10605   2.623   5.370   8.764  0.3225  0.0926  0.4408
  104OSM   C17S10606   2.495   5.489   8.640 -0.5009  0.0858 -0.3040
  104OSM   H17S10607   2.558   5.470   8.551  0.8619  2.1338  0.1909
  104OSM   H17T10608   2.461   5.594   8.632  1.3442  1.0818  3.7047
  104OSM   C18S10609   2.389   5.374   8.635  0.2438  0.2299 -0.7542
  104OSM   H18S10610   2.313   5.402   8.711 -1.2288 -3.0650 -0.9632
  104OSM   H18T10611   2.435   5.279   8.669 -0.1976  0.3470  0.1940
  104OSM   H18U10612   2.346   5.377   8.533 -0.2017  0.2685 -0.5640
  104OSM    C1F10613   2.958   5.892  10.411  0.1770 -0.2423 -0.1676
  104OSM     OF10614   3.043   5.849  10.489  0.3053 -0.4095  0.0476
  104OSM    C2F10615   2.952   6.032  10.369 -0.1189 -0.4498 -1.1487
  104OSM    H2F10616   2.959   6.091  10.463  2.1020 -0.3180 -1.3863
  104OSM    H2G10617   2.857   6.057  10.317 -1.0186  2.1170  1.5936
  104OSM    C3F10618   3.085   6.082  10.305 -0.0099 -0.2016  0.0059
  104OSM    H3F10619   3.171   6.043  10.364 -0.5486 -0.8587  0.3659
  104OSM    H3G10620   3.082   6.193  10.309 -0.9811 -0.2146 -0.2108
  104OSM    C4F10621   3.107   6.027  10.159 -0.1061 -0.3461  0.1228
  104OSM    H4F10622   3.104   5.916  10.164 -1.9437 -0.3193 -0.0810
  104OSM    H4G10623   3.206   6.060  10.120 -0.1873  1.9149  1.7584
  104OSM    C5F10624   2.996   6.070  10.064  0.5423  0.0518 -0.0834
  104OSM    H5F10625   2.894   6.033  10.090  0.1546  0.8818 -0.3850
  104OSM    H5G10626   3.013   6.016   9.968  0.3894 -0.2707  0.0679
  104OSM    C6F10627   2.987   6.218  10.034 -0.1262 -0.1152  0.4530
  104OSM    H6F10628   3.091   6.257  10.037 -0.1117 -0.2440  2.0487
  104OSM    H6G10629   2.918   6.251  10.115 -2.7920  1.6026 -2.3882
  104OSM    C7F10630   2.918   6.244   9.901 -0.0008 -0.2561  0.4556
  104OSM    H7F10631   2.861   6.339   9.903 -0.3523 -0.4104 -1.2303
  104OSM    H7G10632   2.839   6.168   9.885 -0.9628  0.3391  2.2688
  104OSM    C8F10633   3.023   6.260   9.788 -0.0653  0.4319  0.4416
  104OSM    H8F10634   3.121   6.293   9.829  0.2014 -1.4980  1.4239
  104OSM    H8G10635   2.997   6.344   9.720 -2.4733 -1.2384 -0.7832
  104OSM    C9F10636   3.038   6.130   9.709 -0.0413  0.7100 -0.4544
  104OSM    H9F10637   3.115   6.060   9.743  0.0648  0.6404 -0.8396
  104OSM   C10F10638   2.975   6.101   9.595 -0.0437  0.0667  0.1986
  104OSM   H10F10639   2.996   6.008   9.541  0.9625 -0.1189  0.8869
  104OSM   C11F10640   2.883   6.191   9.522 -0.2749  0.5388 -0.0633
  104OSM   H11F10641   2.893   6.298   9.548 -1.8680  0.8033 -0.5051
  104OSM   H11G10642   2.781   6.152   9.542  0.1850 -0.2372  0.8294
  104OSM   C12F10643   2.900   6.191   9.367  0.3169 -0.0656 -0.2311
  104OSM   H12F10644   3.005   6.208   9.334  0.5925 -0.2263  0.5539
  104OSM   H12G10645   2.845   6.276   9.322 -0.2045  0.7515  1.8799
  104OSM   C13F10646   2.843   6.059   9.302 -0.6492  0.6656 -0.0493
  104OSM   H13F10647   2.745   6.023   9.341  0.3690 -0.1480  1.7758
  104OSM   H13G10648   2.906   5.978   9.344  0.7638  2.1763  0.7836
  104OSM   C14F10649   2.862   6.053   9.154 -0.3187 -0.3021 -0.3388
  104OSM   H14F10650   2.865   5.946   9.127  1.5287 -0.2956 -0.1700
  104OSM   H14G10651   2.960   6.104   9.143 -1.4667  2.2131  0.5909
  104OSM   C15F10652   2.749   6.124   9.071 -0.6853  0.0781  0.6711
  104OSM   H15F10653   2.740   6.230   9.104 -0.0449  1.0249 -2.0950
  104OSM   H15G10654   2.648   6.079   9.076 -1.1402  0.9399 -0.6589
  104OSM   C16F10655   2.789   6.132   8.921  0.4958  0.7034  0.1100
  104OSM   H16F10656   2.873   6.203   8.903  2.0846 -1.0592  0.4943
  104OSM   H16G10657   2.702   6.184   8.876 -0.8285  1.0770  3.0069
  104OSM   C17F10658   2.820   6.001   8.848  0.3359  0.0019  0.7712
  104OSM   H17F10659   2.729   5.945   8.880  0.4228 -0.4355  0.2525
  104OSM   H17G10660   2.906   5.953   8.899  0.5285 -0.6166 -0.1302
  104OSM   C18F10661   2.831   6.001   8.698  0.2254  0.1874 -0.8979
  104OSM   H18F10662   2.853   5.899   8.658  2.0780 -0.3547  1.4154
  104OSM   H18G10663   2.918   6.065   8.673  0.4274  1.1579  2.1323
  104OSM   H18H10664   2.740   6.038   8.646  2.1064  3.1589 -2.2389
  105OSM      N10665   2.237   5.124  10.773  1.2017  0.4871  0.6205
  105OSM    C1510666   2.255   5.274  10.790 -0.7152 -0.6898  0.9285
  105OSM   H15A10667   2.228   5.322  10.697  2.5015 -0.6746 -0.0370
  105OSM   H15B10668   2.357   5.298  10.816 -0.1969 -1.9178  0.0840
  105OSM   H15C10669   2.177   5.300  10.860 -2.8353 -2.5722 -0.6631
  105OSM    C1410670   2.293   5.059  10.901 -0.2897  0.2250 -0.0322
  105OSM   H14A10671   2.274   4.953  10.895  1.4392 -0.1534  0.8837
  105OSM   H14B10672   2.235   5.100  10.982 -1.3753 -2.7427  0.7602
  105OSM   H14C10673   2.400   5.074  10.907  0.2558 -2.9952 -0.8407
  105OSM    C1310674   2.096   5.095  10.750 -0.2158 -0.3554 -0.7312
  105OSM   H13A10675   2.085   4.989  10.732  5.4710 -0.8067 -2.6029
  105OSM   H13B10676   2.049   5.158  10.676 -0.1224  0.6355  0.0422
  105OSM   H13C10677   2.044   5.106  10.844 -1.3710 -0.2609 -1.3713
  105OSM    C1210678   2.316   5.078  10.653 -0.5200 -0.5354 -0.9285
  105OSM   H12A10679   2.268   5.128  10.570  2.8201  1.0906 -1.9667
  105OSM   H12B10680   2.318   4.970  10.640 -0.2892 -0.5520 -0.7614
  105OSM    C1110681   2.465   5.118  10.644  0.3281  0.0007  0.1119
  105OSM   H11A10682   2.487   5.219  10.683 -0.8837  0.0362  0.7519
  105OSM   H11B10683   2.491   5.141  10.539  0.4719  3.6523  0.9009
  105OSM      P10684   2.586   4.890  10.633  0.1643  0.3388 -0.1523
  105OSM    O1310685   2.683   4.823  10.721 -0.1317  1.0211 -0.1786
  105OSM    O1410686   2.461   4.818  10.615 -0.1113 -0.1358  0.1698
  105OSM    O1110687   2.652   4.921  10.491  1.0387  0.6069  0.2222
  105OSM    O1210688   2.568   5.032  10.695 -0.6251 -0.0172  0.1277
  105OSM    C1S10689   2.765   5.003  10.477 -0.5882  0.4352 -0.2261
  105OSM    H1S10690   2.851   4.937  10.500 -1.0075  0.6078  1.9548
  105OSM    H1T10691   2.773   5.080  10.557  1.0702  1.0643 -0.9757
  105OSM     NF10692   2.885   5.143  10.313  0.9867  0.3946 -0.3822
  105OSM    HNF10693   2.872   5.237  10.285  0.1024  0.1927 -0.6794
  105OSM    C2S10694   2.771   5.054  10.324 -0.1352  0.2392 -0.9589
  105OSM    H2S10695   2.797   4.964  10.265 -1.4826 -1.1145  0.4362
  105OSM    C3S10696   2.634   5.106  10.275 -0.1801  0.3591 -0.1465
  105OSM    H3S10697   2.616   5.203  10.326  0.1739  0.6073 -0.4852
  105OSM     O310698   2.530   5.015  10.302 -0.2789 -0.4610  0.1671
  105OSM    HO310699   2.555   4.979  10.388 -1.6965  0.4885  1.0114
  105OSM    C4S10700   2.635   5.124  10.130 -0.0331 -0.2411 -0.0186
  105OSM    H4S10701   2.658   5.031  10.074  1.4444  0.6272 -0.8883
  105OSM    C5S10702   2.603   5.233  10.054  0.0463 -0.1507 -0.0833
  105OSM    H5S10703   2.575   5.329  10.101  1.7288  0.5785 -0.5718
  105OSM    C6S10704   2.597   5.241   9.908  0.2664  0.5626 -0.3460
  105OSM    H6S10705   2.676   5.314   9.881  1.1258 -0.2943 -0.1758
  105OSM    H6T10706   2.499   5.283   9.876 -0.2588 -0.4942 -0.1617
  105OSM    C7S10707   2.618   5.115   9.813  0.6437  0.8358 -0.0004
  105OSM    H7S10708   2.540   5.041   9.841 -0.5297  1.3687 -1.7531
  105OSM    H7T10709   2.718   5.075   9.839  0.3573 -0.3608 -0.6451
  105OSM    C8S10710   2.597   5.147   9.668  0.1404  0.1370  1.2796
  105OSM    H8S10711   2.497   5.194   9.656 -0.3384 -0.0198  4.2114
  105OSM    H8T10712   2.596   5.057   9.603 -1.3782  0.2862  1.0743
  105OSM    C9S10713   2.706   5.244   9.614  0.1732 -0.1439  0.1405
  105OSM    H9S10714   2.797   5.204   9.665  1.2312 -0.1343 -1.7066
  105OSM    H9T10715   2.693   5.349   9.648 -0.5130 -0.5161  1.0513
  105OSM   C10S10716   2.725   5.229   9.457  0.1027  0.0705  0.2426
  105OSM   H10S10717   2.769   5.130   9.433 -0.5909  0.2259 -1.7861
  105OSM   H10T10718   2.806   5.304   9.441  1.3590 -1.6089 -1.4272
  105OSM   C11S10719   2.596   5.255   9.379  0.4541 -0.4050 -0.2188
  105OSM   H11S10720   2.559   5.351   9.419 -1.9921 -1.5164  0.2384
  105OSM   H11T10721   2.520   5.180   9.409 -1.1842  1.2688 -0.1307
  105OSM   C12S10722   2.624   5.264   9.228  0.6619 -0.3072 -0.3453
  105OSM   H12S10723   2.733   5.286   9.220  1.2702 -2.6627  1.0080
  105OSM   H12T10724   2.559   5.347   9.194  2.4379  0.3184 -2.3333
  105OSM   C13S10725   2.571   5.146   9.152  0.4080 -0.1534  0.5227
  105OSM   H13S10726   2.462   5.127   9.169 -0.1172  1.6249 -0.7721
  105OSM   H13T10727   2.635   5.058   9.176  0.1417 -0.7995 -1.0826
  105OSM   C14S10728   2.599   5.177   9.000  0.6003  0.2030  0.4234
  105OSM   H14S10729   2.710   5.179   8.989  0.9931 -1.2367  3.6015
  105OSM   H14T10730   2.564   5.279   8.972  1.2191 -0.2584 -2.1546
  105OSM   C15S10731   2.544   5.064   8.911 -0.4013 -0.1475 -0.1756
  105OSM   H15S10732   2.594   4.967   8.928  1.3990  0.9382  0.7728
  105OSM   H15T10733   2.568   5.094   8.807  0.8371  1.6868  0.6097
  105OSM   C16S10734   2.390   5.053   8.908  0.4897 -0.2000  0.4211
  105OSM   H16S10735   2.343   5.153   8.905 -1.3957 -1.0496  0.8752
  105OSM   H16T10736   2.360   5.012   9.007  1.8808 -0.5246  0.7199
  105OSM   C17S10737   2.333   4.977   8.790 -0.0172 -0.2752 -0.7305
  105OSM   H17S10738   2.364   4.870   8.787 -2.2478 -0.9105 -3.8265
  105OSM   H17T10739   2.354   5.036   8.698  2.6919 -1.7664 -1.1196
  105OSM   C18S10740   2.176   4.966   8.797 -0.7677  0.4587 -0.2754
  105OSM   H18S10741   2.131   5.065   8.815 -0.1095  0.1749  3.2932
  105OSM   H18T10742   2.146   4.898   8.880 -2.6839  1.3178 -0.2341
  105OSM   H18U10743   2.151   4.925   8.696  1.5371  1.4829 -1.2923
  105OSM    C1F10744   3.011   5.100  10.333 -0.4039 -0.1386  0.1091
  105OSM     OF10745   3.052   4.983  10.329 -0.1099 -0.0197  0.1752
  105OSM    C2F10746   3.111   5.219  10.338  0.6356 -0.4539  0.2595
  105OSM    H2F10747   3.174   5.204  10.428  0.2863 -1.7474  0.2966
  105OSM    H2G10748   3.041   5.300  10.368  0.6883 -0.5904  0.7541
  105OSM    C3F10749   3.186   5.258  10.204 -0.3032 -0.4094 -0.6658
  105OSM    H3F10750   3.273   5.189  10.198 -0.0697 -0.0738 -1.2165
  105OSM    H3G10751   3.234   5.354  10.230 -1.4503  0.7304 -2.6450
  105OSM    C4F10752   3.097   5.262  10.084 -0.2480  0.2895  1.1787
  105OSM    H4F10753   3.001   5.312  10.109 -1.3482 -0.8221 -0.6282
  105OSM    H4G10754   3.069   5.156  10.065  2.1178  0.0050 -0.9686
  105OSM    C5F10755   3.153   5.334   9.957 -0.6630 -0.4060  0.8811
  105OSM    H5F10756   3.260   5.304   9.963 -0.0057  1.9042  1.5690
  105OSM    H5G10757   3.157   5.442   9.983 -1.9814 -0.0507 -0.3507
  105OSM    C6F10758   3.077   5.304   9.830 -0.2543 -0.2551  0.1889
  105OSM    H6F10759   2.978   5.355   9.833 -0.1212  0.2589 -2.2881
  105OSM    H6G10760   3.068   5.194   9.815 -2.9669  0.1613 -1.7716
  105OSM    C7F10761   3.149   5.364   9.713 -0.0675  0.4317  0.5260
  105OSM    H7F10762   3.258   5.340   9.713 -0.2518 -0.5463 -1.5917
  105OSM    H7G10763   3.151   5.474   9.721  3.2169  0.3012  2.1519
  105OSM    C8F10764   3.083   5.331   9.580 -0.1087 -0.0668  0.6074
  105OSM    H8F10765   2.973   5.337   9.597  0.1721 -2.5599  3.8512
  105OSM    H8G10766   3.101   5.224   9.559  1.1927 -0.3125  2.9092
  105OSM    C9F10767   3.129   5.411   9.461 -0.0310 -0.2076  0.5268
  105OSM    H9F10768   3.153   5.517   9.475  1.3553 -0.3818 -0.5161
  105OSM   C10F10769   3.126   5.363   9.331  0.0387  0.5503 -0.2971
  105OSM   H10F10770   3.160   5.437   9.257  0.8020 -0.7663 -1.2828
  105OSM   C11F10771   3.069   5.227   9.291 -0.3081 -0.0901  0.3092
  105OSM   H11F10772   2.992   5.191   9.363 -2.0626  1.9183 -0.4777
  105OSM   H11G10773   3.151   5.152   9.293 -0.2872 -0.2523 -3.5500
  105OSM   C12F10774   3.007   5.222   9.152  0.1329  0.7385 -0.0116
  105OSM   H12F10775   2.920   5.288   9.132 -1.0510 -0.5827  0.7004
  105OSM   H12G10776   2.958   5.123   9.142 -2.0011  1.7136  0.5264
  105OSM   C13F10777   3.116   5.238   9.039 -0.9338 -0.0842  0.9785
  105OSM   H13F10778   3.194   5.159   9.040 -1.7035 -0.8946 -0.4131
  105OSM   H13G10779   3.168   5.334   9.054 -0.6922 -0.2210  1.0094
  105OSM   C14F10780   3.047   5.237   8.907 -0.5635 -0.3268  0.1506
  105OSM   H14F10781   3.108   5.286   8.828 -4.0796  0.7449 -2.0066
  105OSM   H14G10782   2.946   5.281   8.923 -0.2920  0.3763 -0.0909
  105OSM   C15F10783   3.037   5.095   8.853  0.1226  0.2764 -0.4621
  105OSM   H15F10784   2.966   5.045   8.922 -0.8309  1.5223 -0.5180
  105OSM   H15G10785   3.134   5.041   8.846  1.3066  2.3949 -0.9851
  105OSM   C16F10786   2.968   5.099   8.710  0.0388 -0.1963  0.0488
  105OSM   H16F10787   3.029   5.144   8.629  1.3263 -1.8828  0.0431
  105OSM   H16G10788   2.873   5.157   8.715 -0.1433 -0.4057 -1.0186
  105OSM   C17F10789   2.946   4.954   8.657 -0.0169 -0.0361 -0.1290
  105OSM   H17F10790   3.042   4.900   8.667 -0.9857 -1.7357  0.2876
  105OSM   H17G10791   2.933   4.953   8.547  1.4970  1.6016 -0.3339
  105OSM   C18F10792   2.840   4.871   8.731  0.3804  1.3201 -1.0144
  105OSM   H18F10793   2.826   4.770   8.688 -2.6215  2.2480 -2.3614
  105OSM   H18G10794   2.747   4.931   8.731 -0.4823  0.0197 -2.3545
  105OSM   H18H10795   2.882   4.864   8.833  0.9093  1.3788 -1.2239
  106OSM      N10796   3.958   3.362  10.942 -0.3170 -0.0593  0.4355
  106OSM    C1510797   4.101   3.312  10.952 -0.4199  0.5822  0.0637
  106OSM   H15A10798   4.142   3.309  11.052 -2.7774  0.8525  1.0558
  106OSM   H15B10799   4.171   3.370  10.893  0.5224 -0.3631  0.2411
  106OSM   H15C10800   4.114   3.212  10.915 -0.6736  1.6228 -2.9716
  106OSM    C1410801   3.863   3.260  11.008 -0.4911 -0.1253 -0.3956
  106OSM   H14A10802   3.901   3.228  11.105 -1.9017  0.0568  0.2231
  106OSM   H14B10803   3.852   3.166  10.957 -0.7085  0.9765 -2.4117
  106OSM   H14C10804   3.764   3.301  11.018  0.3988  1.9727  0.1476
  106OSM    C1310805   3.949   3.484  11.024 -0.0826 -0.4976  0.8416
  106OSM   H13A10806   3.948   3.463  11.130 -0.0363  1.8047  1.3180
  106OSM   H13B10807   3.860   3.538  10.995  0.1602 -0.9160 -0.7412
  106OSM   H13C10808   4.034   3.549  11.007 -0.4193 -0.2676 -0.0132
  106OSM    C1210809   3.919   3.396  10.801  0.1655  0.2845  0.0354
  106OSM   H12A10810   3.813   3.379  10.789  0.1805 -1.4776  2.0418
  106OSM   H12B10811   3.958   3.325  10.730 -1.1677  0.6222 -1.0571
  106OSM    C1110812   3.955   3.529  10.740 -0.0195 -0.6841  0.7663
  106OSM   H11A10813   3.920   3.615  10.801  0.3147  1.7045 -2.3065
  106OSM   H11B10814   3.915   3.545  10.638 -0.7090 -0.6692  1.0372
  106OSM      P10815   4.184   3.553  10.606  0.0100  0.4117  0.2529
  106OSM    O1310816   4.127   3.660  10.529  0.2829  0.0439 -0.2197
  106OSM    O1410817   4.322   3.565  10.647 -0.2436 -0.3889  0.0584
  106OSM    O1110818   4.151   3.407  10.540 -0.5152  0.7390  0.0121
  106OSM    O1210819   4.096   3.543  10.740 -0.2780  0.8937 -0.7322
  106OSM    C1S10820   4.091   3.417  10.412 -0.0799  0.1650 -0.3220
  106OSM    H1S10821   4.151   3.473  10.337  1.2146 -2.2028 -1.1239
  106OSM    H1T10822   3.998   3.476  10.415 -0.2522 -0.1405  1.0099
  106OSM     NF10823   4.007   3.292  10.212  0.6030  0.1586  0.3472
  106OSM    HNF10824   3.911   3.293  10.184  0.8738 -2.1875 -0.7782
  106OSM    C2S10825   4.049   3.279  10.352  0.4809  0.7805 -0.0829
  106OSM    H2S10826   4.138   3.212  10.361 -2.3902 -3.0971  0.9914
  106OSM    C3S10827   3.957   3.211  10.447  1.2550  0.0873 -0.0423
  106OSM    H3S10828   3.862   3.268  10.442  1.5582  0.7002  1.1216
  106OSM     O310829   4.005   3.209  10.581  0.1677 -0.2133 -0.2478
  106OSM    HO310830   4.077   3.272  10.578 -1.6012  1.7797 -4.0161
  106OSM    C4S10831   3.938   3.063  10.403 -0.1405  0.7006 -0.3616
  106OSM    H4S10832   4.033   3.007  10.397  0.1161  0.9186  1.4276
  106OSM    C5S10833   3.808   3.017  10.387  0.2378 -0.2501 -0.3888
  106OSM    H5S10834   3.721   3.083  10.401 -0.4090 -1.5935  2.3316
  106OSM    C6S10835   3.769   2.879  10.351  0.1773 -0.9746  0.2563
  106OSM    H6S10836   3.695   2.849  10.427  1.4378  1.0606  2.3485
  106OSM    H6T10837   3.852   2.806  10.350  0.5493 -0.5526 -0.8516
  106OSM    C7S10838   3.700   2.872  10.204 -0.7359 -0.3103  0.0316
  106OSM    H7S10839   3.611   2.938  10.199  1.2602  2.2876 -2.8647
  106OSM    H7T10840   3.663   2.769  10.185  0.3036 -0.7204  0.2183
  106OSM    C8S10841   3.793   2.905  10.092  0.1041 -0.2992 -0.6315
  106OSM    H8S10842   3.892   2.862  10.118 -0.2942 -0.6429  0.3241
  106OSM    H8T10843   3.796   3.016  10.085 -1.3701 -0.1881  0.1640
  106OSM    C9S10844   3.745   2.862   9.957 -0.3521 -0.4751  0.2079
  106OSM    H9S10845   3.647   2.913   9.943 -0.6925 -1.0773  0.4008
  106OSM    H9T10846   3.751   2.754   9.935 -0.0494 -0.5764  0.8087
  106OSM   C10S10847   3.837   2.928   9.851  0.3724  0.5986  0.3268
  106OSM   H10S10848   3.939   2.887   9.863 -0.0501 -1.0089 -1.2941
  106OSM   H10T10849   3.843   3.037   9.867  0.2960  0.7395 -0.5500
  106OSM   C11S10850   3.780   2.894   9.715  0.1976  0.4757  0.7919
  106OSM   H11S10851   3.677   2.935   9.714 -0.5251 -1.2903  0.6246
  106OSM   H11T10852   3.779   2.785   9.696  1.2444  0.5187  0.4627
  106OSM   C12S10853   3.852   2.967   9.599 -0.2850  0.2399  0.3607
  106OSM   H12S10854   3.963   2.958   9.594 -0.3438 -1.2975  1.6563
  106OSM   H12T10855   3.829   3.076   9.596 -2.2357 -0.1955 -1.5145
  106OSM   C13S10856   3.808   2.923   9.457 -0.1823  0.2410 -0.8970
  106OSM   H13S10857   3.699   2.914   9.440  0.2622 -2.9162 -2.5081
  106OSM   H13T10858   3.842   2.818   9.448 -1.4881 -0.3296  0.6801
  106OSM   C14S10859   3.872   3.014   9.352 -0.1615 -0.0731  0.2529
  106OSM   H14S10860   3.983   3.017   9.355  0.0118 -1.9818 -2.9472
  106OSM   H14T10861   3.840   3.121   9.358  0.1078 -0.0292  1.0550
  106OSM   C15S10862   3.833   2.978   9.203 -0.8800  0.1387 -0.6101
  106OSM   H15S10863   3.722   2.986   9.201 -1.0900 -2.0200  0.5864
  106OSM   H15T10864   3.859   2.874   9.172 -0.3743 -0.4101  1.6247
  106OSM   C16S10865   3.904   3.067   9.104 -0.1313 -0.7431 -0.5523
  106OSM   H16S10866   4.012   3.042   9.117  0.5167  2.0303 -0.1401
  106OSM   H16T10867   3.878   3.174   9.118  0.6373 -0.3821 -1.7842
  106OSM   C17S10868   3.870   3.040   8.954  0.2793 -0.3286  0.8630
  106OSM   H17S10869   3.764   3.070   8.943  0.1919 -0.6469  0.8285
  106OSM   H17T10870   3.877   2.931   8.931 -0.6477  0.0423 -1.3040
  106OSM   C18S10871   3.961   3.127   8.864  0.0743  0.0372 -0.7559
  106OSM   H18S10872   3.976   3.096   8.758 -0.8699 -1.1038 -0.5633
  106OSM   H18T10873   4.063   3.147   8.903 -0.1679 -1.3107  0.6073
  106OSM   H18U10874   3.903   3.222   8.872  1.5791  0.8245  1.3860
  106OSM    C1F10875   4.101   3.300  10.119  0.3832 -0.2932 -0.7165
  106OSM     OF10876   4.217   3.277  10.150 -0.0004 -0.0691  0.5361
  106OSM    C2F10877   4.065   3.329   9.979  0.5868  0.2196  0.2042
  106OSM    H2F10878   4.091   3.431   9.944 -0.4259  0.0795 -1.0150
  106OSM    H2G10879   3.954   3.325   9.971  0.5592  1.9247 -0.5509
  106OSM    C3F10880   4.126   3.223   9.883  0.1102  0.2910  0.0431
  106OSM    H3F10881   4.058   3.135   9.887 -0.6868  0.8833 -0.3661
  106OSM    H3G10882   4.224   3.190   9.923  0.3503 -2.0921 -2.4329
  106OSM    C4F10883   4.140   3.270   9.738 -0.9132 -0.0109 -0.2028
  106OSM    H4F10884   4.160   3.177   9.682 -1.7058 -0.0965 -0.3448
  106OSM    H4G10885   4.232   3.333   9.729 -1.3036  0.5021 -0.6457
  106OSM    C5F10886   4.014   3.332   9.683 -0.7329 -0.4005 -0.1305
  106OSM    H5F10887   4.003   3.433   9.727  2.2746 -0.6213  1.1808
  106OSM    H5G10888   3.922   3.273   9.704 -1.1427  1.2430  2.8858
  106OSM    C6F10889   4.027   3.350   9.531 -0.9271  0.4572  0.1916
  106OSM    H6F10890   4.049   3.255   9.478  2.9023  0.6445  1.3004
  106OSM    H6G10891   4.109   3.417   9.498 -0.7609 -0.2795 -0.9353
  106OSM    C7F10892   3.906   3.417   9.471  0.0354  0.3714 -0.2361
  106OSM    H7F10893   3.849   3.482   9.540 -2.9518  0.5719 -2.7698
  106OSM    H7G10894   3.838   3.338   9.432  1.3206 -0.8874  0.0447
  106OSM    C8F10895   3.941   3.500   9.349 -0.1509 -0.1606  0.4671
  106OSM    H8F10896   4.008   3.583   9.381 -0.1993  0.0755 -0.0447
  106OSM    H8G10897   3.851   3.553   9.311 -1.0769  0.6507  3.6320
  106OSM    C9F10898   4.015   3.430   9.239  0.3789 -1.0564 -0.6932
  106OSM    H9F10899   4.020   3.321   9.258 -2.5788 -0.9670  0.8316
  106OSM   C10F10900   4.049   3.474   9.116  0.7613  0.2302  0.0374
  106OSM   H10F10901   4.093   3.400   9.048  0.3034 -0.2671  0.2859
  106OSM   C11F10902   4.032   3.612   9.053  0.0597 -0.7614  0.1222
  106OSM   H11F10903   3.955   3.680   9.094 -0.4648 -0.7780 -0.8087
  106OSM   H11G10904   3.995   3.606   8.948  1.2107 -1.7738 -0.2447
  106OSM   C12F10905   4.166   3.689   9.054  1.1381  0.4940  0.4517
  106OSM   H12F10906   4.248   3.632   9.005 -0.3785 -1.4817  0.1466
  106OSM   H12G10907   4.192   3.705   9.161  0.8571 -0.0708  0.6070
  106OSM   C13F10908   4.158   3.831   8.996 -0.6465 -0.1336  0.0530
  106OSM   H13F10909   4.077   3.888   9.046 -0.2512  2.2018 -1.9107
  106OSM   H13G10910   4.128   3.826   8.889  2.0567 -1.5471 -0.6857
  106OSM   C14F10911   4.291   3.912   9.023  0.0369  0.5770  0.4900
  106OSM   H14F10912   4.290   3.948   9.128 -0.1465 -0.1709  0.7481
  106OSM   H14G10913   4.277   4.004   8.962 -2.4411  1.8363  2.8302
  106OSM   C15F10914   4.423   3.847   8.978 -0.5640 -0.1317  0.4834
  106OSM   H15F10915   4.427   3.846   8.867 -2.9715 -2.4334  0.3829
  106OSM   H15G10916   4.433   3.745   9.021  1.7975  0.0381  0.4381
  106OSM   C16F10917   4.532   3.941   9.040  0.2134 -0.0333 -0.0036
  106OSM   H16F10918   4.525   3.946   9.151 -1.4335  1.5697 -0.1620
  106OSM   H16G10919   4.512   4.044   9.004  0.9904  0.1896  0.1783
  106OSM   C17F10920   4.678   3.910   9.006  0.0103  0.6822  0.1522
  106OSM   H17F10921   4.687   3.804   9.038 -0.4485  0.0403 -1.7612
  106OSM   H17G10922   4.740   3.988   9.055 -1.5237 -0.4193  4.0148
  106OSM   C18F10923   4.711   3.904   8.859  0.1519  0.1765 -0.1952
  106OSM   H18F10924   4.821   3.912   8.850  0.0998  0.3616 -0.7078
  106OSM   H18G10925   4.658   3.983   8.801  0.1514  0.2348 -0.1158
  106OSM   H18H10926   4.680   3.807   8.814  3.1925 -1.0699  0.3354
  107OSM      N10927   5.649   0.464  10.785  0.1392  0.1965  0.1687
  107OSM    C1510928   5.660   0.323  10.739  0.0375 -0.0387  0.0242
  107OSM   H15A10929   5.697   0.261  10.819 -0.8197 -0.1033  0.3735
  107OSM   H15B10930   5.732   0.315  10.659  0.5523  2.3021  0.2201
  107OSM   H15C10931   5.574   0.282  10.689  0.1242  1.1041 -1.0940
  107OSM    C1410932   5.769   0.507  10.841 -0.3088 -0.0007  0.3091
  107OSM   H14A10933   5.757   0.594  10.904 -0.7083  1.6517 -1.9699
  107OSM   H14B10934   5.844   0.535  10.769 -0.6130  0.9878  0.3558
  107OSM   H14C10935   5.807   0.432  10.909 -0.0633  0.0986  0.2843
  107OSM    C1310936   5.622   0.558  10.665 -0.1459 -0.1485 -0.1569
  107OSM   H13A10937   5.595   0.656  10.702  1.3319  0.9780 -1.9635
  107OSM   H13B10938   5.546   0.527  10.595 -0.0770 -0.6314 -0.0182
  107OSM   H13C10939   5.709   0.569  10.601  0.2810  1.2534  0.6229
  107OSM    C1210940   5.533   0.464  10.885 -0.8158  0.2740 -0.6007
  107OSM   H12A10941   5.564   0.397  10.964 -2.3778  0.9253  0.5914
  107OSM   H12B10942   5.446   0.419  10.839  0.6292 -0.0162 -3.1183
  107OSM    C1110943   5.498   0.601  10.954 -0.1199 -0.5264  1.0441
  107OSM   H11A10944   5.488   0.674  10.871  0.4909 -0.0109  1.4189
  107OSM   H11B10945   5.586   0.630  11.016  0.4477 -1.7582  0.8168
  107OSM      P10946   5.278   0.699  11.041  0.1839 -0.1866  0.2219
  107OSM    O1310947   5.164   0.653  11.122 -0.5754 -0.1282 -0.3275
  107OSM    O1410948   5.356   0.814  11.098 -0.6917 -0.1962 -0.5140
  107OSM    O1110949   5.236   0.729  10.888  0.6835 -0.4170  0.1917
  107OSM    O1210950   5.379   0.574  11.026  0.0978 -0.3958 -0.0862
  107OSM    C1S10951   5.188   0.610  10.816 -0.3380  0.5763 -0.0790
  107OSM    H1S10952   5.099   0.564  10.865 -0.0958  0.6681  0.4463
  107OSM    H1T10953   5.268   0.533  10.803 -2.5444 -2.0953  1.3974
  107OSM     NF10954   5.079   0.558  10.604  0.3706  0.2169 -0.4082
  107OSM    HNF10955   5.140   0.511  10.541  1.3241  1.5167 -0.4877
  107OSM    C2S10956   5.147   0.663  10.671 -0.1423 -0.2728 -0.4570
  107OSM    H2S10957   5.080   0.749  10.690 -0.7491 -1.0058  0.7794
  107OSM    C3S10958   5.285   0.718  10.609  0.1334  0.5620  0.1920
  107OSM    H3S10959   5.366   0.642  10.610 -0.7204 -0.3630  1.8830
  107OSM     O310960   5.355   0.820  10.680  0.1642 -0.2545 -0.5756
  107OSM    HO310961   5.321   0.821  10.769 -0.3056  2.9417 -0.7429
  107OSM    C4S10962   5.258   0.771  10.461 -1.3465 -0.0167  0.7933
  107OSM    H4S10963   5.268   0.694  10.383 -0.5972  1.4373 -0.5814
  107OSM    C5S10964   5.225   0.897  10.415  0.1994 -0.0688 -0.3235
  107OSM    H5S10965   5.217   0.979  10.488 -0.7937  0.1281 -0.6497
  107OSM    C6S10966   5.212   0.937  10.272  0.3910 -0.0351 -0.0623
  107OSM    H6S10967   5.260   1.036  10.252  3.0701 -1.3877 -0.5757
  107OSM    H6T10968   5.105   0.938  10.244  0.8575 -1.6957 -1.9713
  107OSM    C7S10969   5.278   0.837  10.171  0.1662  0.3632 -0.2585
  107OSM    H7S10970   5.224   0.740  10.166 -0.2996  0.6092 -0.0214
  107OSM    H7T10971   5.382   0.817  10.205 -0.4090 -2.0564  0.1690
  107OSM    C8S10972   5.301   0.895  10.026 -0.6994 -0.2820  0.4802
  107OSM    H8S10973   5.340   0.998  10.040 -2.1131  0.3152  0.0080
  107OSM    H8T10974   5.209   0.904   9.965 -1.4319 -0.6935  1.5117
  107OSM    C9S10975   5.400   0.807   9.952 -0.3797  0.0868  0.1953
  107OSM    H9S10976   5.361   0.706   9.929  0.7777 -0.1662 -0.7070
  107OSM    H9T10977   5.499   0.812  10.003 -0.7527 -0.9454  1.0440
  107OSM   C10S10978   5.429   0.873   9.814  0.2852 -0.8122 -0.7994
  107OSM   H10S10979   5.518   0.826   9.767  0.6289 -0.4201 -0.5377
  107OSM   H10T10980   5.453   0.980   9.831 -0.0982 -0.7243 -0.7978
  107OSM   C11S10981   5.320   0.869   9.708 -0.3846  0.3317  0.7288
  107OSM   H11S10982   5.233   0.935   9.731  0.1680  0.9346  1.1073
  107OSM   H11T10983   5.273   0.768   9.703  1.7223 -0.8305  3.0890
  107OSM   C12S10984   5.380   0.913   9.567  0.2792 -0.0391  0.1251
  107OSM   H12S10985   5.475   0.857   9.552  1.6492  2.9820 -3.0347
  107OSM   H12T10986   5.403   1.021   9.566 -0.7377  0.1854  0.1812
  107OSM   C13S10987   5.291   0.875   9.448  0.4024  0.0748 -0.0344
  107OSM   H13S10988   5.189   0.905   9.479 -0.2047 -0.7933 -1.1929
  107OSM   H13T10989   5.286   0.764   9.449  1.6490  0.0164  1.4204
  107OSM   C14S10990   5.329   0.929   9.309 -0.6725 -0.4727 -0.9079
  107OSM   H14S10991   5.439   0.926   9.290 -0.1729  2.8879  1.1311
  107OSM   H14T10992   5.299   1.035   9.298  1.2297  0.1141 -0.6317
  107OSM   C15S10993   5.244   0.860   9.205  0.6001  0.5220 -0.7434
  107OSM   H15S10994   5.232   0.930   9.120 -0.6897  2.7293  1.2132
  107OSM   H15T10995   5.143   0.827   9.236  1.7200 -1.1101  1.3111
  107OSM   C16S10996   5.312   0.744   9.138  0.2134  0.2205 -0.1958
  107OSM   H16S10997   5.328   0.662   9.211  0.2738  1.7234  1.5154
  107OSM   H16T10998   5.416   0.775   9.116  1.3338 -2.6196  0.8401
  107OSM   C17S10999   5.247   0.704   9.006  0.1320 -0.1066 -0.0506
  107OSM   H17S11000   5.295   0.773   8.933 -1.9637  0.7314 -0.6522
  107OSM   H17T11001   5.136   0.704   9.011  0.0107 -2.1425 -1.6347
  107OSM   C18S11002   5.294   0.572   8.966 -0.6122 -0.0415  0.4241
  107OSM   H18S11003   5.239   0.551   8.871  0.5661 -0.9362 -0.0710
  107OSM   H18T11004   5.251   0.492   9.031 -0.2609 -0.8841 -0.3586
  107OSM   H18U11005   5.403   0.560   8.951 -0.9496  0.9007 -3.2372
  107OSM    C1F11006   4.956   0.524  10.630  0.3017 -0.4930 -0.7565
  107OSM     OF11007   4.893   0.586  10.714  0.0040  0.7532  0.7332
  107OSM    C2F11008   4.893   0.426  10.542 -0.5534  0.6106  0.5127
  107OSM    H2F11009   4.844   0.344  10.600 -2.0473  0.0447 -1.4911
  107OSM    H2G11010   4.970   0.382  10.476  0.9549  1.3823  1.7379
  107OSM    C3F11011   4.787   0.495  10.446 -0.1967 -0.3635  0.2403
  107OSM    H3F11012   4.714   0.542  10.515 -0.5475 -2.0566  1.0528
  107OSM    H3G11013   4.741   0.411  10.390 -0.7250 -0.2805  0.5519
  107OSM    C4F11014   4.828   0.610  10.354 -0.0527  0.2719  0.1239
  107OSM    H4F11015   4.902   0.672  10.409 -2.3788  1.5889  1.8864
  107OSM    H4G11016   4.740   0.678  10.356  0.4687  0.9217  2.1165
  107OSM    C5F11017   4.875   0.564  10.218  0.0362  0.1115 -0.2061
  107OSM    H5F11018   4.815   0.479  10.180 -1.2568  0.9406 -0.0530
  107OSM    H5G11019   4.984   0.546  10.233 -0.2092  0.2632  1.9209
  107OSM    C6F11020   4.874   0.682  10.119 -0.3513 -0.2033  0.3339
  107OSM    H6F11021   4.925   0.771  10.161  2.7680 -1.8416  0.2099
  107OSM    H6G11022   4.773   0.704  10.077  0.5088  0.2971 -1.5387
  107OSM    C7F11023   4.957   0.647   9.999  0.9671 -0.2703  0.1304
  107OSM    H7F11024   4.931   0.551   9.949  0.5152  0.8370 -1.8152
  107OSM    H7G11025   5.065   0.638  10.024  1.0869 -3.5582 -1.2747
  107OSM    C8F11026   4.950   0.766   9.899  0.4892  0.1714 -0.2540
  107OSM    H8F11027   5.037   0.753   9.830  0.3645 -0.0925 -0.3610
  107OSM    H8G11028   4.974   0.865   9.945  3.7055 -2.0350  3.1482
  107OSM    C9F11029   4.822   0.763   9.817 -0.4618 -0.1513 -0.1040
  107OSM    H9F11030   4.726   0.767   9.871 -0.1878 -0.3258  0.4002
  107OSM   C10F11031   4.813   0.756   9.681  0.0715 -0.2790 -0.6880
  107OSM   H10F11032   4.716   0.754   9.629 -0.3596 -1.4570  0.1522
  107OSM   C11F11033   4.933   0.768   9.588 -1.1532  0.3012  0.5162
  107OSM   H11F11034   5.012   0.690   9.599 -0.0131  1.0840 -1.8041
  107OSM   H11G11035   4.960   0.873   9.609  0.6986 -0.0608  0.1059
  107OSM   C12F11036   4.884   0.763   9.442 -0.2234 -0.0190  0.1410
  107OSM   H12F11037   4.950   0.815   9.370 -0.7007 -0.1174 -0.3701
  107OSM   H12G11038   4.790   0.821   9.445 -0.6244 -0.7503  2.9771
  107OSM   C13F11039   4.846   0.624   9.386  0.2046 -0.2120  0.5678
  107OSM   H13F11040   4.736   0.607   9.387  0.8287 -4.8145  0.3241
  107OSM   H13G11041   4.892   0.554   9.458 -1.1695  1.1873  2.9052
  107OSM   C14F11042   4.900   0.594   9.242  0.3403 -0.4836  0.1143
  107OSM   H14F11043   5.010   0.604   9.245  0.2889 -0.0407  0.5874
  107OSM   H14G11044   4.868   0.676   9.174  2.7188  0.2657 -0.1362
  107OSM   C15F11045   4.859   0.452   9.190 -0.3480 -0.4680 -0.2766
  107OSM   H15F11046   4.752   0.448   9.161 -1.0277  1.9331  1.6883
  107OSM   H15G11047   4.876   0.367   9.260  0.1553 -0.0663  0.0911
  107OSM   C16F11048   4.943   0.420   9.069  0.5798  0.4873  0.2015
  107OSM   H16F11049   5.049   0.439   9.099  0.7344  0.0530 -0.0717
  107OSM   H16G11050   4.917   0.476   8.976 -0.2956 -0.2690 -0.0083
  107OSM   C17F11051   4.935   0.279   9.017  0.4985 -0.1871  0.2878
  107OSM   H17F11052   4.833   0.263   8.976  1.5438  2.9045 -3.9364
  107OSM   H17G11053   4.951   0.201   9.095  0.7587 -0.1544  0.2685
  107OSM   C18F11054   5.029   0.250   8.899 -0.4362 -0.2868  0.5644
  107OSM   H18F11055   5.127   0.292   8.929  1.4526 -3.3926 -1.0111
  107OSM   H18G11056   4.991   0.302   8.809  1.2461  0.9611  0.5578
  107OSM   H18H11057   5.044   0.142   8.879 -0.7959 -0.0466 -1.0003
  108OSM      N11058   2.017   4.369  10.985 -0.2245 -0.6743 -0.5517
  108OSM    C1511059   1.965   4.237  10.981  0.1600  0.4732  0.7442
  108OSM   H15A11060   1.952   4.190  11.078  0.6410  0.0854  0.6218
  108OSM   H15B11061   2.023   4.170  10.920 -0.5158  0.9680 -0.4420
  108OSM   H15C11062   1.868   4.233  10.934 -0.9056 -2.3217  3.0319
  108OSM    C1411063   1.939   4.455  11.076 -0.9649 -0.6037 -0.1270
  108OSM   H14A11064   1.983   4.455  11.174 -1.6375  1.6367  0.2178
  108OSM   H14B11065   1.836   4.424  11.067 -0.4499 -3.3066  2.6778
  108OSM   H14C11066   1.958   4.557  11.044  1.3400 -0.2034  2.3323
  108OSM    C1311067   2.155   4.350  11.043 -0.2837  0.2161  0.3996
  108OSM   H13A11068   2.191   4.444  11.084 -0.3788  1.6471 -2.6466
  108OSM   H13B11069   2.229   4.318  10.972  0.1143 -0.4144  1.0991
  108OSM   H13C11070   2.159   4.283  11.128 -1.5788 -0.1827  0.1593
  108OSM    C1211071   2.025   4.434  10.846 -0.0599  0.5244 -0.3334
  108OSM   H12A11072   2.057   4.352  10.783 -1.5485  2.0395 -3.2070
  108OSM   H12B11073   2.101   4.511  10.849  1.3892 -0.9235  0.8528
  108OSM    C1111074   1.894   4.488  10.786  0.6915  0.0841 -0.5865
  108OSM   H11A11075   1.815   4.413  10.812  0.4279  0.2968 -0.7693
  108OSM   H11B11076   1.898   4.484  10.675  1.9221  0.7753 -0.5734
  108OSM      P11077   1.916   4.749  10.774  0.0590 -0.3905  0.3865
  108OSM    O1311078   1.845   4.867  10.830 -0.1853  0.7489  0.1067
  108OSM    O1411079   2.062   4.757  10.782  0.2675  0.0968  0.4088
  108OSM    O1111080   1.863   4.732  10.621  0.0112  0.7446 -0.8247
  108OSM    O1211081   1.864   4.613  10.845  0.4974  0.2353 -0.5190
  108OSM    C1S11082   1.931   4.808  10.520 -0.1162 -0.1413 -0.2363
  108OSM    H1S11083   2.042   4.807  10.528 -0.0365  2.9075 -0.3741
  108OSM    H1T11084   1.900   4.915  10.516 -3.6202 -1.1121 -0.8724
  108OSM     NF11085   1.778   4.832  10.331  0.1074 -0.8638 -0.0161
  108OSM    HNF11086   1.691   4.783  10.332  1.3422 -3.2487 -2.5314
  108OSM    C2S11087   1.897   4.763  10.378 -0.3929  0.0008 -0.1636
  108OSM    H2S11088   1.986   4.796  10.321 -0.1415  0.3590  0.4226
  108OSM    C3S11089   1.893   4.605  10.364 -0.2505  0.2562 -0.0400
  108OSM    H3S11090   1.821   4.580  10.445 -1.2144  1.5956 -0.4647
  108OSM     O311091   2.022   4.537  10.378 -0.2654 -0.1566  0.1704
  108OSM    HO311092   2.067   4.599  10.436 -1.7854 -0.4685  1.7284
  108OSM    C4S11093   1.845   4.573  10.223 -0.2680  0.8626 -0.2284
  108OSM    H4S11094   1.917   4.579  10.139 -1.4822  0.0228 -1.3585
  108OSM    C5S11095   1.729   4.511  10.204 -0.2231 -0.0454  0.4331
  108OSM    H5S11096   1.667   4.468  10.284 -0.1880  1.7670  1.4564
  108OSM    C6S11097   1.682   4.479  10.065 -0.4050  0.0589 -0.1817
  108OSM    H6S11098   1.663   4.369  10.062  0.2289 -0.1359  2.1352
  108OSM    H6T11099   1.766   4.486   9.992  0.1551 -2.2492  0.1921
  108OSM    C7S11100   1.566   4.564  10.033 -0.8701 -0.6982 -0.5766
  108OSM    H7S11101   1.583   4.674  10.032 -2.5616 -0.4227 -1.0969
  108OSM    H7T11102   1.490   4.561  10.113  0.2825 -2.1472  0.4864
  108OSM    C8S11103   1.503   4.513   9.902  0.8387  0.0928  0.1748
  108OSM    H8S11104   1.437   4.425   9.922 -1.0739  1.5597  0.4747
  108OSM    H8T11105   1.581   4.482   9.830 -0.5958  1.2914 -1.9446
  108OSM    C9S11106   1.422   4.627   9.835 -0.3130 -0.8022 -0.7368
  108OSM    H9S11107   1.498   4.699   9.796  0.7158 -0.6450  1.5229
  108OSM    H9T11108   1.355   4.672   9.911  0.9335 -1.8501  1.0107
  108OSM   C10S11109   1.334   4.566   9.721 -0.7010 -0.4584  0.2126
  108OSM   H10S11110   1.282   4.647   9.667 -2.7862 -0.6889  1.8080
  108OSM   H10T11111   1.252   4.507   9.767 -1.3940  0.0594 -0.3427
  108OSM   C11S11112   1.406   4.487   9.608 -0.2700 -0.1338 -0.1197
  108OSM   H11S11113   1.457   4.398   9.650  0.3178 -0.2430 -1.0642
  108OSM   H11T11114   1.488   4.548   9.565 -0.7276  0.6672  0.1332
  108OSM   C12S11115   1.315   4.434   9.494 -0.8517 -0.6106 -0.5980
  108OSM   H12S11116   1.229   4.376   9.535 -0.7114 -0.5443 -0.2082
  108OSM   H12T11117   1.385   4.369   9.438 -0.0538 -1.0571  0.8767
  108OSM   C13S11118   1.263   4.536   9.389  0.6751  0.5108  0.8344
  108OSM   H13S11119   1.351   4.573   9.333 -0.0671  0.3474 -0.4505
  108OSM   H13T11120   1.198   4.612   9.437  1.8086  1.0988  1.4658
  108OSM   C14S11121   1.181   4.464   9.280 -0.2780  0.0886 -1.1229
  108OSM   H14S11122   1.096   4.410   9.327  1.2753  0.1209  1.8373
  108OSM   H14T11123   1.254   4.396   9.230  0.8694  1.0667 -0.8016
  108OSM   C15S11124   1.129   4.556   9.178  0.1233 -0.0607  0.1652
  108OSM   H15S11125   1.219   4.604   9.136  0.2850  0.8847  1.5548
  108OSM   H15T11126   1.055   4.627   9.222  1.1153  0.5095  0.9112
  108OSM   C16S11127   1.063   4.482   9.054  0.2015 -0.2812  0.2298
  108OSM   H16S11128   0.971   4.432   9.091 -1.1660  0.9405 -1.4262
  108OSM   H16T11129   1.131   4.404   9.013  0.2830 -1.4181  2.4797
  108OSM   C17S11130   1.011   4.583   8.946 -0.5878  0.1072  0.0329
  108OSM   H17S11131   1.099   4.640   8.909  1.0460 -1.5031  1.3323
  108OSM   H17T11132   0.942   4.647   9.005 -0.9526  0.5245 -0.8434
  108OSM   C18S11133   0.937   4.521   8.824 -0.4721 -0.1287 -0.1807
  108OSM   H18S11134   0.892   4.597   8.757  0.6174 -1.5347 -2.5875
  108OSM   H18T11135   0.854   4.473   8.880 -0.6986  0.2833 -0.1676
  108OSM   H18U11136   0.992   4.444   8.765 -2.8130 -2.1763  0.2025
  108OSM    C1F11137   1.776   4.966  10.307 -0.2827 -0.2509  0.3537
  108OSM     OF11138   1.877   5.025  10.279  0.2744  0.0038  0.2545
  108OSM    C2F11139   1.646   5.034  10.313  0.3670 -0.6898  0.2745
  108OSM    H2F11140   1.643   5.106  10.397  0.2302 -1.5099  0.9823
  108OSM    H2G11141   1.561   4.964  10.330  0.7532 -1.6218 -1.5329
  108OSM    C3F11142   1.614   5.119  10.189 -0.0052 -0.6526 -0.4352
  108OSM    H3F11143   1.702   5.183  10.165 -0.4840 -0.5302 -1.9085
  108OSM    H3G11144   1.535   5.196  10.203  1.0817  0.0338  2.2372
  108OSM    C4F11145   1.582   5.038  10.066 -0.3896 -0.3229 -0.0599
  108OSM    H4F11146   1.502   4.965  10.091 -1.3759  0.3647 -1.1804
  108OSM    H4G11147   1.668   4.983  10.023  0.9752  0.7095  1.3132
  108OSM    C5F11148   1.518   5.110   9.945  0.4364  0.2906 -0.1104
  108OSM    H5F11149   1.578   5.191   9.898 -0.7469  0.5793 -1.1428
  108OSM    H5G11150   1.424   5.162   9.973 -0.0075  1.0682 -2.9412
  108OSM    C6F11151   1.464   5.017   9.837  0.0227  0.0138 -0.2371
  108OSM    H6F11152   1.397   4.942   9.883 -2.0053  1.6776 -0.4247
  108OSM    H6G11153   1.552   4.965   9.792 -0.2169 -1.7286  1.2765
  108OSM    C7F11154   1.398   5.085   9.719 -0.0117 -0.5890 -0.6225
  108OSM    H7F11155   1.453   5.182   9.708  0.5242 -0.3880  3.2911
  108OSM    H7G11156   1.302   5.123   9.758  0.4054 -3.3943  3.3947
  108OSM    C8F11157   1.397   4.997   9.591 -0.0329 -0.4403 -0.2632
  108OSM    H8F11158   1.360   4.897   9.623  1.3443 -0.8776  0.0111
  108OSM    H8G11159   1.499   4.977   9.551  0.3927 -0.2312  0.6882
  108OSM    C9F11160   1.324   5.073   9.481  1.0870 -0.1716  0.9196
  108OSM    H9F11161   1.239   5.133   9.517  0.6394 -0.1622 -0.1486
  108OSM   C10F11162   1.349   5.074   9.351 -0.1754  0.0182 -0.0598
  108OSM   H10F11163   1.283   5.133   9.285 -1.3149 -1.1290  0.0410
  108OSM   C11F11164   1.462   5.014   9.268  0.1311  0.4091  0.8453
  108OSM   H11F11165   1.533   4.976   9.345 -0.5892 -0.2901  1.1622
  108OSM   H11G11166   1.522   5.085   9.207  0.7224  1.7430  2.9059
  108OSM   C12F11167   1.412   4.904   9.175  0.3042  0.6727  0.2513
  108OSM   H12F11168   1.326   4.850   9.220 -0.0758  1.0146 -0.0622
  108OSM   H12G11169   1.496   4.847   9.129  0.7527  0.9733  0.6942
  108OSM   C13F11170   1.370   4.973   9.045  0.5391  0.0865  0.5531
  108OSM   H13F11171   1.457   5.030   9.008  0.7822 -0.1447  0.7692
  108OSM   H13G11172   1.288   5.044   9.069 -0.8737 -1.3839  0.2246
  108OSM   C14F11173   1.299   4.892   8.936 -0.2864  0.9583 -0.3998
  108OSM   H14F11174   1.214   4.838   8.984  1.1809  0.5389  1.7577
  108OSM   H14G11175   1.368   4.818   8.891  1.7026 -0.4754  4.7508
  108OSM   C15F11176   1.233   4.981   8.833  0.1495 -0.0768 -0.4547
  108OSM   H15F11177   1.314   5.055   8.814  1.2355 -0.8468  1.1005
  108OSM   H15G11178   1.142   5.025   8.880  1.6402  3.6313 -0.8780
  108OSM   C16F11179   1.195   4.910   8.701  0.0816 -0.4643 -0.3760
  108OSM   H16F11180   1.141   4.985   8.639  0.2321 -0.5327 -0.5903
  108OSM   H16G11181   1.120   4.829   8.716 -0.4606  0.2739  0.9895
  108OSM   C17F11182   1.321   4.863   8.623  0.3238 -0.0096 -0.3165
  108OSM   H17F11183   1.348   4.759   8.653 -1.3010 -0.6208 -0.9341
  108OSM   H17G11184   1.406   4.931   8.643  1.5861 -1.8314  0.7155
  108OSM   C18F11185   1.302   4.852   8.472 -0.0877 -0.5923 -0.1703
  108OSM   H18F11186   1.393   4.813   8.422 -0.5479 -0.3021 -1.2532
  108OSM   H18G11187   1.280   4.952   8.430  1.7943 -0.8217 -1.7477
  108OSM   H18H11188   1.225   4.777   8.443  0.3799 -1.9328  1.9764
  109OSM      N11189   1.854   6.015  10.796 -0.7059  0.7081 -0.2135
  109OSM    C1511190   1.980   5.939  10.842 -0.5730  0.6553  0.4907
  109OSM   H15A11191   2.005   5.872  10.761  2.5759 -0.3956  2.2351
  109OSM   H15B11192   1.972   5.888  10.937  0.7818  1.2069  0.9145
  109OSM   H15C11193   2.056   6.016  10.836  1.4163 -1.3072 -0.4018
  109OSM    C1411194   1.733   5.926  10.818  0.2339  0.2668 -0.7681
  109OSM   H14A11195   1.739   5.863  10.906  1.9252  1.6464  0.1196
  109OSM   H14B11196   1.702   5.865  10.734  4.0245  0.4895 -2.4183
  109OSM   H14C11197   1.650   5.992  10.841 -0.5248 -0.8902 -0.0905
  109OSM    C1311198   1.858   6.129  10.887  0.8734 -0.3561  0.3550
  109OSM   H13A11199   1.878   6.100  10.989  0.7277 -0.1193  0.4503
  109OSM   H13B11200   1.762   6.178  10.888  1.0268 -0.0501  0.0130
  109OSM   H13C11201   1.939   6.198  10.866  0.8064 -0.5132 -0.4111
  109OSM    C1211202   1.862   6.062  10.650 -0.2140 -0.4999 -0.3359
  109OSM   H12A11203   1.942   6.133  10.632 -0.0974 -0.3647  0.6772
  109OSM   H12B11204   1.774   6.122  10.631 -1.1516 -1.9224 -0.5333
  109OSM    C1111205   1.870   5.952  10.538  0.0896  0.1236 -0.1573
  109OSM   H11A11206   1.865   5.999  10.438  0.6300  0.7457  0.1022
  109OSM   H11B11207   1.774   5.895  10.539  0.9558 -1.4178 -2.0894
  109OSM      P11208   2.126   5.902  10.511  0.2103 -0.1454  0.2246
  109OSM    O1311209   2.191   5.988  10.613 -0.2387 -0.6810 -0.2354
  109OSM    O1411210   2.202   5.786  10.455  0.2681 -0.7693 -0.7648
  109OSM    O1111211   2.098   6.001  10.391 -0.1053  0.1836  0.1784
  109OSM    O1211212   1.977   5.859  10.557  0.0207 -0.2677 -0.3882
  109OSM    C1S11213   2.201   6.089  10.356  0.7677  0.1477 -0.6624
  109OSM    H1S11214   2.301   6.041  10.356  1.2687  1.1436  1.1920
  109OSM    H1T11215   2.213   6.174  10.427  0.2105  1.0609 -1.6469
  109OSM     NF11216   2.305   6.213  10.169  0.0381 -0.4227  0.3253
  109OSM    HNF11217   2.296   6.311  10.156  1.4026 -0.2693  0.5193
  109OSM    C2S11218   2.182   6.143  10.207 -0.5287 -0.0180  0.0407
  109OSM    H2S11219   2.175   6.065  10.129 -1.5632  0.8075 -0.7038
  109OSM    C3S11220   2.056   6.229  10.195 -0.1125  0.3285 -1.0058
  109OSM    H3S11221   2.069   6.319  10.259 -2.4018  0.8560 -1.2400
  109OSM     O311222   1.935   6.171  10.252  0.0881 -0.6238  0.0164
  109OSM    HO311223   1.978   6.101  10.302 -0.0032 -1.0624 -0.5280
  109OSM    C4S11224   2.035   6.266  10.049  0.6538 -0.8761 -0.0046
  109OSM    H4S11225   2.074   6.366  10.025  3.5717 -1.4547  2.0113
  109OSM    C5S11226   1.976   6.184   9.955  0.3311 -0.6987 -0.1112
  109OSM    H5S11227   1.930   6.088   9.985 -0.0792  0.0549  1.7657
  109OSM    C6S11228   1.937   6.227   9.812 -0.5536  0.1874  0.6411
  109OSM    H6S11229   1.923   6.337   9.820  1.2033  0.7970 -3.6277
  109OSM    H6T11230   1.837   6.182   9.791 -0.0378  0.1832 -1.9614
  109OSM    C7S11231   2.037   6.206   9.692 -0.2422 -0.3864  0.6722
  109OSM    H7S11232   2.047   6.096   9.682 -0.2700 -0.3464  0.1916
  109OSM    H7T11233   2.134   6.254   9.715 -0.1936  0.7362 -1.7793
  109OSM    C8S11234   1.995   6.256   9.553 -0.2941 -0.5084 -0.2085
  109OSM    H8S11235   2.086   6.283   9.496 -0.5612 -1.5015 -1.1248
  109OSM    H8T11236   1.933   6.347   9.570 -0.2581 -0.5886  0.3502
  109OSM    C9S11237   1.915   6.152   9.472  0.5632 -0.4996  0.1454
  109OSM    H9S11238   1.834   6.117   9.540  0.1839 -1.7274 -0.9378
  109OSM    H9T11239   1.976   6.067   9.434 -1.2632 -1.6643 -0.2133
  109OSM   C10S11240   1.853   6.213   9.349 -0.5388  0.0273 -0.0507
  109OSM   H10S11241   1.808   6.312   9.369  0.0685  0.5050 -1.0045
  109OSM   H10T11242   1.770   6.147   9.317 -1.8778  1.1399  1.0781
  109OSM   C11S11243   1.943   6.236   9.225  0.0776  0.5460  0.5530
  109OSM   H11S11244   1.985   6.142   9.184 -0.7467  0.7021 -0.6615
  109OSM   H11T11245   2.018   6.312   9.256 -0.2927  1.1852 -0.1096
  109OSM   C12S11246   1.860   6.293   9.101 -0.4161 -0.1995 -0.2096
  109OSM   H12S11247   1.809   6.386   9.136 -1.1089 -1.1070  1.2149
  109OSM   H12T11248   1.778   6.223   9.074 -0.5817 -0.3483  0.6520
  109OSM   C13S11249   1.945   6.344   8.985 -0.3198 -0.3238 -0.3776
  109OSM   H13S11250   2.016   6.421   9.020  0.0595 -1.1384  0.6556
  109OSM   H13T11251   1.869   6.381   8.912  0.4910  0.7903 -0.6619
  109OSM   C14S11252   2.028   6.226   8.916  0.3205  0.1122  0.2357
  109OSM   H14S11253   2.102   6.197   8.994  0.7493  0.9404  0.1478
  109OSM   H14T11254   2.091   6.279   8.841 -1.1928  0.2915 -0.9356
  109OSM   C15S11255   1.938   6.114   8.860  0.7185  0.2290 -0.1705
  109OSM   H15S11256   1.871   6.067   8.934 -0.0591  1.1373 -0.2950
  109OSM   H15T11257   1.996   6.027   8.822 -2.0752 -2.1903  0.9535
  109OSM   C16S11258   1.843   6.168   8.752 -0.0047  0.1732  0.4294
  109OSM   H16S11259   1.899   6.200   8.661  0.2757  0.5363  0.7235
  109OSM   H16T11260   1.778   6.256   8.772 -1.6903 -0.5255 -1.8038
  109OSM   C17S11261   1.730   6.065   8.716 -0.6685 -0.8538 -0.0920
  109OSM   H17S11262   1.656   6.076   8.798 -1.4013 -0.1437 -0.8325
  109OSM   H17T11263   1.766   5.961   8.701 -0.3083 -0.6031 -1.0581
  109OSM   C18S11264   1.642   6.099   8.595  0.2698 -0.6328  0.0790
  109OSM   H18S11265   1.553   6.035   8.577 -0.4000  0.3932 -0.3464
  109OSM   H18T11266   1.707   6.109   8.505 -0.0016 -1.0672 -0.1617
  109OSM   H18U11267   1.589   6.197   8.604 -1.5721 -1.6614  0.6265
  109OSM    C1F11268   2.420   6.153  10.154 -0.3362 -0.0738 -0.4621
  109OSM     OF11269   2.422   6.034  10.134  0.4197  0.8470  0.1899
  109OSM    C2F11270   2.542   6.239  10.164 -0.3534  0.0391 -0.4435
  109OSM    H2F11271   2.621   6.177  10.212 -2.3000  0.1396  3.1278
  109OSM    H2G11272   2.515   6.323  10.231 -2.1197 -1.3696  0.6941
  109OSM    C3F11273   2.602   6.296  10.031  0.3189  0.4393 -0.5627
  109OSM    H3F11274   2.606   6.218   9.952 -3.6398 -1.2194  0.7500
  109OSM    H3G11275   2.708   6.327  10.038 -0.5493  4.1202 -2.5001
  109OSM    C4F11276   2.525   6.422   9.976  0.7755 -0.5826  0.2228
  109OSM    H4F11277   2.536   6.509  10.045 -2.4741 -0.5752  0.8358
  109OSM    H4G11278   2.417   6.394   9.971  0.7885 -0.5793 -0.0401
  109OSM    C5F11279   2.578   6.458   9.833  0.4654  0.8186  0.6014
  109OSM    H5F11280   2.689   6.463   9.832  0.4403  1.5565  1.0031
  109OSM    H5G11281   2.552   6.565   9.816 -1.0556  0.7590  2.3624
  109OSM    C6F11282   2.534   6.363   9.715  0.5835 -0.5727  0.1885
  109OSM    H6F11283   2.424   6.349   9.717  0.7097 -2.0407 -1.6201
  109OSM    H6G11284   2.583   6.266   9.735 -0.3661 -0.9605  0.6540
  109OSM    C7F11285   2.576   6.418   9.577  0.2852 -0.1974 -1.1439
  109OSM    H7F11286   2.686   6.427   9.570  0.4791 -0.1537  1.6891
  109OSM    H7G11287   2.522   6.514   9.559 -0.4691 -0.1118  1.3497
  109OSM    C8F11288   2.539   6.316   9.467  0.0304  0.2348  0.0959
  109OSM    H8F11289   2.575   6.217   9.503  0.4135  0.4213  0.2189
  109OSM    H8G11290   2.593   6.336   9.373  1.5600  2.2019  1.3637
  109OSM    C9F11291   2.394   6.299   9.427 -0.1195 -0.1594  0.3647
  109OSM    H9F11292   2.320   6.283   9.507  1.7535 -0.6873  2.0532
  109OSM   C10F11293   2.337   6.287   9.305  0.3944 -0.0533  0.6546
  109OSM   H10F11294   2.228   6.295   9.295  0.3197 -2.1663 -0.5235
  109OSM   C11F11295   2.412   6.288   9.177 -0.3109  0.4554 -0.8257
  109OSM   H11F11296   2.347   6.241   9.100 -0.8597 -1.2576  0.6698
  109OSM   H11G11297   2.512   6.239   9.182  0.8662  2.7751 -0.8751
  109OSM   C12F11298   2.445   6.430   9.129 -0.2254 -0.2948 -0.3510
  109OSM   H12F11299   2.523   6.415   9.052 -1.0241  0.8014 -1.3887
  109OSM   H12G11300   2.478   6.476   9.225  2.2389 -1.4623 -0.5811
  109OSM   C13F11301   2.331   6.505   9.078  0.1176  0.8302  0.1894
  109OSM   H13F11302   2.259   6.531   9.158  0.4880  3.6921 -0.3325
  109OSM   H13G11303   2.276   6.437   9.010 -1.2542  0.3745  1.7454
  109OSM   C14F11304   2.372   6.633   8.997 -0.0641  0.6440 -0.2200
  109OSM   H14F11305   2.469   6.619   8.945 -0.2902 -2.4052  0.0699
  109OSM   H14G11306   2.394   6.715   9.069 -0.6956  0.4119  0.2430
  109OSM   C15F11307   2.264   6.676   8.904  0.1284 -0.0285 -0.1003
  109OSM   H15F11308   2.169   6.629   8.937  0.1595 -0.5389 -0.7214
  109OSM   H15G11309   2.270   6.624   8.806  4.5045  0.6949 -0.2755
  109OSM   C16F11310   2.242   6.831   8.888 -0.0844 -0.0543 -0.1652
  109OSM   H16F11311   2.335   6.871   8.843 -0.7501  2.1229  0.3220
  109OSM   H16G11312   2.222   6.872   8.990 -1.3400 -1.3246  0.1233
  109OSM   C17F11313   2.115   6.861   8.801 -0.5754 -0.1573 -0.3697
  109OSM   H17F11314   2.093   6.970   8.797  2.0372  0.3420 -2.2551
  109OSM   H17G11315   2.034   6.809   8.857  1.0627 -1.8275  0.4864
  109OSM   C18F11316   2.120   6.805   8.659 -0.9444 -0.0315  1.4034
  109OSM   H18F11317   2.108   6.695   8.668 -1.3220 -0.0114  1.1588
  109OSM   H18G11318   2.215   6.834   8.608  0.3161 -2.2070  2.4415
  109OSM   H18H11319   2.040   6.841   8.591  0.3563  2.5807  1.1805
  110OSM      N11320   3.940   6.001  11.010 -0.1972 -0.0559 -0.1681
  110OSM    C1511321   3.932   5.886  11.110  0.3224 -0.1274 -0.2526
  110OSM   H15A11322   3.839   5.833  11.099 -1.7277  2.4805  3.2666
  110OSM   H15B11323   3.930   5.925  11.211  2.1238 -0.6201  0.0016
  110OSM   H15C11324   4.016   5.818  11.102  0.8186  0.0794  2.6028
  110OSM    C1411325   3.811   6.078  11.023 -0.1553 -0.2568  0.5408
  110OSM   H14A11326   3.811   6.160  10.953  2.2010  0.7628  1.6708
  110OSM   H14B11327   3.802   6.115  11.124 -1.0571  3.4817 -0.8014
  110OSM   H14C11328   3.736   6.003  11.001  1.9096 -1.7020 -1.7750
  110OSM    C1311329   4.067   6.083  11.046  0.9273  0.3348 -0.0248
  110OSM   H13A11330   4.160   6.029  11.039  0.2524 -0.8933  0.2900
  110OSM   H13B11331   4.049   6.109  11.150 -2.0129 -1.5007 -0.0205
  110OSM   H13C11332   4.082   6.168  10.981  2.2682  1.1305  1.2896
  110OSM    C1211333   3.950   5.940  10.868  0.0138  0.3328  0.1825
  110OSM   H12A11334   4.033   5.872  10.862  0.5310  1.1109 -1.9364
  110OSM   H12B11335   3.968   6.026  10.805 -1.3319  0.9981  0.6745
  110OSM    C1111336   3.830   5.864  10.806  0.3457 -0.3490 -0.8658
  110OSM   H11A11337   3.847   5.840  10.699  0.9386 -0.3304 -0.7798
  110OSM   H11B11338   3.740   5.928  10.812  0.2175 -0.6621  0.8206
  110OSM      P11339   3.887   5.618  10.849 -0.0135  0.3596 -0.0228
  110OSM    O1311340   4.035   5.642  10.861  1.0261 -0.3377 -0.2807
  110OSM    O1411341   3.836   5.496  10.919  0.5850 -0.3018  0.0629
  110OSM    O1111342   3.863   5.584  10.692  0.1301 -0.3389  0.6601
  110OSM    O1211343   3.805   5.747  10.876  0.1364  0.0277 -0.3148
  110OSM    C1S11344   3.729   5.571  10.647  0.3926  0.1360 -0.0434
  110OSM    H1S11345   3.682   5.671  10.661  1.5400  0.4637  1.6964
  110OSM    H1T11346   3.669   5.505  10.713 -0.6434 -0.8313 -1.9181
  110OSM     NF11347   3.571   5.599  10.454  0.6253 -0.8668 -0.1321
  110OSM    HNF11348   3.495   5.535  10.447  1.4045 -1.6921 -1.1707
  110OSM    C2S11349   3.705   5.556  10.488 -0.0844 -0.3331 -0.1576
  110OSM    H2S11350   3.765   5.628  10.429 -2.8161  0.6855 -1.7778
  110OSM    C3S11351   3.740   5.415  10.448  0.3467 -0.0295  0.3469
  110OSM    H3S11352   3.677   5.343  10.504 -0.2999  0.4040  0.1791
  110OSM     O311353   3.877   5.385  10.488 -0.0607  0.3630 -0.0203
  110OSM    HO311354   3.891   5.445  10.562 -1.3993 -1.4474  1.7299
  110OSM    C4S11355   3.718   5.393  10.297 -0.2587  0.4848 -0.3987
  110OSM    H4S11356   3.791   5.433  10.225 -0.5848 -0.6502 -1.3934
  110OSM    C5S11357   3.615   5.322  10.248  0.3915 -0.4041 -0.6392
  110OSM    H5S11358   3.537   5.282  10.316  1.6989 -1.2565  0.3965
  110OSM    C6S11359   3.588   5.303  10.099  0.6353  0.7845 -0.5588
  110OSM    H6S11360   3.503   5.372  10.077 -0.2660  0.6370  2.3132
  110OSM    H6T11361   3.557   5.197  10.089  0.7357  0.6036  0.9470
  110OSM    C7S11362   3.686   5.332   9.977 -0.2606  0.2011  0.1565
  110OSM    H7S11363   3.771   5.261   9.984  1.3145  2.0356  0.2316
  110OSM    H7T11364   3.721   5.437   9.969 -1.1761  0.6666  2.1126
  110OSM    C8S11365   3.610   5.302   9.847 -0.1872 -0.6623  0.3509
  110OSM    H8S11366   3.504   5.275   9.868 -0.5611  0.9018  0.5232
  110OSM    H8T11367   3.653   5.206   9.812  0.7037 -1.1017  2.5699
  110OSM    C9S11368   3.615   5.409   9.738  0.8350  0.4592 -0.6560
  110OSM    H9S11369   3.721   5.437   9.724  0.5037  1.7332 -0.6581
  110OSM    H9T11370   3.567   5.494   9.791  0.0702 -1.8026  2.4002
  110OSM   C10S11371   3.547   5.376   9.604 -0.0687  0.5908  0.2585
  110OSM   H10S11372   3.438   5.385   9.623 -1.0468 -0.1580 -4.4735
  110OSM   H10T11373   3.549   5.272   9.566 -1.4772  0.6167  0.0812
  110OSM   C11S11374   3.599   5.472   9.499 -0.5231 -0.1289 -0.2781
  110OSM   H11S11375   3.710   5.477   9.500 -0.5823  1.1716  0.7962
  110OSM   H11T11376   3.564   5.570   9.538  1.7775 -0.1020  1.8446
  110OSM   C12S11377   3.545   5.449   9.358 -0.5253 -0.0667  0.3310
  110OSM   H12S11378   3.437   5.420   9.354 -0.3750 -0.6582  0.4396
  110OSM   H12T11379   3.592   5.354   9.325  0.6721 -0.1850  2.3160
  110OSM   C13S11380   3.585   5.557   9.254  0.2392  0.4864  0.2193
  110OSM   H13S11381   3.688   5.598   9.266  0.6662 -0.8525  1.2205
  110OSM   H13T11382   3.521   5.645   9.275  0.0817  0.1561  1.1373
  110OSM   C14S11383   3.561   5.513   9.106 -0.5543  0.3456  0.5985
  110OSM   H14S11384   3.474   5.444   9.110 -0.6931  0.4607 -0.3414
  110OSM   H14T11385   3.652   5.454   9.078 -0.5880  0.7566 -0.3881
  110OSM   C15S11386   3.536   5.634   9.010  0.3160 -0.4106  0.0622
  110OSM   H15S11387   3.460   5.696   9.063  0.0981 -1.4033  0.9275
  110OSM   H15T11388   3.497   5.595   8.913 -3.8843  0.4719  1.2992
  110OSM   C16S11389   3.662   5.723   8.992  0.8578 -0.5786  0.5144
  110OSM   H16S11390   3.742   5.661   8.947  0.9304  2.2095 -3.3813
  110OSM   H16T11391   3.693   5.753   9.095  1.1951 -1.9582  0.8394
  110OSM   C17S11392   3.644   5.851   8.907  0.2498 -0.0679 -0.1608
  110OSM   H17S11393   3.556   5.909   8.941  0.9525  1.4662 -0.8722
  110OSM   H17T11394   3.608   5.811   8.809 -2.1989  0.9035  0.3030
  110OSM   C18S11395   3.763   5.943   8.895  0.0924  0.1927 -0.6572
  110OSM   H18S11396   3.750   6.034   8.832 -0.8925  0.0961 -0.6076
  110OSM   H18T11397   3.840   5.875   8.853 -0.4151 -1.5639  1.1734
  110OSM   H18U11398   3.799   5.977   8.994  0.1167  0.9377 -0.9154
  110OSM    C1F11399   3.521   5.724  10.453 -0.0682  0.0735 -0.6045
  110OSM     OF11400   3.605   5.817  10.453 -0.1508 -0.1861  0.6133
  110OSM    C2F11401   3.372   5.738  10.455 -0.2969  0.7507  0.6785
  110OSM    H2F11402   3.331   5.839  10.473 -2.1897  0.3117 -0.9826
  110OSM    H2G11403   3.323   5.675  10.533  0.6713 -1.9203 -0.7868
  110OSM    C3F11404   3.313   5.675  10.323 -0.0980  0.2577 -0.5297
  110OSM    H3F11405   3.202   5.672  10.327 -0.1683  2.2953 -0.2821
  110OSM    H3G11406   3.341   5.568  10.317 -0.8522  0.1053 -1.5291
  110OSM    C4F11407   3.351   5.749  10.195  0.2202  0.4775 -0.4946
  110OSM    H4F11408   3.462   5.745  10.192  0.1972  0.3804 -1.3146
  110OSM    H4G11409   3.327   5.857  10.192 -0.3640  0.3590 -0.3038
  110OSM    C5F11410   3.294   5.679  10.078 -0.2967 -1.3317  0.5688
  110OSM    H5F11411   3.187   5.699  10.058  0.9358  2.1139 -3.2984
  110OSM    H5G11412   3.318   5.571  10.092 -0.3439 -1.2718  1.1466
  110OSM    C6F11413   3.356   5.714   9.945 -0.6777 -0.9036 -0.5350
  110OSM    H6F11414   3.391   5.620   9.898 -1.1033 -1.1585 -0.3409
  110OSM    H6G11415   3.456   5.759   9.965 -0.3431 -1.4985 -0.8453
  110OSM    C7F11416   3.273   5.808   9.851  0.5114 -0.4564  0.2346
  110OSM    H7F11417   3.247   5.896   9.914  2.0939  1.3688 -1.6097
  110OSM    H7G11418   3.176   5.763   9.822 -0.1740  1.4504 -0.5309
  110OSM    C8F11419   3.337   5.873   9.729  0.3631  0.9172 -0.4568
  110OSM    H8F11420   3.430   5.926   9.760  0.7199  0.9813 -1.6047
  110OSM    H8G11421   3.265   5.946   9.686 -0.4354 -1.4824 -3.3545
  110OSM    C9F11422   3.363   5.766   9.616  0.1287 -0.1208  0.4812
  110OSM    H9F11423   3.445   5.697   9.639  0.1348 -0.2903 -0.0418
  110OSM   C10F11424   3.297   5.752   9.497  0.1806 -0.6781  0.6077
  110OSM   H10F11425   3.332   5.674   9.429 -3.6978 -0.7361 -1.4645
  110OSM   C11F11426   3.196   5.845   9.435  0.2118  0.3608  0.3326
  110OSM   H11F11427   3.184   5.941   9.490 -0.8673  1.1718 -1.3010
  110OSM   H11G11428   3.099   5.792   9.432  0.4718 -0.0128 -5.3237
  110OSM   C12F11429   3.227   5.876   9.287 -0.1355 -0.3296 -0.3903
  110OSM   H12F11430   3.331   5.908   9.268 -0.6797  0.0996 -2.8165
  110OSM   H12G11431   3.158   5.961   9.262  1.2733  1.2592  0.9963
  110OSM   C13F11432   3.202   5.760   9.190  0.1223 -0.6762 -0.1497
  110OSM   H13F11433   3.103   5.713   9.207  0.6717 -1.6626  0.3543
  110OSM   H13G11434   3.281   5.684   9.209  1.3051  1.0337  2.0506
  110OSM   C14F11435   3.199   5.807   9.040  0.3745  0.3340 -0.8997
  110OSM   H14F11436   3.299   5.852   9.021 -0.2990  3.3481  2.2925
  110OSM   H14G11437   3.119   5.883   9.036 -0.2881 -0.2446  0.7345
  110OSM   C15F11438   3.155   5.709   8.933  0.9951 -0.6780  0.8802
  110OSM   H15F11439   3.049   5.677   8.946  1.1255 -1.7899 -0.5779
  110OSM   H15G11440   3.213   5.614   8.944 -0.9876 -2.1190 -0.7406
  110OSM   C16F11441   3.170   5.762   8.788 -0.2636 -0.2126  1.0307
  110OSM   H16F11442   3.106   5.852   8.784  0.2528  0.1754  1.3490
  110OSM   H16G11443   3.132   5.693   8.710 -0.9379  2.2233 -0.8668
  110OSM   C17F11444   3.310   5.792   8.747 -0.3598 -0.5971  0.0106
  110OSM   H17F11445   3.381   5.710   8.772  0.0653 -0.0561  0.6011
  110OSM   H17G11446   3.352   5.872   8.812 -1.2860 -1.3520  1.5646
  110OSM   C18F11447   3.316   5.836   8.599 -0.6049  0.4820 -0.0714
  110OSM   H18F11448   3.418   5.833   8.554 -0.7467  1.4073 -0.4705
  110OSM   H18G11449   3.272   5.937   8.603 -0.5575  0.5415 -0.9708
  110OSM   H18H11450   3.250   5.770   8.539  0.4860 -0.3994 -0.3313
  111OSM      N11451   4.206   1.653  10.922  0.0084 -0.0584  0.2869
  111OSM    C1511452   4.228   1.715  11.058  0.3198  0.3778  0.2236
  111OSM   H15A11453   4.216   1.644  11.138  1.0814  0.7480  0.6774
  111OSM   H15B11454   4.172   1.807  11.068  0.8427  0.9887 -2.1846
  111OSM   H15C11455   4.331   1.746  11.065  0.3249  0.4538 -0.1946
  111OSM    C1411456   4.305   1.539  10.919 -0.2770  0.1329  0.5050
  111OSM   H14A11457   4.403   1.583  10.924 -0.6432  0.9547  0.6320
  111OSM   H14B11458   4.300   1.480  10.829 -3.4310 -0.4419  0.9740
  111OSM   H14C11459   4.286   1.477  11.005 -0.4655 -0.0230  0.3494
  111OSM    C1311460   4.074   1.585  10.911 -0.3804  0.8598  0.3998
  111OSM   H13A11461   4.001   1.663  10.924 -2.8235 -1.6150  1.8507
  111OSM   H13B11462   4.071   1.510  10.989  0.1884  1.6599  1.2119
  111OSM   H13C11463   4.060   1.529  10.819 -2.6509  1.1983  0.5268
  111OSM    C1211464   4.214   1.746  10.804 -0.3455 -0.1214 -0.8896
  111OSM   H12A11465   4.212   1.706  10.704 -0.1476  0.9544 -1.3314
  111OSM   H12B11466   4.313   1.790  10.806 -0.9099  1.1849 -1.6269
  111OSM    C1111467   4.121   1.867  10.808 -0.1272 -0.4406  0.2617
  111OSM   H11A11468   4.013   1.841  10.814 -0.8248  1.6689 -2.1822
  111OSM   H11B11469   4.126   1.918  10.709  0.6601  0.7308  0.9016
  111OSM      P11470   4.283   2.048  10.892  0.0206 -0.3570  0.2784
  111OSM    O1311471   4.318   2.105  11.024  0.7057 -0.0774 -0.0375
  111OSM    O1411472   4.393   1.976  10.817 -0.0713 -0.6605  0.2120
  111OSM    O1111473   4.233   2.153  10.790  0.0134  0.1184  0.2188
  111OSM    O1211474   4.150   1.963  10.901  0.1396  0.1591  0.2445
  111OSM    C1S11475   4.281   2.146  10.661 -0.1521 -0.1218 -0.4309
  111OSM    H1S11476   4.267   2.048  10.611 -1.1236 -0.3546  0.2913
  111OSM    H1T11477   4.389   2.173  10.659  0.2085 -1.5325 -0.7968
  111OSM     NF11478   4.255   2.246  10.430  0.6022 -0.0283  0.5505
  111OSM    HNF11479   4.310   2.319  10.390 -1.9987  1.1177 -1.0742
  111OSM    C2S11480   4.222   2.258  10.573  0.3768 -0.8729  0.0671
  111OSM    H2S11481   4.113   2.253  10.592  0.5714  2.7036  2.7730
  111OSM    C3S11482   4.262   2.399  10.634 -0.0930  0.0323  0.3095
  111OSM    H3S11483   4.372   2.413  10.627 -0.0174 -0.6330  0.1431
  111OSM     O311484   4.229   2.422  10.766 -0.4038  0.2047 -0.8399
  111OSM    HO311485   4.206   2.331  10.787 -0.4559  0.0567 -1.5311
  111OSM    C4S11486   4.194   2.505  10.553  0.1689 -0.7126  0.6611
  111OSM    H4S11487   4.085   2.503  10.564  0.1522  0.0680  0.6590
  111OSM    C5S11488   4.263   2.593  10.477 -0.9797  0.2642  0.0064
  111OSM    H5S11489   4.372   2.597  10.488 -1.1357 -0.3836  1.9271
  111OSM    C6S11490   4.201   2.702  10.394  0.7285  0.0184 -0.5146
  111OSM    H6S11491   4.237   2.804  10.418  3.0119 -1.0122  0.6730
  111OSM    H6T11492   4.091   2.698  10.409  1.1880 -0.6260  3.1021
  111OSM    C7S11493   4.215   2.671  10.252 -0.0811 -0.2240  0.3512
  111OSM    H7S11494   4.324   2.671  10.233 -0.1721 -0.9439 -0.1853
  111OSM    H7T11495   4.173   2.758  10.197 -1.1060 -0.2664  1.0503
  111OSM    C8S11496   4.133   2.545  10.201 -0.1323  0.7598  0.0286
  111OSM    H8S11497   4.025   2.560  10.222  0.1178 -1.0205  2.8265
  111OSM    H8T11498   4.165   2.452  10.253  1.1059  0.9957 -0.2775
  111OSM    C9S11499   4.149   2.521  10.051 -0.2768 -0.3259  0.2529
  111OSM    H9S11500   4.148   2.415  10.017  1.1100  0.1094 -1.1825
  111OSM    H9T11501   4.251   2.552  10.023 -1.8914  3.1389 -2.0914
  111OSM   C10S11502   4.074   2.617   9.954  0.0215  0.3696 -0.6270
  111OSM   H10S11503   4.105   2.720   9.984 -0.7526 -0.0861  1.8072
  111OSM   H10T11504   3.964   2.604   9.957  0.3757 -2.5512  0.9841
  111OSM   C11S11505   4.125   2.596   9.809 -0.1625  0.9923  0.7272
  111OSM   H11S11506   4.233   2.574   9.800  0.4048  3.6587  0.4752
  111OSM   H11T11507   4.105   2.692   9.756 -1.4247 -0.0061 -0.6810
  111OSM   C12S11508   4.038   2.496   9.727 -0.4505 -0.0746 -0.7336
  111OSM   H12S11509   3.931   2.528   9.733 -0.3417  0.0190  1.1771
  111OSM   H12T11510   4.049   2.394   9.770  1.0312  0.5577  0.4304
  111OSM   C13S11511   4.083   2.463   9.584 -0.2443  0.1995  0.0609
  111OSM   H13S11512   4.071   2.354   9.564  0.3618 -0.1410  1.5122
  111OSM   H13T11513   4.190   2.485   9.564 -0.7435  1.1530 -1.6140
  111OSM   C14S11514   4.006   2.534   9.474 -0.0636  0.2192  0.6608
  111OSM   H14S11515   4.032   2.642   9.483 -0.8328  0.5350 -0.7697
  111OSM   H14T11516   3.899   2.513   9.492  0.0360 -0.4940  0.4289
  111OSM   C15S11517   4.058   2.493   9.336 -0.1582  0.0012 -0.4519
  111OSM   H15S11518   4.071   2.384   9.318  1.6628 -0.0758  1.2397
  111OSM   H15T11519   4.160   2.534   9.317  0.8848 -1.7500  1.1544
  111OSM   C16S11520   3.963   2.548   9.213 -0.0790  0.2190  0.3300
  111OSM   H16S11521   3.960   2.659   9.213  0.4338  0.2911 -2.7771
  111OSM   H16T11522   3.858   2.516   9.232  0.2104 -2.1293 -1.7710
  111OSM   C17S11523   4.016   2.503   9.071 -0.0133 -0.1956 -0.7988
  111OSM   H17S11524   4.015   2.392   9.063  1.5746 -0.3518  0.7669
  111OSM   H17T11525   4.125   2.526   9.078 -0.2914  1.9666 -3.0622
  111OSM   C18S11526   3.961   2.580   8.953 -0.1242  0.4543  0.1406
  111OSM   H18S11527   4.026   2.558   8.865 -0.8524 -2.3872  0.2493
  111OSM   H18T11528   3.968   2.688   8.976  0.1982  0.0875  1.7662
  111OSM   H18U11529   3.852   2.563   8.936 -0.0683  0.4825 -0.2494
  111OSM    C1F11530   4.209   2.139  10.360 -0.0803 -0.5105 -0.0842
  111OSM     OF11531   4.124   2.068  10.405  0.2021  0.1775  0.3793
  111OSM    C2F11532   4.274   2.119  10.226 -0.1072 -0.0532 -0.0081
  111OSM    H2F11533   4.325   2.020  10.222 -1.2834 -0.6047 -2.0255
  111OSM    H2G11534   4.361   2.185  10.206 -0.0017 -0.3692 -0.6353
  111OSM    C3F11535   4.180   2.107  10.105 -0.5515 -0.0335 -0.3607
  111OSM    H3F11536   4.238   2.094  10.011  3.7017  0.0216  2.1342
  111OSM    H3G11537   4.127   2.205  10.105 -0.5074 -0.0063  0.4347
  111OSM    C4F11538   4.091   1.986  10.113  0.9716  0.7298  0.1477
  111OSM    H4F11539   4.034   1.994  10.208  1.8977  1.3002  0.6637
  111OSM    H4G11540   4.155   1.895  10.119  0.4292  0.2056 -1.5171
  111OSM    C5F11541   3.995   1.967  10.000 -0.0013  0.0953 -0.4707
  111OSM    H5F11542   3.898   1.917  10.016  0.3505 -1.0573 -1.8406
  111OSM    H5G11543   4.049   1.903   9.927 -0.0659 -1.9191  1.2347
  111OSM    C6F11544   3.959   2.095   9.919 -0.7694  0.3490 -0.0929
  111OSM    H6F11545   4.051   2.150   9.890 -1.5548  1.9377  0.3748
  111OSM    H6G11546   3.903   2.168   9.982 -0.7126 -0.4348  0.8846
  111OSM    C7F11547   3.871   2.058   9.794 -0.3391  0.2702 -0.5402
  111OSM    H7F11548   3.771   2.032   9.835 -0.4924 -0.2522 -1.2319
  111OSM    H7G11549   3.925   1.964   9.770  0.3587  1.0313 -1.9897
  111OSM    C8F11550   3.870   2.170   9.698  0.9128  0.2539  0.0274
  111OSM    H8F11551   3.970   2.164   9.649  0.0528 -1.7042 -1.5430
  111OSM    H8G11552   3.866   2.264   9.758 -0.8526 -0.6462  1.3645
  111OSM    C9F11553   3.765   2.178   9.586  0.5488 -0.1613 -0.1206
  111OSM    H9F11554   3.668   2.216   9.624  0.2201 -1.0403 -0.0772
  111OSM   C10F11555   3.769   2.128   9.463  0.2842 -0.4860 -0.5838
  111OSM   H10F11556   3.681   2.133   9.397  1.2088 -2.3986 -2.0269
  111OSM   C11F11557   3.889   2.064   9.408  0.2913  0.6872  0.8072
  111OSM   H11F11558   3.913   1.979   9.475  2.0791  1.6359  1.4039
  111OSM   H11G11559   3.974   2.134   9.409  0.5267  0.4645 -0.9147
  111OSM   C12F11560   3.864   2.009   9.258  0.0551 -0.1871  0.1039
  111OSM   H12F11561   3.785   1.931   9.255 -0.5439  0.3798  1.0626
  111OSM   H12G11562   3.959   1.970   9.214 -0.5735 -0.2825 -1.1970
  111OSM   C13F11563   3.815   2.124   9.164 -0.5870  0.1452 -0.3650
  111OSM   H13F11564   3.876   2.214   9.188  0.2773 -1.3991  3.6978
  111OSM   H13G11565   3.708   2.136   9.189 -0.4465  0.3216  0.1582
  111OSM   C14F11566   3.831   2.089   9.018  1.1192 -0.0465 -0.6456
  111OSM   H14F11567   3.803   1.984   8.994  0.2803 -0.3578  1.6198
  111OSM   H14G11568   3.938   2.088   8.988  1.6324  1.0757  1.1070
  111OSM   C15F11569   3.765   2.197   8.932 -0.0072 -0.1786 -0.2937
  111OSM   H15F11570   3.826   2.290   8.929  1.2080 -0.7795  3.1078
  111OSM   H15G11571   3.662   2.229   8.958 -0.0861  0.3549 -1.2309
  111OSM   C16F11572   3.769   2.172   8.785  0.7723  0.1638 -0.0722
  111OSM   H16F11573   3.696   2.090   8.767 -1.5294  1.7423  1.7511
  111OSM   H16G11574   3.871   2.132   8.766  0.5589 -0.7639  0.6882
  111OSM   C17F11575   3.746   2.288   8.684  0.5518  0.7763 -0.6650
  111OSM   H17F11576   3.828   2.363   8.691  0.3208  0.8110  1.9910
  111OSM   H17G11577   3.648   2.330   8.714  0.5856 -0.0425  0.6174
  111OSM   C18F11578   3.756   2.247   8.537  0.5071  0.5755  0.3913
  111OSM   H18F11579   3.690   2.162   8.514  0.9661  0.1488  0.6415
  111OSM   H18G11580   3.860   2.209   8.527  0.2530 -0.0118 -0.0486
  111OSM   H18H11581   3.731   2.327   8.464  0.5195  0.9058  0.7497
  112OSM      N11582   4.903   0.050  11.225  0.5652  0.1008 -0.1833
  112OSM    C1511583   5.046   0.037  11.272 -0.1797 -0.3960 -0.4559
  112OSM   H15A11584   5.068  -0.064  11.304  1.3893  0.6089  1.7443
  112OSM   H15B11585   5.079   0.105  11.349  0.6399  0.4580 -1.5190
  112OSM   H15C11586   5.100   0.055  11.180  0.7127 -0.9518 -0.0473
  112OSM    C1411587   4.816   0.019  11.335  0.1224  0.7965 -0.1479
  112OSM   H14A11588   4.823  -0.085  11.366  1.2441  1.6327  2.5999
  112OSM   H14B11589   4.712   0.040  11.313 -0.0511  0.4129  0.2930
  112OSM   H14C11590   4.860   0.075  11.417  1.4960 -0.3702 -0.0717
  112OSM    C1311591   4.876   0.192  11.189 -0.3710  0.0558  0.0312
  112OSM   H13A11592   4.895   0.262  11.269  1.0797 -0.8141  0.4885
  112OSM   H13B11593   4.771   0.194  11.166 -0.0602  0.5346 -1.3543
  112OSM   H13C11594   4.950   0.214  11.113  1.3589 -3.4474  0.5734
  112OSM    C1211595   4.873  -0.045  11.115 -0.1510 -0.3938  0.6753
  112OSM   H12A11596   4.784  -0.013  11.063  0.3293 -0.4301 -0.1837
  112OSM   H12B11597   4.847  -0.144  11.149  0.3634 -2.4392 -4.3693
  112OSM    C1111598   4.973  -0.072  11.001 -0.6137  0.1248 -0.2317
  112OSM   H11A11599   5.015   0.021  10.956 -3.3535  1.4434 -0.1883
  112OSM   H11B11600   4.920  -0.132  10.924  1.5394 -4.1781  1.4885
  112OSM      P11601   5.163  -0.258  11.008  0.1230  0.3600 -0.0073
  112OSM    O1311602   5.297  -0.214  10.969  0.5851 -0.1307  0.0822
  112OSM    O1411603   5.155  -0.372  11.097  0.0688  0.3913  0.0592
  112OSM    O1111604   5.084  -0.295  10.881 -0.2860  0.3917  0.9072
  112OSM    O1211605   5.090  -0.136  11.058  0.5487 -0.6222 -0.1930
  112OSM    C1S11606   5.093  -0.240  10.747 -0.5544 -0.6935  0.3146
  112OSM    H1S11607   5.197  -0.222  10.714  0.3181 -3.4693  1.4249
  112OSM    H1T11608   5.033  -0.146  10.745  1.1865  0.6089  3.8460
  112OSM     NF11609   5.064  -0.316  10.517 -0.0894  0.6967 -0.1150
  112OSM    HNF11610   5.001  -0.261  10.463  1.1092  0.0133 -2.2557
  112OSM    C2S11611   5.028  -0.337  10.655 -0.2880 -0.1953  0.4183
  112OSM    H2S11612   5.064  -0.439  10.681  0.8712  0.2429  0.5700
  112OSM    C3S11613   4.872  -0.327  10.690 -0.5689 -0.4058 -0.0804
  112OSM    H3S11614   4.852  -0.219  10.676 -0.8046 -0.5564 -0.9381
  112OSM     O311615   4.847  -0.363  10.826 -0.1690 -0.0292  0.1118
  112OSM    HO311616   4.933  -0.345  10.865  1.5252  1.0511 -3.8662
  112OSM    C4S11617   4.788  -0.412  10.592 -0.1539  0.2031  0.1510
  112OSM    H4S11618   4.777  -0.367  10.493  0.4009 -0.1076 -0.0539
  112OSM    C5S11619   4.721  -0.526  10.607  0.4821 -0.1713 -0.3445
  112OSM    H5S11620   4.750  -0.589  10.692  0.1935 -0.5591 -0.5307
  112OSM    C6S11621   4.636  -0.598  10.501 -0.1775  0.8465  0.3599
  112OSM    H6S11622   4.528  -0.584  10.525 -0.2093  0.5223  0.4203
  112OSM    H6T11623   4.655  -0.707  10.510 -1.2724  0.5691 -0.5948
  112OSM    C7S11624   4.661  -0.567  10.356 -0.1326 -0.6167 -0.0913
  112OSM    H7S11625   4.638  -0.656  10.293 -2.4134  0.4923 -0.8996
  112OSM    H7T11626   4.765  -0.528  10.356 -1.1101  2.0910 -1.2514
  112OSM    C8S11627   4.577  -0.453  10.306 -0.2131 -0.2374 -0.1708
  112OSM    H8S11628   4.606  -0.355  10.350  0.3131  0.3655 -1.8152
  112OSM    H8T11629   4.474  -0.471  10.343 -0.3871  0.5386 -0.2762
  112OSM    C9S11630   4.596  -0.432  10.153  0.4277  0.2335  0.1201
  112OSM    H9S11631   4.513  -0.372  10.109  2.3634  0.3128 -3.6826
  112OSM    H9T11632   4.609  -0.529  10.101  2.6398  1.0380 -0.9265
  112OSM   C10S11633   4.729  -0.360  10.124 -0.4351 -0.4438  0.0176
  112OSM   H10S11634   4.804  -0.424  10.175  0.3178 -0.8468 -1.5730
  112OSM   H10T11635   4.717  -0.262  10.176 -1.0242  0.5248 -1.9047
  112OSM   C11S11636   4.759  -0.339   9.975  0.3001  1.0644  0.1968
  112OSM   H11S11637   4.846  -0.271   9.968  2.0350 -1.1544 -0.5154
  112OSM   H11T11638   4.671  -0.286   9.933  0.0868  0.0797 -0.6238
  112OSM   C12S11639   4.783  -0.463   9.885 -0.8917 -0.3431 -0.7240
  112OSM   H12S11640   4.691  -0.526   9.888 -0.9570 -0.2055  1.2426
  112OSM   H12T11641   4.865  -0.529   9.922  1.6355  3.0321 -0.1392
  112OSM   C13S11642   4.819  -0.416   9.746 -0.4133 -0.1508 -0.0954
  112OSM   H13S11643   4.891  -0.331   9.743 -0.4287 -0.1958 -2.9834
  112OSM   H13T11644   4.730  -0.375   9.694  1.3308  2.9207 -0.8207
  112OSM   C14S11645   4.866  -0.521   9.649 -0.1653  0.2671 -0.9325
  112OSM   H14S11646   4.798  -0.609   9.649  0.0333  0.0902  1.0885
  112OSM   H14T11647   4.970  -0.543   9.681 -0.7302  0.5410  1.1749
  112OSM   C15S11648   4.869  -0.468   9.507 -0.4095 -0.2958 -0.4773
  112OSM   H15S11649   4.953  -0.395   9.504  0.9645 -1.8661 -0.9081
  112OSM   H15T11650   4.776  -0.415   9.477  0.3441  0.4371 -1.5593
  112OSM   C16S11651   4.895  -0.580   9.410  0.1864  0.1973 -0.6009
  112OSM   H16S11652   4.903  -0.544   9.305 -1.9076  1.3049 -0.4083
  112OSM   H16T11653   4.802  -0.641   9.411  0.4632 -0.2253 -0.5896
  112OSM   C17S11654   5.030  -0.666   9.432  0.1121 -0.0496 -0.2199
  112OSM   H17S11655   5.030  -0.742   9.351  2.4496 -1.0309  0.6697
  112OSM   H17T11656   5.013  -0.727   9.524  0.6636 -1.4552 -1.0313
  112OSM   C18S11657   5.153  -0.573   9.445  0.4271  0.3239  0.4572
  112OSM   H18S11658   5.241  -0.629   9.405 -0.9730 -0.0256 -2.2179
  112OSM   H18T11659   5.169  -0.547   9.552 -1.7443  0.2920  0.8151
  112OSM   H18U11660   5.148  -0.474   9.396  0.8830  0.8547  1.4581
  112OSM    C1F11661   5.184  -0.352  10.470 -0.2798  0.0269  0.1970
  112OSM     OF11662   5.268  -0.412  10.538  0.1317  0.3118  0.6245
  112OSM    C2F11663   5.214  -0.312  10.332  0.1307 -0.3286  0.0902
  112OSM    H2F11664   5.324  -0.316  10.314  0.1644  1.4045 -0.2713
  112OSM    H2G11665   5.175  -0.209  10.317 -0.4739 -0.7259 -1.1177
  112OSM    C3F11666   5.138  -0.408  10.229 -0.1155 -0.2017  0.9470
  112OSM    H3F11667   5.036  -0.421  10.271  0.6026 -0.2317  2.7181
  112OSM    H3G11668   5.190  -0.506  10.223  0.6664  0.3667 -2.2386
  112OSM    C4F11669   5.121  -0.343  10.085  0.6994 -0.2035  0.2008
  112OSM    H4F11670   5.086  -0.237  10.091 -0.9573 -0.6226 -1.7692
  112OSM    H4G11671   5.056  -0.414  10.032  1.1512 -1.3725  1.1814
  112OSM    C5F11672   5.248  -0.336  10.003  0.4652 -0.5107  0.3296
  112OSM    H5F11673   5.303  -0.432  10.020  0.3386 -0.4406  1.1564
  112OSM    H5G11674   5.316  -0.257  10.041  0.5809 -2.5422  4.6793
  112OSM    C6F11675   5.213  -0.318   9.850  0.1087 -0.5317 -0.5190
  112OSM    H6F11676   5.166  -0.217   9.851  1.7598  0.3105 -2.4584
  112OSM    H6G11677   5.139  -0.398   9.829  1.0612 -0.9569 -2.4503
  112OSM    C7F11678   5.342  -0.334   9.762 -0.4264 -0.5438  0.3043
  112OSM    H7F11679   5.361  -0.442   9.741 -3.4826 -1.1595  0.5336
  112OSM    H7G11680   5.426  -0.297   9.824  0.4435 -0.6417 -0.7852
  112OSM    C8F11681   5.328  -0.246   9.636  0.2921  0.2589  0.0785
  112OSM    H8F11682   5.295  -0.145   9.668  1.3542  0.9750 -1.0566
  112OSM    H8G11683   5.251  -0.287   9.567  0.8942  1.3074 -1.2550
  112OSM    C9F11684   5.461  -0.259   9.563 -0.2823 -0.8984 -0.7961
  112OSM    H9F11685   5.557  -0.272   9.615 -1.2532 -1.2523  0.9260
  112OSM   C10F11686   5.470  -0.263   9.430 -0.1963  0.0573 -0.5486
  112OSM   H10F11687   5.574  -0.265   9.395  0.4711  1.2790  1.3193
  112OSM   C11F11688   5.370  -0.271   9.325 -0.5125 -0.5154 -0.1871
  112OSM   H11F11689   5.270  -0.305   9.361 -0.2190 -0.5735  0.5954
  112OSM   H11G11690   5.404  -0.336   9.242 -1.6026 -0.9191 -0.3327
  112OSM   C12F11691   5.350  -0.134   9.247 -0.0694 -0.3623  0.0367
  112OSM   H12F11692   5.363  -0.053   9.322  0.5832  1.1101 -1.6230
  112OSM   H12G11693   5.243  -0.135   9.218 -0.0702  0.3613  0.0130
  112OSM   C13F11694   5.420  -0.100   9.124 -0.2331 -0.1183 -0.2684
  112OSM   H13F11695   5.350  -0.051   9.053  2.6589  1.8057 -1.9263
  112OSM   H13G11696   5.462  -0.197   9.091  2.6082  1.2990 -1.0428
  112OSM   C14F11697   5.531   0.003   9.139  0.2943 -0.0683  0.8226
  112OSM   H14F11698   5.599  -0.040   9.216 -1.7521 -0.4367  2.4625
  112OSM   H14G11699   5.490   0.095   9.186  0.9690 -0.9832  3.2682
  112OSM   C15F11700   5.597   0.027   9.002  0.2356  0.5533  0.1136
  112OSM   H15F11701   5.609  -0.070   8.950 -3.6768  0.1034 -0.0518
  112OSM   H15G11702   5.693   0.075   9.032  0.6999  0.3034 -0.9555
  112OSM   C16F11703   5.521   0.125   8.899 -0.2344  0.5688  0.6060
  112OSM   H16F11704   5.534   0.227   8.943  0.6673  0.8083 -0.2119
  112OSM   H16G11705   5.413   0.100   8.909  0.0766 -0.5245  1.4128
  112OSM   C17F11706   5.574   0.130   8.758  0.0179 -0.4422  0.4371
  112OSM   H17F11707   5.583   0.022   8.732  0.6104 -0.2379 -0.2114
  112OSM   H17G11708   5.676   0.170   8.743  0.3568  0.0441  3.7435
  112OSM   C18F11709   5.489   0.215   8.662 -0.3964 -0.5847 -0.7063
  112OSM   H18F11710   5.550   0.297   8.617  0.3132 -0.9577 -0.4194
  112OSM   H18G11711   5.390   0.237   8.706 -0.1590  0.3851 -0.6499
  112OSM   H18H11712   5.447   0.158   8.576 -1.8648 -1.4833  0.5743
  113OSM      N11713   1.703   2.955  11.190  0.1237 -0.2304 -0.1130
  113OSM    C1511714   1.690   3.028  11.321 -0.3786  0.1595  0.2435
  113OSM   H15A11715   1.634   3.120  11.312 -0.3339  0.1087 -0.5746
  113OSM   H15B11716   1.791   3.052  11.352  0.7775 -0.9753 -2.4616
  113OSM   H15C11717   1.646   2.975  11.403  0.5087 -1.0710 -0.0684
  113OSM    C1411718   1.565   2.895  11.147 -0.5586  0.2680 -0.2428
  113OSM   H14A11719   1.570   2.853  11.048  0.2749 -2.3429  0.8438
  113OSM   H14B11720   1.496   2.976  11.132  1.3863  1.9828 -0.1751
  113OSM   H14C11721   1.528   2.814  11.209  0.2459 -1.2443 -1.7130
  113OSM    C1311722   1.728   3.073  11.101 -0.4575 -0.2815 -0.3898
  113OSM   H13A11723   1.640   3.135  11.100 -0.1616  0.1403  0.0415
  113OSM   H13B11724   1.752   3.037  11.002  0.3822 -0.0939 -0.2588
  113OSM   H13C11725   1.815   3.129  11.132 -1.1680  1.9522 -2.3068
  113OSM    C1211726   1.809   2.856  11.183 -0.6354 -0.4230 -0.0630
  113OSM   H12A11727   1.824   2.813  11.085 -0.5841 -0.6394  0.0400
  113OSM   H12B11728   1.777   2.768  11.236 -0.1969 -0.6822 -0.2196
  113OSM    C1111729   1.947   2.896  11.237  0.5909  0.8645  0.1498
  113OSM   H11A11730   2.016   2.809  11.237  1.0709  1.2427  0.5756
  113OSM   H11B11731   1.941   2.938  11.340 -0.9767  3.4733 -0.9411
  113OSM      P11732   2.069   2.960  11.023 -0.3903 -0.1783 -0.1251
  113OSM    O1311733   2.214   2.989  11.034 -0.0752  0.2807  0.4926
  113OSM    O1411734   2.032   2.824  10.972 -0.9139  0.1584  0.3620
  113OSM    O1111735   2.004   3.073  10.936  0.1957  0.5439 -0.1539
  113OSM    O1211736   2.003   2.993  11.159  0.3007 -0.1767 -0.3202
  113OSM    C1S11737   2.073   3.123  10.819 -1.3739 -0.4400  0.4599
  113OSM    H1S11738   2.087   3.042  10.743 -1.0330 -0.8048  0.9106
  113OSM    H1T11739   2.178   3.154  10.835 -1.6876  2.1881 -2.0783
  113OSM     NF11740   2.057   3.272  10.622  0.3102  0.2194 -0.1749
  113OSM    HNF11741   2.128   3.341  10.627 -1.5831  2.0402  3.9196
  113OSM    C2S11742   1.997   3.244  10.752 -0.9507 -0.1301  0.0720
  113OSM    H2S11743   1.891   3.219  10.734 -0.8893  0.2750 -0.9011
  113OSM    C3S11744   1.998   3.371  10.843  0.7289  0.4728  0.6669
  113OSM    H3S11745   2.101   3.401  10.873  0.9511  1.1847 -0.7718
  113OSM     O311746   1.930   3.342  10.962  0.3113 -0.3663  0.0152
  113OSM    HO311747   1.918   3.247  10.966 -3.0365  0.0316  2.2308
  113OSM    C4S11748   1.920   3.477  10.777  0.5426  0.2644  0.0470
  113OSM    H4S11749   1.816   3.489  10.808  0.8317  1.2159  0.6599
  113OSM    C5S11750   1.971   3.565  10.689  0.5286  0.1163 -0.0847
  113OSM    H5S11751   2.081   3.565  10.691  0.5335  0.6835 -0.1590
  113OSM    C6S11752   1.894   3.674  10.624  0.7028 -0.7374  0.1146
  113OSM    H6S11753   1.939   3.772  10.650 -0.2614  0.4625 -2.5943
  113OSM    H6T11754   1.785   3.676  10.647  0.6448 -1.1041 -0.1237
  113OSM    C7S11755   1.911   3.667  10.474 -0.4182 -0.3233 -0.6131
  113OSM    H7S11756   1.849   3.750  10.435  0.9684  0.4425 -1.2222
  113OSM    H7T11757   1.867   3.574  10.433 -1.2602 -0.0011 -0.4555
  113OSM    C8S11758   2.059   3.685  10.422  0.8653  0.3813  0.3753
  113OSM    H8S11759   2.103   3.592  10.465 -0.0229 -0.1724  0.1076
  113OSM    H8T11760   2.110   3.768  10.474  1.8720  0.5114 -0.8035
  113OSM    C9S11761   2.068   3.715  10.274 -0.0113 -0.2054 -0.0666
  113OSM    H9S11762   2.169   3.758  10.257  0.4303 -0.8258  0.9041
  113OSM    H9T11763   1.997   3.798  10.252 -0.7787 -0.3296  1.8663
  113OSM   C10S11764   2.039   3.585  10.183  1.0243  0.5048 -0.2842
  113OSM   H10S11765   1.935   3.548  10.198  1.6573 -1.5911 -0.8534
  113OSM   H10T11766   2.105   3.502  10.216  0.2147  0.9186  2.4900
  113OSM   C11S11767   2.085   3.601  10.035 -0.3663 -0.3067 -0.1989
  113OSM   H11S11768   2.096   3.505   9.979  2.8470 -1.2467  1.9467
  113OSM   H11T11769   2.188   3.642  10.035 -0.2870 -0.4484  1.9835
  113OSM   C12S11770   1.987   3.690   9.960 -0.6393  0.0446  0.3289
  113OSM   H12S11771   1.982   3.794  10.000  0.3418  0.9553 -1.8080
  113OSM   H12T11772   1.886   3.645   9.955 -0.2080 -0.8656 -0.4073
  113OSM   C13S11773   2.036   3.706   9.813 -0.0723 -0.3665 -0.7085
  113OSM   H13S11774   2.058   3.603   9.777 -0.8454  0.1041 -2.5546
  113OSM   H13T11775   2.133   3.760   9.822 -0.6323  1.0142 -2.5707
  113OSM   C14S11776   1.947   3.766   9.712  0.9968 -0.4587 -0.0030
  113OSM   H14S11777   1.936   3.874   9.736 -1.7845 -0.4807 -0.9951
  113OSM   H14T11778   1.846   3.721   9.722  0.3335  0.3241 -2.6919
  113OSM   C15S11779   2.002   3.770   9.565  0.2343 -0.6899  0.5556
  113OSM   H15S11780   2.024   3.669   9.525  1.2891  1.3538 -4.3892
  113OSM   H15T11781   2.085   3.844   9.566 -0.7673  0.4702  2.7844
  113OSM   C16S11782   1.896   3.842   9.477  0.2339  0.0486 -0.7003
  113OSM   H16S11783   1.874   3.941   9.523  0.2710  0.0807 -0.7521
  113OSM   H16T11784   1.804   3.779   9.478  1.4212 -1.8168 -3.5961
  113OSM   C17S11785   1.936   3.864   9.330  0.1271 -0.2564  0.2317
  113OSM   H17S11786   2.020   3.936   9.319  0.2712 -0.8057 -2.9504
  113OSM   H17T11787   1.843   3.907   9.285  0.2728 -0.8044 -0.5929
  113OSM   C18S11788   1.973   3.740   9.245  0.1423  0.5286  0.4815
  113OSM   H18S11789   1.974   3.773   9.139  1.6770 -0.7933  0.0610
  113OSM   H18T11790   1.895   3.662   9.259  0.0019  0.2509 -1.6908
  113OSM   H18U11791   2.075   3.703   9.270 -0.1192 -0.6378 -0.1835
  113OSM    C1F11792   2.029   3.201  10.509  0.2803  0.7719 -0.3966
  113OSM     OF11793   1.966   3.097  10.522  0.0950 -0.2101 -0.7241
  113OSM    C2F11794   2.077   3.262  10.378  0.1500 -0.3224 -0.0059
  113OSM    H2F11795   2.170   3.323  10.385 -0.3603  0.3275  1.2090
  113OSM    H2G11796   1.995   3.330  10.347 -0.8701 -0.8398  1.5428
  113OSM    C3F11797   2.093   3.150  10.269  0.4554  0.3757 -0.0056
  113OSM    H3F11798   2.012   3.073  10.275 -1.5720  2.1024 -3.4871
  113OSM    H3G11799   2.186   3.092  10.287  0.3087  0.0125 -0.4124
  113OSM    C4F11800   2.092   3.211  10.134  0.3477  0.3073  0.2114
  113OSM    H4F11801   2.152   3.304  10.129  0.6137  0.0053 -3.0881
  113OSM    H4G11802   1.990   3.246  10.106  0.2127 -0.8576 -0.8031
  113OSM    C5F11803   2.147   3.121  10.014  0.0616 -0.6798  0.2191
  113OSM    H5F11804   2.090   3.028  10.033 -0.2004 -0.1923  1.9332
  113OSM    H5G11805   2.255   3.110  10.037  0.3505 -1.3476 -1.3444
  113OSM    C6F11806   2.112   3.176   9.868 -0.4135  0.2954  0.3853
  113OSM    H6F11807   2.127   3.286   9.866  1.7693 -0.0081 -0.7677
  113OSM    H6G11808   2.003   3.168   9.851 -0.5811  0.5845  1.2829
  113OSM    C7F11809   2.178   3.096   9.747 -0.9207  0.8655 -0.4579
  113OSM    H7F11810   2.159   2.990   9.773  2.5722  0.5243  1.0799
  113OSM    H7G11811   2.287   3.112   9.767 -1.2279  1.4488  0.7816
  113OSM    C8F11812   2.133   3.154   9.616 -0.3013  0.5420 -0.2053
  113OSM    H8F11813   2.122   3.262   9.638  0.2164  0.7120 -0.7781
  113OSM    H8G11814   2.026   3.136   9.594 -0.8260  2.4699  0.6732
  113OSM    C9F11815   2.219   3.103   9.500  0.3227  0.1650 -0.1449
  113OSM    H9F11816   2.285   3.019   9.523 -0.1460 -1.0397 -2.9930
  113OSM   C10F11817   2.227   3.160   9.379 -0.7598  0.1481 -0.0260
  113OSM   H10F11818   2.294   3.115   9.303 -0.0580  0.5784  0.3308
  113OSM   C11F11819   2.153   3.286   9.348  0.2687  0.3452 -0.3942
  113OSM   H11F11820   2.212   3.356   9.284  1.4087  0.9316  1.2641
  113OSM   H11G11821   2.134   3.342   9.442  0.6627 -2.0511  1.1534
  113OSM   C12F11822   2.014   3.260   9.292 -0.3206 -0.1706 -0.2032
  113OSM   H12F11823   1.951   3.224   9.377  0.4234 -2.2737 -0.5322
  113OSM   H12G11824   2.014   3.183   9.212  1.2973 -0.1913 -0.1979
  113OSM   C13F11825   1.947   3.388   9.227  0.1346  0.0423 -0.6851
  113OSM   H13F11826   2.028   3.451   9.185 -0.3294  1.0345 -0.1185
  113OSM   H13G11827   1.885   3.453   9.293  1.9787  1.8038 -0.6501
  113OSM   C14F11828   1.861   3.355   9.104  0.4720 -0.0141  0.4490
  113OSM   H14F11829   1.781   3.283   9.133 -0.0621  0.0863 -0.7053
  113OSM   H14G11830   1.917   3.304   9.023 -5.0618 -2.2718 -2.2283
  113OSM   C15F11831   1.798   3.483   9.031  0.0713  0.0257 -0.1003
  113OSM   H15F11832   1.877   3.537   8.975  0.1299  0.8302  0.7606
  113OSM   H15G11833   1.748   3.547   9.106 -1.1869 -0.2033 -0.7183
  113OSM   C16F11834   1.679   3.427   8.946  0.4142 -0.3328 -0.4452
  113OSM   H16F11835   1.596   3.497   8.925  0.8270  0.1851 -0.3477
  113OSM   H16G11836   1.644   3.332   8.992  1.5156 -1.0358 -1.0452
  113OSM   C17F11837   1.726   3.404   8.810 -0.3106 -0.4665 -0.5423
  113OSM   H17F11838   1.812   3.334   8.803  0.3608  0.4548 -1.8301
  113OSM   H17G11839   1.758   3.500   8.764  1.9982 -0.5670  0.7882
  113OSM   C18F11840   1.621   3.343   8.722  0.3969 -0.4335 -0.0948
  113OSM   H18F11841   1.529   3.405   8.721  0.5392 -0.2242 -1.6068
  113OSM   H18G11842   1.610   3.238   8.756  0.5093 -0.1541  0.8208
  113OSM   H18H11843   1.647   3.336   8.614 -0.8689  0.6499 -0.4787
  114OSM      N11844   3.106   6.492  10.865  0.6022  0.2017  0.4327
  114OSM    C1511845   3.067   6.526  10.723 -0.0122  0.0850 -0.8387
  114OSM   H15A11846   3.146   6.561  10.658  0.6045 -1.5651 -1.0081
  114OSM   H15B11847   2.983   6.594  10.728 -0.4830 -0.6528  2.5121
  114OSM   H15C11848   3.034   6.431  10.684 -2.0115  0.7492 -0.8126
  114OSM    C1411849   3.153   6.621  10.928 -0.0121  1.0104 -0.6762
  114OSM   H14A11850   3.189   6.598  11.028 -1.7010 -0.0216 -0.2829
  114OSM   H14B11851   3.072   6.691  10.926 -3.5231 -2.7419  1.2226
  114OSM   H14C11852   3.238   6.656  10.871  1.7984  0.0742  1.3462
  114OSM    C1311853   2.979   6.464  10.937  0.3835  0.2739  0.2120
  114OSM   H13A11854   2.914   6.550  10.932  1.4138  1.1088  0.8807
  114OSM   H13B11855   2.996   6.458  11.044  0.4665  1.7979  0.2967
  114OSM   H13C11856   2.937   6.374  10.894  0.6262  0.9156 -1.4108
  114OSM    C1211857   3.199   6.376  10.876  1.0257  0.5648 -0.2445
  114OSM   H12A11858   3.157   6.297  10.816  1.0002 -0.0113  0.5131
  114OSM   H12B11859   3.211   6.351  10.981 -0.5526  1.4588  0.1607
  114OSM    C1111860   3.344   6.402  10.824  0.5402 -0.5799  0.8892
  114OSM   H11A11861   3.367   6.510  10.836 -0.8446 -0.1131 -0.3855
  114OSM   H11B11862   3.352   6.378  10.716  2.4552  0.5337  0.7647
  114OSM      P11863   3.437   6.170  10.895 -0.0246 -0.2261  0.1958
  114OSM    O1311864   3.466   6.128  11.034 -0.0386 -0.4110 -0.4469
  114OSM    O1411865   3.315   6.120  10.830  0.5070 -0.2619 -0.1540
  114OSM    O1111866   3.557   6.134  10.804  0.6021 -0.5165 -0.8152
  114OSM    O1211867   3.437   6.327  10.898  0.5941 -0.0903 -0.0688
  114OSM    C1S11868   3.550   6.095  10.672 -0.0312  0.2421  0.1053
  114OSM    H1S11869   3.447   6.079  10.634 -1.1166 -0.1210  3.0239
  114OSM    H1T11870   3.590   5.992  10.659 -1.1140 -0.1472 -0.1850
  114OSM     NF11871   3.608   6.172  10.439 -0.3293  0.4104  0.1346
  114OSM    HNF11872   3.688   6.135  10.392  0.0202 -0.6656  1.5401
  114OSM    C2S11873   3.631   6.193  10.579 -0.4749 -0.1423 -0.2014
  114OSM    H2S11874   3.602   6.297  10.606 -0.4990 -0.6018  1.6266
  114OSM    C3S11875   3.793   6.187  10.616  0.3431 -0.1276 -0.1070
  114OSM    H3S11876   3.827   6.083  10.595  1.9530  0.5426 -0.8766
  114OSM     O311877   3.819   6.227  10.752  0.4827  0.4234  0.6591
  114OSM    HO311878   3.743   6.202  10.804  0.3895  0.7953  0.6960
  114OSM    C4S11879   3.872   6.277  10.531 -0.3582 -0.1739  0.4553
  114OSM    H4S11880   3.842   6.382  10.520  1.3783  0.2444 -0.5330
  114OSM    C5S11881   3.979   6.238  10.456  0.1069  0.4961 -0.1862
  114OSM    H5S11882   4.003   6.131  10.453 -0.2471  0.3236  2.1678
  114OSM    C6S11883   4.059   6.334  10.365 -0.0156  0.5483 -0.3602
  114OSM    H6S11884   4.170   6.324  10.367  0.0251  0.5268 -1.9325
  114OSM    H6T11885   4.052   6.442  10.390 -0.2617 -0.0610  2.3608
  114OSM    C7S11886   4.012   6.306  10.215  0.1916  0.4819 -0.1847
  114OSM    H7S11887   3.904   6.335  10.215  0.4606  1.5036 -0.1447
  114OSM    H7T11888   4.026   6.200  10.185  0.6751  0.4627  0.1133
  114OSM    C8S11889   4.082   6.397  10.121  0.1993 -0.3159  0.7251
  114OSM    H8S11890   4.183   6.421  10.159  1.2203 -2.5347 -0.5029
  114OSM    H8T11891   4.031   6.495  10.106  0.6482 -0.3471 -1.1338
  114OSM    C9S11892   4.087   6.314   9.989  0.2335  0.1347 -0.2961
  114OSM    H9S11893   4.032   6.218   9.992  0.8565 -0.1947  1.6874
  114OSM    H9T11894   4.192   6.291   9.964  0.3737 -0.3060  0.6751
  114OSM   C10S11895   4.036   6.399   9.869 -1.1094 -0.2881  0.4556
  114OSM   H10S11896   4.101   6.488   9.853  1.1053 -1.7443  1.0609
  114OSM   H10T11897   3.936   6.433   9.901 -1.6804  0.6240 -2.1336
  114OSM   C11S11898   4.021   6.317   9.738  0.0743  0.2131  0.0794
  114OSM   H11S11899   3.916   6.283   9.733 -0.6573  2.3480  0.3950
  114OSM   H11T11900   4.084   6.226   9.740 -0.6839 -0.3904 -2.4393
  114OSM   C12S11901   4.049   6.390   9.607 -0.5060  0.2115  0.3403
  114OSM   H12S11902   4.158   6.406   9.597 -0.3896  0.2957  1.7165
  114OSM   H12T11903   3.992   6.485   9.621  1.0263  0.9718  1.5106
  114OSM   C13S11904   3.988   6.325   9.483  0.3777 -0.0657  0.0260
  114OSM   H13S11905   3.877   6.319   9.481  0.4033 -0.2174 -1.5493
  114OSM   H13T11906   4.029   6.223   9.468 -0.4140 -0.5526  1.1081
  114OSM   C14S11907   4.026   6.399   9.353  0.0246 -0.4006  0.2360
  114OSM   H14S11908   4.137   6.401   9.340  0.8330 -0.3255  5.9189
  114OSM   H14T11909   3.982   6.500   9.361 -2.7668 -1.5779  0.2630
  114OSM   C15S11910   3.958   6.347   9.223  0.5640 -0.3498  0.5213
  114OSM   H15S11911   3.858   6.308   9.252 -0.4436  1.8327  0.0897
  114OSM   H15T11912   4.028   6.268   9.189  0.8546  0.7565 -1.4969
  114OSM   C16S11913   3.945   6.443   9.109 -0.4781  0.7374  0.3521
  114OSM   H16S11914   4.049   6.480   9.097  0.4646 -1.8747  0.1547
  114OSM   H16T11915   3.868   6.523   9.117 -0.2163  1.0325 -0.0845
  114OSM   C17S11916   3.904   6.376   8.979  0.8285 -0.2969 -0.1315
  114OSM   H17S11917   3.808   6.324   9.001  1.0603 -0.8286 -0.3604
  114OSM   H17T11918   3.979   6.302   8.945 -2.0365 -2.9845 -0.7776
  114OSM   C18S11919   3.874   6.474   8.865  0.3510  0.0329 -0.1779
  114OSM   H18S11920   3.961   6.543   8.862 -0.4683  0.9914 -2.8050
  114OSM   H18T11921   3.782   6.535   8.877  1.1359  1.2323 -0.2214
  114OSM   H18U11922   3.871   6.427   8.765 -0.6321  1.4354 -0.8167
  114OSM    C1F11923   3.492   6.174  10.379 -0.2631 -0.0260 -0.3827
  114OSM     OF11924   3.395   6.214  10.442  0.4909 -0.2378 -0.0454
  114OSM    C2F11925   3.478   6.118  10.245 -0.0908  1.0239  0.3381
  114OSM    H2F11926   3.406   6.034  10.235 -0.0197  1.0706 -0.6036
  114OSM    H2G11927   3.569   6.068  10.205 -0.9496 -0.7604  0.5625
  114OSM    C3F11928   3.456   6.230  10.135 -0.8254 -0.3726 -0.0376
  114OSM    H3F11929   3.539   6.302  10.153  0.0045 -0.9731 -1.3536
  114OSM    H3G11930   3.366   6.290  10.159  0.8852  3.1580 -2.0538
  114OSM    C4F11931   3.450   6.173   9.994 -0.4493 -0.5729  0.4679
  114OSM    H4F11932   3.344   6.148   9.968  0.3127 -0.9877 -2.3205
  114OSM    H4G11933   3.526   6.094   9.977 -0.2894 -0.7336  1.8793
  114OSM    C5F11934   3.479   6.283   9.886  0.8626 -0.3040 -0.4515
  114OSM    H5F11935   3.583   6.320   9.896  1.0463 -0.7664 -0.6131
  114OSM    H5G11936   3.407   6.364   9.908  1.2325 -0.6817  2.2841
  114OSM    C6F11937   3.451   6.232   9.746 -0.2038 -0.3819  0.4466
  114OSM    H6F11938   3.343   6.206   9.734  0.0834 -1.1166 -0.6311
  114OSM    H6G11939   3.513   6.141   9.727  1.6321  0.8979  0.2427
  114OSM    C7F11940   3.484   6.337   9.630  0.1380  0.9056 -0.0431
  114OSM    H7F11941   3.590   6.324   9.600  0.0410 -0.6570  0.2496
  114OSM    H7G11942   3.468   6.437   9.675  1.9930  0.5372  1.5131
  114OSM    C8F11943   3.414   6.299   9.505  0.1367 -0.2116  0.4125
  114OSM    H8F11944   3.434   6.382   9.434  0.4461 -2.4797 -2.2211
  114OSM    H8G11945   3.308   6.309   9.534 -0.0931 -0.2730 -0.3982
  114OSM    C9F11946   3.448   6.163   9.449  0.2283  0.1901  0.0133
  114OSM    H9F11947   3.412   6.077   9.507  2.2255 -1.0057 -0.4566
  114OSM   C10F11948   3.517   6.130   9.341  0.3070  0.4292  0.0291
  114OSM   H10F11949   3.516   6.025   9.307  0.0757  0.9027 -1.5007
  114OSM   C11F11950   3.576   6.222   9.240 -0.3986 -0.0393 -0.6660
  114OSM   H11F11951   3.671   6.183   9.197  0.4194  0.9202  0.2542
  114OSM   H11G11952   3.613   6.315   9.288 -0.8218 -0.5959  0.7634
  114OSM   C12F11953   3.478   6.270   9.128  0.8416 -0.4170 -0.3784
  114OSM   H12F11954   3.535   6.341   9.065 -0.3280 -0.4004 -1.4271
  114OSM   H12G11955   3.389   6.320   9.170  0.9949 -1.3392  1.0959
  114OSM   C13F11956   3.419   6.152   9.043  0.0807  0.2202 -0.1821
  114OSM   H13F11957   3.366   6.086   9.115  1.3252 -1.0456 -0.3992
  114OSM   H13G11958   3.498   6.090   8.994  0.7268  1.9367 -1.3499
  114OSM   C14F11959   3.311   6.193   8.940  0.5729  0.2460  0.4079
  114OSM   H14F11960   3.235   6.261   8.985  2.6502  2.5852  0.5033
  114OSM   H14G11961   3.256   6.098   8.927  0.4321  0.4334 -0.3711
  114OSM   C15F11962   3.354   6.237   8.800 -0.0263 -0.0353  0.3738
  114OSM   H15F11963   3.414   6.159   8.748 -1.5531 -0.1802 -1.2288
  114OSM   H15G11964   3.424   6.322   8.819  1.0477 -1.1212  1.3562
  114OSM   C16F11965   3.234   6.275   8.723 -0.1688 -0.3898 -0.0587
  114OSM   H16F11966   3.185   6.363   8.770 -3.0486 -1.0450 -1.6855
  114OSM   H16G11967   3.162   6.189   8.727 -0.4879 -0.1713 -0.9992
  114OSM   C17F11968   3.271   6.301   8.576  0.3236  0.4565 -0.4800
  114OSM   H17F11969   3.181   6.329   8.516 -0.7161 -0.4017  0.6500
  114OSM   H17G11970   3.295   6.203   8.529 -0.9005  0.1785 -0.5452
  114OSM   C18F11971   3.385   6.402   8.555  0.2152  0.2130  0.2645
  114OSM   H18F11972   3.372   6.505   8.596  1.5323  1.0408 -1.3414
  114OSM   H18G11973   3.405   6.404   8.446 -1.3577  0.4540 -0.0262
  114OSM   H18H11974   3.474   6.359   8.606  1.8524  0.3729 -2.3492
  115OSM      N11975   1.235   5.327  11.166 -0.1091  0.6385  0.0168
  115OSM    C1511976   1.348   5.290  11.259 -0.0743  0.7511 -0.1932
  115OSM   H15A11977   1.315   5.219  11.334  2.6426 -0.9338 -0.5133
  115OSM   H15B11978   1.383   5.377  11.313  2.6194 -1.7510  2.2222
  115OSM   H15C11979   1.437   5.255  11.208 -1.0528 -2.0073 -0.0901
  115OSM    C1411980   1.114   5.363  11.242  0.6592 -0.0360 -0.1962
  115OSM   H14A11981   1.122   5.456  11.296  1.3248  0.2177 -0.7231
  115OSM   H14B11982   1.074   5.279  11.297 -0.0414  0.6660  0.3779
  115OSM   H14C11983   1.036   5.384  11.170 -0.4815 -0.2786  0.9466
  115OSM    C1311984   1.283   5.449  11.093  0.0928  0.1239  0.1423
  115OSM   H13A11985   1.208   5.463  11.016 -1.2692  0.9141  1.5834
  115OSM   H13B11986   1.376   5.433  11.041  1.4274  0.9139  2.2226
  115OSM   H13C11987   1.310   5.527  11.162  0.8632  0.6139 -0.7104
  115OSM    C1211988   1.212   5.218  11.071 -0.6806  1.0687  0.0389
  115OSM   H12A11989   1.207   5.128  11.131  0.2143  1.2676  0.4119
  115OSM   H12B11990   1.298   5.194  11.011 -0.8009  0.0594  0.2436
  115OSM    C1111991   1.095   5.227  10.977 -0.6749  0.2882 -0.3939
  115OSM   H11A11992   1.106   5.151  10.896  0.4837  0.4914 -0.4338
  115OSM   H11B11993   1.098   5.327  10.929  0.0972 -0.1048 -1.1770
  115OSM      P11994   0.894   5.068  11.045  0.1507  0.2724  0.3505
  115OSM    O1311995   0.995   4.959  11.065 -0.0390  0.0704  0.1603
  115OSM    O1411996   0.782   5.077  11.146  0.5209  0.1469  0.2085
  115OSM    O1111997   0.844   5.047  10.901  0.1920  0.2205 -0.4313
  115OSM    O1211998   0.964   5.208  11.037  0.3662  0.1015  0.8333
  115OSM    C1S11999   0.825   5.150  10.795 -1.0395  0.2809  0.4048
  115OSM    H1S12000   0.915   5.214  10.785  0.6791 -1.8638  1.7453
  115OSM    H1T12001   0.751   5.227  10.825 -1.3026  0.0633  0.3199
  115OSM     NF12002   0.743   5.201  10.565 -0.2305 -0.2493  0.5811
  115OSM    HNF12003   0.647   5.211  10.541 -0.2680  1.5703  1.4064
  115OSM    C2S12004   0.784   5.091  10.655  0.6246 -0.7903 -0.1267
  115OSM    H2S12005   0.873   5.044  10.608  1.0226  0.2367 -0.4308
  115OSM    C3S12006   0.668   4.979  10.674 -0.4344 -0.5669  0.0480
  115OSM    H3S12007   0.584   5.024  10.730  0.4288 -0.0677  0.9552
  115OSM     O312008   0.703   4.864  10.747 -0.2151 -0.3919  0.5696
  115OSM    HO312009   0.759   4.897  10.817 -0.8402 -0.1321  0.9579
  115OSM    C4S12010   0.623   4.947  10.538 -0.3198  0.1584  0.6122
  115OSM    H4S12011   0.526   4.992  10.513 -0.4859 -1.2732 -1.5340
  115OSM    C5S12012   0.671   4.852  10.455  0.2504 -0.1395  0.7971
  115OSM    H5S12013   0.750   4.783  10.490 -0.3830 -0.3856  1.7800
  115OSM    C6S12014   0.627   4.815  10.314 -0.4253  0.0849 -0.4653
  115OSM    H6S12015   0.578   4.715  10.309 -1.6016  0.6515 -0.1724
  115OSM    H6T12016   0.715   4.820  10.246 -0.4250 -0.3218 -0.4949
  115OSM    C7S12017   0.515   4.914  10.254 -0.9704  0.6225  0.0103
  115OSM    H7S12018   0.548   5.016  10.283 -0.3280  0.6832 -0.9296
  115OSM    H7T12019   0.422   4.898  10.312 -1.2439 -2.0299 -1.1238
  115OSM    C8S12020   0.482   4.894  10.109 -0.1403 -0.3031  0.5323
  115OSM    H8S12021   0.578   4.903  10.054 -0.1104 -2.4383  0.1996
  115OSM    H8T12022   0.422   4.980  10.072 -0.2514 -0.1327  1.1098
  115OSM    C9S12023   0.404   4.773  10.071 -0.2878  1.0300  0.8605
  115OSM    H9S12024   0.324   4.757  10.145  1.8178  2.9468  3.6162
  115OSM    H9T12025   0.474   4.686  10.072 -2.2528 -0.6665 -1.1037
  115OSM   C10S12026   0.352   4.764   9.925 -0.3701 -0.2389 -0.6286
  115OSM   H10S12027   0.274   4.843   9.922 -0.9997 -0.8940 -1.9230
  115OSM   H10T12028   0.304   4.664   9.916  0.7946 -0.8163 -0.5303
  115OSM   C11S12029   0.458   4.782   9.820 -0.4084 -0.5894  0.1202
  115OSM   H11S12030   0.531   4.698   9.817 -0.3501 -0.5454  0.3585
  115OSM   H11T12031   0.507   4.880   9.836  1.5743 -1.3493 -1.0814
  115OSM   C12S12032   0.394   4.795   9.682  0.1697  0.7596 -0.1647
  115OSM   H12S12033   0.314   4.717   9.673  0.9609 -0.1413  0.4848
  115OSM   H12T12034   0.466   4.776   9.600 -0.4014 -0.9807 -0.3019
  115OSM   C13S12035   0.325   4.935   9.657  0.4736  0.4097  0.2963
  115OSM   H13S12036   0.406   5.011   9.651 -0.0598  1.0755  1.3044
  115OSM   H13T12037   0.263   4.945   9.749 -1.6369 -2.1300 -0.8084
  115OSM   C14S12038   0.237   4.954   9.529 -0.2580 -0.0498 -0.1077
  115OSM   H14S12039   0.168   5.038   9.551  0.4542  0.1946  1.2499
  115OSM   H14T12040   0.185   4.856   9.526  2.3061 -1.5581  2.0244
  115OSM   C15S12041   0.298   4.978   9.388 -0.5823  0.3860 -0.4113
  115OSM   H15S12042   0.352   4.890   9.349 -1.2929 -0.1078 -0.2929
  115OSM   H15T12043   0.372   5.061   9.389 -2.0150  1.7095 -0.8871
  115OSM   C16S12044   0.197   5.030   9.279 -0.1613  0.8067 -0.1060
  115OSM   H16S12045   0.206   5.140   9.276  0.1918  0.7561 -1.9827
  115OSM   H16T12046   0.087   5.015   9.287 -0.4167  2.0883 -1.0372
  115OSM   C17S12047   0.233   4.982   9.135  0.2560 -0.1744  0.3414
  115OSM   H17S12048   0.236   4.872   9.143 -1.0717 -0.2616 -0.1203
  115OSM   H17T12049   0.335   5.021   9.116  0.3807 -0.7678 -0.2172
  115OSM   C18S12050   0.141   5.016   9.010  0.6584 -0.0473  0.7636
  115OSM   H18S12051   0.158   5.120   8.976  1.7936 -0.6524 -0.5561
  115OSM   H18T12052   0.035   5.005   9.043  0.1645  2.4043  0.0796
  115OSM   H18U12053   0.167   4.947   8.927 -0.0274 -0.0153  0.5233
  115OSM    C1F12054   0.823   5.296  10.522  0.4631 -0.1967 -0.0819
  115OSM     OF12055   0.935   5.309  10.573  0.9114 -0.1930 -0.2772
  115OSM    C2F12056   0.768   5.400  10.431 -0.1782 -0.0241  0.0904
  115OSM    H2F12057   0.697   5.462  10.489  0.4385  0.4884  0.3015
  115OSM    H2G12058   0.704   5.351  10.355  0.0326  0.5900 -0.4908
  115OSM    C3F12059   0.878   5.481  10.362  0.7128 -0.1349  0.5672
  115OSM    H3F12060   0.954   5.413  10.317  1.5827  1.1478  0.0861
  115OSM    H3G12061   0.942   5.537  10.433 -0.1733 -0.4267  1.6212
  115OSM    C4F12062   0.824   5.580  10.257 -0.5781 -0.1720  0.1344
  115OSM    H4F12063   0.911   5.634  10.215 -0.3514 -1.8412 -1.5867
  115OSM    H4G12064   0.770   5.664  10.308 -2.0456 -0.5063 -0.8415
  115OSM    C5F12065   0.724   5.519  10.158 -0.1937  0.1732 -0.1302
  115OSM    H5F12066   0.638   5.496  10.224 -0.7720  1.2235 -0.5239
  115OSM    H5G12067   0.765   5.424  10.115  1.3273  1.1029 -0.7741
  115OSM    C6F12068   0.664   5.612  10.046  0.6715  0.5408 -0.3045
  115OSM    H6F12069   0.647   5.713  10.090 -1.5235 -0.8545  2.2302
  115OSM    H6G12070   0.567   5.571  10.010  1.9001 -1.2365 -1.6761
  115OSM    C7F12071   0.754   5.627   9.918  0.4506  0.5698  0.1636
  115OSM    H7F12072   0.859   5.598   9.941  0.6743  1.2741  0.0501
  115OSM    H7G12073   0.756   5.733   9.887 -2.2807  1.0963  1.6512
  115OSM    C8F12074   0.703   5.529   9.807  0.3571  0.2854  0.0178
  115OSM    H8F12075   0.669   5.434   9.852 -0.0829  0.5417  0.2299
  115OSM    H8G12076   0.785   5.503   9.736  0.5070 -1.1458  0.7003
  115OSM    C9F12077   0.591   5.586   9.724 -0.8919  0.5309 -0.6251
  115OSM    H9F12078   0.499   5.609   9.780 -2.0012 -1.7217 -1.4514
  115OSM   C10F12079   0.600   5.608   9.596  0.3079 -0.4106  0.0365
  115OSM   H10F12080   0.512   5.654   9.548  0.7598  0.8869  0.4384
  115OSM   C11F12081   0.713   5.600   9.502  0.5166  0.1664  0.0164
  115OSM   H11F12082   0.806   5.566   9.554 -0.5091  0.4601  2.0795
  115OSM   H11G12083   0.733   5.698   9.455  0.4659 -0.8595 -2.1791
  115OSM   C12F12084   0.707   5.500   9.384  0.1739 -0.4447 -0.6763
  115OSM   H12F12085   0.635   5.419   9.410 -1.4813  1.0178 -0.6490
  115OSM   H12G12086   0.806   5.449   9.380 -0.0584 -1.1745  2.0153
  115OSM   C13F12087   0.669   5.558   9.245  0.5846  0.6166  0.3456
  115OSM   H13F12088   0.750   5.627   9.212  1.1484 -0.5423 -0.7057
  115OSM   H13G12089   0.572   5.613   9.255 -0.6093 -1.5737  1.0485
  115OSM   C14F12090   0.640   5.462   9.131  0.3418 -0.5822  0.3922
  115OSM   H14F12091   0.537   5.421   9.141 -0.5484  1.2104 -1.0392
  115OSM   H14G12092   0.703   5.370   9.139 -0.7731 -1.4086 -0.1092
  115OSM   C15F12093   0.670   5.536   8.996 -0.7253 -0.1689 -0.4961
  115OSM   H15F12094   0.780   5.552   8.984 -0.2274 -1.8530  1.5326
  115OSM   H15G12095   0.616   5.631   9.014 -0.0272  0.2203 -0.4327
  115OSM   C16F12096   0.620   5.465   8.866 -0.2878  0.7594  0.2774
  115OSM   H16F12097   0.643   5.538   8.785 -1.3083 -2.2174 -2.8398
  115OSM   H16G12098   0.511   5.463   8.883 -0.2405 -2.7168  0.5241
  115OSM   C17F12099   0.694   5.334   8.840  0.4921 -0.5029  0.0688
  115OSM   H17F12100   0.646   5.252   8.898  0.9431 -0.1615  0.9435
  115OSM   H17G12101   0.801   5.344   8.869  0.7793 -1.0717 -0.7605
  115OSM   C18F12102   0.686   5.317   8.688  0.4381 -0.6187  1.2483
  115OSM   H18F12103   0.733   5.402   8.634 -0.2266 -0.9494  0.1426
  115OSM   H18G12104   0.584   5.301   8.647  1.4548  0.5616 -1.8675
  115OSM   H18H12105   0.742   5.228   8.653 -0.5037 -0.6492 -0.2128
  116OSM      N12106   3.606   1.574  11.319 -0.2787 -0.3759  0.4179
  116OSM    C1512107   3.699   1.591  11.437 -0.0661 -0.3089 -0.0557
  116OSM   H15A12108   3.791   1.635  11.401  1.3815  0.9334  4.7744
  116OSM   H15B12109   3.734   1.494  11.472 -3.1075 -2.0740 -1.6905
  116OSM   H15C12110   3.664   1.651  11.519  0.3623 -0.1222 -0.0079
  116OSM    C1412111   3.661   1.457  11.242  0.2260  0.0103 -0.1107
  116OSM   H14A12112   3.734   1.400  11.298  0.0058 -1.1987 -1.0243
  116OSM   H14B12113   3.693   1.492  11.145 -1.2534 -0.8134 -0.9231
  116OSM   H14C12114   3.585   1.388  11.206 -0.4278 -0.0572  1.3431
  116OSM    C1312115   3.467   1.557  11.367 -0.0398  0.5791 -0.3260
  116OSM   H13A12116   3.451   1.471  11.431  0.3026 -0.6728 -1.8810
  116OSM   H13B12117   3.393   1.532  11.292  0.5589 -1.2855 -0.3188
  116OSM   H13C12118   3.437   1.649  11.415  0.6254  1.0322 -0.7713
  116OSM    C1212119   3.615   1.697  11.229  0.2014  0.3322 -0.0780
  116OSM   H12A12120   3.715   1.720  11.195  1.4277 -1.6393  2.0221
  116OSM   H12B12121   3.590   1.784  11.288  0.1522  1.8557 -2.3016
  116OSM    C1112122   3.523   1.693  11.102 -0.2398 -0.5676 -0.4445
  116OSM   H11A12123   3.510   1.798  11.069  0.8757 -0.5048 -0.7204
  116OSM   H11B12124   3.423   1.653  11.126  0.1090  0.1218  2.3768
  116OSM      P12125   3.708   1.652  10.911  0.1599  0.1705  0.4799
  116OSM    O1312126   3.821   1.702  10.996 -0.1102  0.3213  0.0982
  116OSM    O1412127   3.739   1.534  10.825  0.0362 -0.4677 -0.1734
  116OSM    O1112128   3.658   1.774  10.815 -0.4770  0.2040 -1.0335
  116OSM    O1212129   3.585   1.621  11.000  0.0920 -1.1277 -0.5506
  116OSM    C1S12130   3.702   1.762  10.674 -0.1248  0.3753 -0.5825
  116OSM    H1S12131   3.654   1.672  10.628 -1.1709  0.7638 -0.2685
  116OSM    H1T12132   3.811   1.742  10.672  0.2235  1.5800  2.9067
  116OSM     NF12133   3.679   1.865  10.459  0.3401 -0.3157  0.2413
  116OSM    HNF12134   3.768   1.887  10.420 -1.0658  1.9882 -1.7322
  116OSM    C2S12135   3.669   1.892  10.596  0.4476 -0.1438  0.2619
  116OSM    H2S12136   3.568   1.928  10.625 -0.0640 -0.6594 -0.8614
  116OSM    C3S12137   3.765   2.008  10.648 -0.7678  0.3238  0.0443
  116OSM    H3S12138   3.869   1.973  10.631 -0.6682 -1.4455  3.7961
  116OSM     O312139   3.749   2.030  10.784 -0.1429  0.0777 -0.3483
  116OSM    HO312140   3.704   1.948  10.807 -2.3641  0.8120 -1.9662
  116OSM    C4S12141   3.744   2.134  10.576  0.1015  0.6431  0.6317
  116OSM    H4S12142   3.640   2.166  10.592 -1.8739 -3.9964 -1.9831
  116OSM    C5S12143   3.831   2.203  10.506  0.3436 -0.0180  0.1839
  116OSM    H5S12144   3.937   2.176  10.498  0.6888  1.6831 -1.5837
  116OSM    C6S12145   3.800   2.333  10.441  0.3193  0.2384  0.1833
  116OSM    H6S12146   3.893   2.394  10.443  0.4987  0.1845 -3.3245
  116OSM    H6T12147   3.717   2.394  10.483  1.6876  2.1139  0.2416
  116OSM    C7S12148   3.775   2.309  10.288 -0.3283 -0.1261  0.7274
  116OSM    H7S12149   3.728   2.211  10.264 -0.3159  0.0348  0.0456
  116OSM    H7T12150   3.873   2.314  10.235 -1.6619 -0.2026 -1.8149
  116OSM    C8S12151   3.702   2.418  10.208 -0.6504 -0.5712 -0.5261
  116OSM    H8S12152   3.759   2.513  10.198 -0.3051 -0.7064  0.1733
  116OSM    H8T12153   3.612   2.430  10.272  1.4169 -0.6118  2.4388
  116OSM    C9S12154   3.689   2.377  10.062  0.6522  0.3385  0.5108
  116OSM    H9S12155   3.654   2.271  10.057  0.9603  0.2591 -0.0089
  116OSM    H9T12156   3.787   2.378  10.009 -0.3159 -0.9389 -1.3319
  116OSM   C10S12157   3.586   2.463   9.990 -0.1238 -1.3896 -0.2606
  116OSM   H10S12158   3.618   2.569   9.998 -0.3179 -1.4164  1.0353
  116OSM   H10T12159   3.482   2.458  10.029  0.5740  1.7112  2.2208
  116OSM   C11S12160   3.578   2.431   9.843 -0.6523 -0.2013  0.7000
  116OSM   H11S12161   3.549   2.327   9.815 -0.4320  0.0546 -0.5248
  116OSM   H11T12162   3.685   2.427   9.814 -0.5233  1.3345  0.9390
  116OSM   C12S12163   3.501   2.532   9.750  0.0645 -0.9756  0.2342
  116OSM   H12S12164   3.548   2.632   9.763  3.3665 -2.5154  0.8495
  116OSM   H12T12165   3.395   2.537   9.780  0.8315  0.4423  2.8085
  116OSM   C13S12166   3.497   2.513   9.599 -0.1903 -0.0138  0.6271
  116OSM   H13S12167   3.599   2.493   9.561 -1.0750  0.8031 -2.3116
  116OSM   H13T12168   3.464   2.605   9.547  1.5754  1.2328  1.6854
  116OSM   C14S12169   3.412   2.385   9.571 -0.5012 -0.3579 -0.5681
  116OSM   H14S12170   3.315   2.396   9.624  0.1744 -0.3773  0.6936
  116OSM   H14T12171   3.464   2.306   9.630 -1.4982  1.0653  2.3023
  116OSM   C15S12172   3.400   2.334   9.432 -0.0704 -0.0431  0.0704
  116OSM   H15S12173   3.310   2.270   9.427 -0.0561 -0.1332  0.9579
  116OSM   H15T12174   3.481   2.269   9.393 -1.5747 -0.3322 -2.6829
  116OSM   C16S12175   3.372   2.447   9.330  0.2300 -0.1809 -0.4391
  116OSM   H16S12176   3.464   2.509   9.331  0.2060 -0.1493 -0.1256
  116OSM   H16T12177   3.282   2.505   9.360  0.1358  0.3716 -1.7592
  116OSM   C17S12178   3.351   2.392   9.188  0.2244  0.1036 -0.3241
  116OSM   H17S12179   3.256   2.336   9.181  1.1025 -1.4585 -0.0015
  116OSM   H17T12180   3.431   2.316   9.183  0.9400  0.5929  2.7542
  116OSM   C18S12181   3.360   2.492   9.078 -0.3685  1.0490  0.8968
  116OSM   H18S12182   3.340   2.447   8.978  1.5810  2.9639 -0.3995
  116OSM   H18T12183   3.464   2.529   9.066 -0.8578  2.8293  1.9031
  116OSM   H18U12184   3.301   2.585   9.094 -1.9865  0.5110 -1.5660
  116OSM    C1F12185   3.599   1.785  10.390  0.4402  0.5177 -0.2070
  116OSM     OF12186   3.498   1.754  10.447  0.1793  0.3160  0.4892
  116OSM    C2F12187   3.648   1.732  10.256  0.3533 -0.6614 -0.7501
  116OSM    H2F12188   3.758   1.721  10.245  0.4815  0.9961 -1.2830
  116OSM    H2G12189   3.617   1.804  10.178  0.7152  2.0893  1.5631
  116OSM    C3F12190   3.601   1.587  10.226 -0.1558  1.3077  0.1851
  116OSM    H3F12191   3.490   1.590  10.222 -0.1849  1.2534  0.9618
  116OSM    H3G12192   3.645   1.520  10.302  0.5462 -0.0982 -1.4456
  116OSM    C4F12193   3.644   1.535  10.085 -0.9158  1.0727 -0.2307
  116OSM    H4F12194   3.754   1.518  10.080 -1.0683 -0.6343  1.3959
  116OSM    H4G12195   3.605   1.594   9.999  0.5940 -0.9330 -2.3590
  116OSM    C5F12196   3.581   1.390  10.071  0.2209  0.1053 -0.2294
  116OSM    H5F12197   3.575   1.347  10.173  0.4119 -2.0070 -1.0914
  116OSM    H5G12198   3.646   1.319  10.015 -1.0053 -1.8508  0.7668
  116OSM    C6F12199   3.442   1.386  10.000  0.4378  0.6137 -0.4715
  116OSM    H6F12200   3.388   1.482   9.985 -1.9776 -0.6866 -0.2817
  116OSM    H6G12201   3.375   1.337  10.074 -1.3140  2.2739 -0.9261
  116OSM    C7F12202   3.443   1.322   9.859 -0.0647 -0.7825 -0.5188
  116OSM    H7F12203   3.346   1.276   9.831  1.4089 -2.3438 -3.3479
  116OSM    H7G12204   3.505   1.232   9.880 -0.8428 -1.0244  0.7442
  116OSM    C8F12205   3.493   1.395   9.738 -0.1092 -0.1538  0.2585
  116OSM    H8F12206   3.521   1.321   9.660 -0.7274 -0.5127  0.3654
  116OSM    H8G12207   3.586   1.447   9.768  0.2440 -1.1307  0.8958
  116OSM    C9F12208   3.386   1.486   9.696  0.0997 -0.0910  0.1523
  116OSM    H9F12209   3.323   1.524   9.778  1.2469 -0.3477  1.1639
  116OSM   C10F12210   3.368   1.522   9.568  0.1420  0.3707  0.7683
  116OSM   H10F12211   3.287   1.591   9.541 -1.4999 -1.4898  0.8226
  116OSM   C11F12212   3.451   1.481   9.442  0.0038  0.5049 -0.2123
  116OSM   H11F12213   3.507   1.388   9.464  0.1950  0.8584  0.8116
  116OSM   H11G12214   3.513   1.568   9.411 -2.3410  1.2958 -2.8661
  116OSM   C12F12215   3.377   1.445   9.316 -0.2324 -0.1034 -0.2696
  116OSM   H12F12216   3.333   1.536   9.270 -1.1455  0.3230  1.4004
  116OSM   H12G12217   3.292   1.376   9.336 -0.6815  0.7239  0.7553
  116OSM   C13F12218   3.468   1.384   9.204  0.3244  0.0301  0.1705
  116OSM   H13F12219   3.499   1.282   9.236  0.5472 -0.0179 -0.2047
  116OSM   H13G12220   3.558   1.449   9.200 -0.7882  2.0571  4.6672
  116OSM   C14F12221   3.385   1.372   9.073 -0.1414 -0.0990  0.3861
  116OSM   H14F12222   3.347   1.476   9.058  1.0117  0.2354 -0.2761
  116OSM   H14G12223   3.294   1.308   9.083 -2.5912  3.3600  1.3106
  116OSM   C15F12224   3.482   1.340   8.954  0.1656  0.7947 -0.1285
  116OSM   H15F12225   3.577   1.396   8.964 -0.1044  0.8325  2.5185
  116OSM   H15G12226   3.437   1.371   8.857 -1.6086 -1.7827 -0.1933
  116OSM   C16F12227   3.527   1.189   8.959  0.4574  0.8905  0.3811
  116OSM   H16F12228   3.437   1.124   8.948  1.0378  0.3967 -1.6529
  116OSM   H16G12229   3.578   1.173   9.056  1.5071  0.5130 -0.2196
  116OSM   C17F12230   3.630   1.155   8.852 -0.3549  0.4850 -0.1359
  116OSM   H17F12231   3.661   1.051   8.871 -0.5850 -0.3355 -3.8410
  116OSM   H17G12232   3.716   1.225   8.864 -0.1662  0.6124 -1.9627
  116OSM   C18F12233   3.582   1.144   8.704  0.0653  0.2650  0.5170
  116OSM   H18F12234   3.663   1.101   8.641 -1.3164 -0.6247 -0.6740
  116OSM   H18G12235   3.546   1.242   8.669  2.0387  0.9518  0.3334
  116OSM   H18H12236   3.499   1.070   8.705 -0.3624  0.6818 -1.7455
  117OSM      N12237   1.710   2.250  10.690  0.4533 -0.1990  0.2316
  117OSM    C1512238   1.823   2.313  10.774 -0.1041 -0.0761  0.0252
  117OSM   H15A12239   1.783   2.351  10.867 -1.4679 -0.9246 -0.2010
  117OSM   H15B12240   1.866   2.406  10.741 -0.3160  1.0480  2.8042
  117OSM   H15C12241   1.892   2.233  10.798 -1.1260 -0.4157  1.9486
  117OSM    C1412242   1.783   2.194  10.569 -0.1589  0.2399  0.1716
  117OSM   H14A12243   1.827   2.278  10.516  1.4478  0.2652  1.4877
  117OSM   H14B12244   1.728   2.142  10.492 -1.8936  1.8037  0.3355
  117OSM   H14C12245   1.867   2.136  10.603  0.3869 -0.5922 -2.4803
  117OSM    C1312246   1.646   2.132  10.761  0.4914 -0.3976 -0.3718
  117OSM   H13A12247   1.725   2.081  10.815  1.9706  2.1730 -0.0134
  117OSM   H13B12248   1.591   2.074  10.689  1.4273 -1.6479 -0.0914
  117OSM   H13C12249   1.575   2.164  10.835 -0.0338 -4.1018  0.7782
  117OSM    C1212250   1.612   2.350  10.634 -0.5285 -0.6834 -0.0359
  117OSM   H12A12251   1.560   2.297  10.556 -3.0841 -0.2861  1.3213
  117OSM   H12B12252   1.675   2.429  10.594 -0.1317 -0.4902  0.9600
  117OSM    C1112253   1.506   2.424  10.721 -0.1404 -0.2223  0.2888
  117OSM   H11A12254   1.427   2.353  10.752 -0.2487 -0.2637 -0.0745
  117OSM   H11B12255   1.445   2.491  10.656  0.8169 -1.1058 -1.5626
  117OSM      P12256   1.590   2.629  10.861  0.0595 -0.4197  0.4985
  117OSM    O1312257   1.467   2.709  10.882 -0.1586  0.0754 -0.4272
  117OSM    O1412258   1.703   2.645  10.956 -0.1244 -0.5279  0.5815
  117OSM    O1112259   1.649   2.671  10.724  0.3171 -0.0992 -1.1467
  117OSM    O1212260   1.553   2.475  10.843  0.3186  0.4203  0.2342
  117OSM    C1S12261   1.776   2.722  10.707 -0.3982 -0.2737  0.7365
  117OSM    H1S12262   1.855   2.646  10.724 -1.0412 -0.6809  1.9127
  117OSM    H1T12263   1.804   2.799  10.781  1.6504 -0.4395  0.1684
  117OSM     NF12264   1.940   2.830  10.553  1.7005 -0.0962 -0.4490
  117OSM    HNF12265   1.964   2.926  10.566 -1.1595  0.5440  0.3541
  117OSM    C2S12266   1.804   2.786  10.560  0.1286  0.0586  0.4612
  117OSM    H2S12267   1.790   2.708  10.482  2.0996  0.3592 -0.2178
  117OSM    C3S12268   1.696   2.897  10.527  1.0016 -0.3715  0.9669
  117OSM    H3S12269   1.708   2.986  10.593 -0.5546  0.1080  0.6393
  117OSM     O312270   1.559   2.858  10.564 -0.0161 -0.0968 -0.2021
  117OSM    HO312271   1.573   2.785  10.625 -0.9886 -1.0874 -1.1442
  117OSM    C4S12272   1.707   2.931  10.380 -0.4861  0.6137 -0.6859
  117OSM    H4S12273   1.791   3.002  10.372  1.6520 -1.7556  0.1334
  117OSM    C5S12274   1.646   2.877  10.275 -0.1601  0.8176 -0.4130
  117OSM    H5S12275   1.570   2.800  10.296 -0.1115  0.4767 -1.4516
  117OSM    C6S12276   1.668   2.914  10.127  0.2343 -0.1940 -1.0847
  117OSM    H6S12277   1.628   3.014  10.100 -1.3827 -0.5398 -0.0181
  117OSM    H6T12278   1.602   2.842  10.073 -0.5438  0.2906 -0.7833
  117OSM    C7S12279   1.807   2.893  10.073 -0.2900  0.2216  0.1233
  117OSM    H7S12280   1.837   2.787  10.083 -0.2377  0.2157 -0.0961
  117OSM    H7T12281   1.885   2.961  10.114 -0.3869 -1.1017  2.5999
  117OSM    C8S12282   1.816   2.955   9.932  0.0257  0.6107  0.0092
  117OSM    H8S12283   1.918   2.926   9.896 -0.0215  0.7639 -0.2470
  117OSM    H8T12284   1.802   3.065   9.926 -0.6624  0.4670 -1.1109
  117OSM    C9S12285   1.734   2.890   9.819 -0.2451 -0.4507 -0.3051
  117OSM    H9S12286   1.625   2.908   9.825 -0.3282  0.2009 -3.2939
  117OSM    H9T12287   1.747   2.780   9.824  0.2864 -0.3010  2.9475
  117OSM   C10S12288   1.785   2.931   9.682 -0.1615  0.0069  0.7350
  117OSM   H10S12289   1.894   2.913   9.687 -0.1511  0.5237  2.7806
  117OSM   H10T12290   1.772   3.038   9.656  1.2089  0.5604  2.2510
  117OSM   C11S12291   1.729   2.858   9.565 -0.2652 -0.0300  0.0364
  117OSM   H11S12292   1.624   2.891   9.558 -0.5490 -1.1148 -1.0545
  117OSM   H11T12293   1.733   2.747   9.575  0.5309  0.0275  0.4524
  117OSM   C12S12294   1.803   2.900   9.430  0.4088  0.0807  0.7540
  117OSM   H12S12295   1.909   2.872   9.414  0.3337  0.0148  0.3846
  117OSM   H12T12296   1.805   3.011   9.425 -1.0311  0.0356 -1.1508
  117OSM   C13S12297   1.712   2.857   9.310 -0.5586  0.9229  0.1548
  117OSM   H13S12298   1.608   2.858   9.349 -0.6729  0.2676 -0.1226
  117OSM   H13T12299   1.731   2.754   9.272 -1.3052  0.5451  0.7864
  117OSM   C14S12300   1.717   2.945   9.185  0.4514  0.1811  0.1317
  117OSM   H14S12301   1.820   2.982   9.169 -0.5286  2.3427 -1.6358
  117OSM   H14T12302   1.654   3.034   9.206 -3.0159 -1.8870 -1.0613
  117OSM   C15S12303   1.656   2.888   9.056 -0.7782  0.0868 -0.1619
  117OSM   H15S12304   1.553   2.849   9.072 -1.2384  1.2438 -0.2502
  117OSM   H15T12305   1.716   2.799   9.029  0.3983  0.9115 -0.3099
  117OSM   C16S12306   1.667   2.980   8.936 -0.8045  0.4260  0.6035
  117OSM   H16S12307   1.773   3.012   8.926 -1.3591  2.1999  0.2133
  117OSM   H16T12308   1.608   3.073   8.950 -2.2746 -0.4294  0.1655
  117OSM   C17S12309   1.636   2.918   8.805 -0.2928  0.1232  0.3346
  117OSM   H17S12310   1.668   2.812   8.810  0.8190  0.4795  0.9023
  117OSM   H17T12311   1.694   2.966   8.723 -0.0139  0.0950  0.5156
  117OSM   C18S12312   1.488   2.933   8.769 -0.5687 -0.3882 -0.1351
  117OSM   H18S12313   1.461   3.040   8.759 -0.7196 -0.0651  3.1116
  117OSM   H18T12314   1.436   2.898   8.861 -3.3749 -0.1980 -1.5896
  117OSM   H18U12315   1.460   2.875   8.679 -2.3454  0.2575 -0.0118
  117OSM    C1F12316   2.038   2.745  10.533 -0.4734  0.0804 -0.0386
  117OSM     OF12317   2.021   2.625  10.513 -0.3496 -0.1587 -0.5712
  117OSM    C2F12318   2.178   2.797  10.537  0.6360 -0.7943  0.1893
  117OSM    H2F12319   2.235   2.760  10.625  0.0105 -0.1993  0.8623
  117OSM    H2G12320   2.180   2.906  10.557  0.4011 -0.7086 -0.2428
  117OSM    C3F12321   2.260   2.742  10.415  0.4424  0.2101 -0.2496
  117OSM    H3F12322   2.274   2.632  10.424  2.6266  0.5840  1.4519
  117OSM    H3G12323   2.360   2.786  10.438  0.3908  0.4277 -0.4361
  117OSM    C4F12324   2.206   2.774  10.277 -0.4500  0.0992 -0.0970
  117OSM    H4F12325   2.183   2.881  10.259 -1.3972  0.2200  1.6606
  117OSM    H4G12326   2.111   2.716  10.277 -0.2638 -0.2012 -0.2939
  117OSM    C5F12327   2.297   2.707  10.169 -0.5126  0.9692 -0.3243
  117OSM    H5F12328   2.299   2.599  10.197 -0.3007  1.3112  1.0067
  117OSM    H5G12329   2.393   2.759  10.186  1.4079 -2.6454  0.4205
  117OSM    C6F12330   2.263   2.730  10.026 -1.0798 -0.1890  0.1527
  117OSM    H6F12331   2.340   2.696   9.953 -0.7020  1.7936 -0.4121
  117OSM    H6G12332   2.229   2.833  10.004 -3.3810 -1.2501 -1.4663
  117OSM    C7F12333   2.134   2.638   9.986  0.3502  0.7861  0.6805
  117OSM    H7F12334   2.041   2.691  10.015  0.7548  2.1202 -0.3940
  117OSM    H7G12335   2.156   2.555  10.057 -3.0113 -2.2983 -1.7084
  117OSM    C8F12336   2.115   2.589   9.838  0.0183  0.3586  0.1616
  117OSM    H8F12337   2.041   2.507   9.838  1.4732 -0.9761  0.6204
  117OSM    H8G12338   2.210   2.547   9.798  1.2758  1.4316  1.9841
  117OSM    C9F12339   2.061   2.690   9.740  0.0363 -0.2056 -0.5843
  117OSM    H9F12340   1.967   2.736   9.775 -0.1549 -0.0237 -1.3249
  117OSM   C10F12341   2.102   2.723   9.614  0.4743  0.2767 -0.1893
  117OSM   H10F12342   2.046   2.805   9.566  0.1659 -0.6904 -1.5230
  117OSM   C11F12343   2.215   2.662   9.532 -0.4196 -0.2252 -0.1625
  117OSM   H11F12344   2.279   2.594   9.592  0.6143  0.9046  0.0460
  117OSM   H11G12345   2.285   2.742   9.501 -0.5184  0.5493  1.5331
  117OSM   C12F12346   2.169   2.586   9.416 -0.7673  0.1383  0.0233
  117OSM   H12F12347   2.100   2.504   9.447 -0.4627 -0.6516 -1.3588
  117OSM   H12G12348   2.255   2.547   9.359  1.3783  2.7955  1.3440
  117OSM   C13F12349   2.104   2.672   9.312  0.4619  0.1369  0.4606
  117OSM   H13F12350   2.163   2.764   9.289  1.1356 -0.7971 -1.6027
  117OSM   H13G12351   2.007   2.702   9.357  0.8378 -0.2031  1.5148
  117OSM   C14F12352   2.068   2.602   9.178  0.7065 -0.4471 -0.0222
  117OSM   H14F12353   2.003   2.516   9.205 -0.2551  0.1083 -0.5320
  117OSM   H14G12354   2.171   2.578   9.143  0.4261  0.0735 -1.2193
  117OSM   C15F12355   2.000   2.694   9.076  0.7826 -1.1333 -0.3337
  117OSM   H15F12356   1.933   2.769   9.122  0.5233 -0.7260 -1.3708
  117OSM   H15G12357   1.930   2.636   9.013 -1.0328  1.7048 -1.0125
  117OSM   C16F12358   2.106   2.745   8.980  0.5447 -0.2546 -0.6201
  117OSM   H16F12359   2.121   2.665   8.905  0.5887 -0.0683 -0.8102
  117OSM   H16G12360   2.203   2.761   9.032 -0.2820 -1.2343  1.2803
  117OSM   C17F12361   2.053   2.869   8.904  0.8375 -0.2911 -0.3374
  117OSM   H17F12362   2.039   2.953   8.975  1.5873 -0.7249  0.3246
  117OSM   H17G12363   1.952   2.843   8.866  0.2803  0.2836  0.7129
  117OSM   C18F12364   2.144   2.920   8.786 -0.6976 -0.0522 -0.4860
  117OSM   H18F12365   2.147   2.838   8.712  2.2333 -1.0462  0.6471
  117OSM   H18G12366   2.245   2.938   8.830 -1.1393  1.3661 -0.0147
  117OSM   H18H12367   2.103   3.008   8.733 -0.1633  0.3372 -0.2557
  118OSM      N12368   2.062   3.677  11.170  0.3526 -0.4480 -0.3737
  118OSM    C1512369   1.997   3.726  11.048  0.1315  0.4175  0.1938
  118OSM   H15A12370   1.905   3.673  11.030  1.6662 -2.3657  0.3059
  118OSM   H15B12371   2.054   3.715  10.958  0.0887 -0.1581  0.2372
  118OSM   H15C12372   1.977   3.831  11.066  0.6246  0.5975 -0.3057
  118OSM    C1412373   1.952   3.692  11.272  0.0533 -0.2988 -0.0883
  118OSM   H14A12374   1.980   3.667  11.374 -1.1222  1.3920  0.6687
  118OSM   H14B12375   1.867   3.633  11.241 -0.5373  0.1304  0.7010
  118OSM   H14C12376   1.915   3.792  11.290  0.9153 -0.2559  1.6097
  118OSM    C1312377   2.106   3.534  11.146 -0.6516 -0.4295 -0.9230
  118OSM   H13A12378   2.183   3.540  11.070  0.2112  0.1664 -0.0196
  118OSM   H13B12379   2.027   3.467  11.118 -1.3506  0.7307 -1.8053
  118OSM   H13C12380   2.155   3.488  11.231  0.0303 -0.6966 -1.4537
  118OSM    C1212381   2.180   3.768  11.204 -0.2066  0.3728 -0.0385
  118OSM   H12A12382   2.267   3.737  11.148 -0.2702 -1.9068  1.0502
  118OSM   H12B12383   2.215   3.738  11.302 -1.4511 -1.6456 -0.1880
  118OSM    C1112384   2.196   3.921  11.192 -0.1121 -1.2685 -0.0333
  118OSM   H11A12385   2.298   3.955  11.221 -0.6126 -0.4028  0.7425
  118OSM   H11B12386   2.126   3.963  11.267 -0.5466  0.7219 -1.5031
  118OSM      P12387   2.277   3.949  10.944  0.2101  0.0540 -0.6982
  118OSM    O1312388   2.392   4.029  10.982 -0.5196 -0.4545  0.4333
  118OSM    O1412389   2.313   3.806  10.924  0.3371 -0.5328 -0.1132
  118OSM    O1112390   2.203   4.010  10.816  0.6146 -0.4360 -0.0935
  118OSM    O1212391   2.163   3.963  11.060  0.3008 -0.5025 -0.3017
  118OSM    C1S12392   2.273   4.060  10.702 -0.3708  0.0027  0.1508
  118OSM    H1S12393   2.372   4.013  10.684 -0.0232  1.2824 -1.3321
  118OSM    H1T12394   2.295   4.168  10.721 -1.5873  0.2399  0.2916
  118OSM     NF12395   2.275   4.095  10.450 -0.6546 -0.1114 -0.1123
  118OSM    HNF12396   2.244   4.173  10.396 -0.9291 -1.6193 -2.1824
  118OSM    C2S12397   2.197   4.051  10.567  0.1512  0.3453 -0.1032
  118OSM    H2S12398   2.171   3.945  10.550 -0.6858  0.1473  2.1787
  118OSM    C3S12399   2.066   4.137  10.582  0.5771 -0.1731 -0.4537
  118OSM    H3S12400   2.093   4.243  10.598 -1.2345  0.2554 -0.1380
  118OSM     O312401   1.998   4.109  10.701  0.0208  0.0853  0.3617
  118OSM    HO312402   2.060   4.063  10.758 -0.3557  0.1314  0.8087
  118OSM    C4S12403   1.979   4.111  10.458  0.9684  0.4983  0.1983
  118OSM    H4S12404   1.930   4.013  10.455  1.4043  0.2934 -0.2966
  118OSM    C5S12405   1.948   4.193  10.362 -0.4873 -0.3752  0.3789
  118OSM    H5S12406   1.980   4.298  10.351  0.8243 -0.6242  1.7375
  118OSM    C6S12407   1.848   4.154  10.257 -0.0514  0.8756  0.5858
  118OSM    H6S12408   1.767   4.228  10.243  0.9637  1.6420 -1.4076
  118OSM    H6T12409   1.795   4.061  10.289 -1.6376  0.3552 -3.3005
  118OSM    C7S12410   1.923   4.143  10.121 -0.0621  0.2031 -0.3044
  118OSM    H7S12411   1.847   4.130  10.041  0.5312 -0.4320 -0.7760
  118OSM    H7T12412   1.984   4.050  10.111 -0.4888 -0.0129 -0.9138
  118OSM    C8S12413   2.007   4.258  10.068  0.2784  0.2183  0.4416
  118OSM    H8S12414   2.105   4.249  10.120  0.1494  2.4143  1.1345
  118OSM    H8T12415   1.969   4.354  10.110 -0.0314  0.1332  0.3551
  118OSM    C9S12416   2.056   4.261   9.925 -0.4446 -0.3263 -0.2857
  118OSM    H9S12417   2.074   4.155   9.897 -3.1717 -0.9129 -0.0195
  118OSM    H9T12418   2.148   4.322   9.928  0.1561 -1.1623 -1.2733
  118OSM   C10S12419   1.950   4.297   9.821 -0.2101  0.0844 -0.1879
  118OSM   H10S12420   1.919   4.401   9.845 -1.6041 -0.3514 -0.0115
  118OSM   H10T12421   1.859   4.234   9.834 -0.4630  0.3485 -0.6361
  118OSM   C11S12422   1.992   4.268   9.673  0.3024  0.6308  0.0846
  118OSM   H11S12423   1.903   4.287   9.609 -0.7950 -2.1773  0.6877
  118OSM   H11T12424   2.031   4.165   9.657 -0.4061  0.6727 -2.1918
  118OSM   C12S12425   2.099   4.375   9.631  0.3671 -0.2037 -0.5320
  118OSM   H12S12426   2.198   4.367   9.682 -0.7381 -0.5651  1.6280
  118OSM   H12T12427   2.045   4.468   9.657 -0.0021 -0.3433 -0.7977
  118OSM   C13S12428   2.124   4.389   9.475 -0.0411 -0.8823 -0.1153
  118OSM   H13S12429   2.024   4.381   9.429 -0.3043  1.5641 -0.0143
  118OSM   H13T12430   2.176   4.305   9.424  0.7412 -0.5685  0.1597
  118OSM   C14S12431   2.187   4.518   9.429  0.4938  0.1039 -0.2501
  118OSM   H14S12432   2.139   4.604   9.482 -0.8964 -0.3031 -0.8280
  118OSM   H14T12433   2.167   4.528   9.320 -0.9608  0.6475  0.0463
  118OSM   C15S12434   2.337   4.519   9.448  0.0877  0.0626 -0.2856
  118OSM   H15S12435   2.389   4.473   9.360  1.1218  2.4806 -0.9790
  118OSM   H15T12436   2.360   4.452   9.533  1.2687 -1.4483 -1.7540
  118OSM   C16S12437   2.397   4.660   9.479  0.2508  0.5465  0.1339
  118OSM   H16S12438   2.502   4.665   9.515  1.1807  2.7125 -2.7045
  118OSM   H16T12439   2.327   4.689   9.561 -1.3428 -1.5987 -0.4112
  118OSM   C17S12440   2.368   4.786   9.381  0.1837 -0.2571 -0.1434
  118OSM   H17S12441   2.265   4.765   9.346 -0.1614 -2.5830  2.1384
  118OSM   H17T12442   2.437   4.777   9.295 -1.5042  3.8520 -2.0458
  118OSM   C18S12443   2.391   4.928   9.438 -0.1775 -0.5747 -0.0413
  118OSM   H18S12444   2.501   4.944   9.441 -0.1263 -0.8525 -0.3519
  118OSM   H18T12445   2.350   4.941   9.540 -0.5897 -0.0175 -0.2762
  118OSM   H18U12446   2.345   5.006   9.374  1.9700 -0.0441 -1.0130
  118OSM    C1F12447   2.386   4.025  10.419 -0.0941 -0.1476 -0.4337
  118OSM     OF12448   2.419   3.919  10.476  0.0453  0.1388 -0.4958
  118OSM    C2F12449   2.467   4.072  10.305 -0.3329 -0.0622 -0.1804
  118OSM    H2F12450   2.575   4.055  10.323 -0.0172  0.2390 -1.7031
  118OSM    H2G12451   2.452   4.182  10.309  0.5445  0.0462  0.4250
  118OSM    C3F12452   2.438   4.005  10.167  0.1281 -0.0364 -0.3216
  118OSM    H3F12453   2.461   3.897  10.179 -0.1376 -0.1082 -0.4488
  118OSM    H3G12454   2.499   4.058  10.090  2.2956  1.3180  2.2628
  118OSM    C4F12455   2.297   4.021  10.119 -0.1416 -0.2689  0.0715
  118OSM    H4F12456   2.272   4.129  10.113 -0.6130 -0.4560 -1.3985
  118OSM    H4G12457   2.234   3.965  10.192  0.5261 -1.2179 -0.0754
  118OSM    C5F12458   2.272   3.966   9.986  0.1491 -0.1425 -0.0477
  118OSM    H5F12459   2.162   3.974   9.974  0.0225 -0.8931  0.5738
  118OSM    H5G12460   2.288   3.856   9.996 -0.4606 -0.3338 -1.0223
  118OSM    C6F12461   2.342   4.048   9.875  0.6829  0.2114  0.8464
  118OSM    H6F12462   2.451   4.040   9.895  0.7967 -0.0846  0.1223
  118OSM    H6G12463   2.300   4.151   9.870  0.1947 -0.0791 -1.7118
  118OSM    C7F12464   2.302   3.985   9.743  0.2537  0.8241  0.2086
  118OSM    H7F12465   2.192   3.978   9.756  0.4133  0.0454  1.2260
  118OSM    H7G12466   2.332   3.878   9.740  0.5553  0.8462  1.8809
  118OSM    C8F12467   2.354   4.074   9.627  0.0476 -0.6679  0.1321
  118OSM    H8F12468   2.465   4.070   9.629  0.0945  0.5835  0.0837
  118OSM    H8G12469   2.334   4.175   9.669  0.8571 -0.6791  0.5566
  118OSM    C9F12470   2.279   4.046   9.495 -1.0186 -0.3007 -0.6974
  118OSM    H9F12471   2.178   4.005   9.507 -0.5758 -2.2789 -3.4041
  118OSM   C10F12472   2.337   4.055   9.380 -0.1251 -0.2934  0.9793
  118OSM   H10F12473   2.281   4.034   9.288  0.0758  2.1626  0.2616
  118OSM   C11F12474   2.483   4.110   9.353  0.1569  0.4005  0.1983
  118OSM   H11F12475   2.559   4.034   9.380  0.1399  0.4084  0.2689
  118OSM   H11G12476   2.508   4.199   9.415 -0.7418 -0.4646  1.8601
  118OSM   C12F12477   2.493   4.159   9.207 -0.2151  0.3195  0.1049
  118OSM   H12F12478   2.579   4.231   9.208 -0.0258  0.0876  0.4087
  118OSM   H12G12479   2.401   4.208   9.169 -0.3697 -0.3871 -0.4399
  118OSM   C13F12480   2.532   4.050   9.110  0.0182  0.0748 -0.2760
  118OSM   H13F12481   2.454   3.974   9.090  0.6942 -0.3552 -1.3105
  118OSM   H13G12482   2.625   4.008   9.154 -0.6470 -1.3914 -0.2611
  118OSM   C14F12483   2.577   4.118   8.975 -0.0319  0.5837 -0.7284
  118OSM   H14F12484   2.673   4.164   9.006  0.9825 -0.7396 -1.7834
  118OSM   H14G12485   2.491   4.180   8.943 -0.0677  0.3073 -1.1715
  118OSM   C15F12486   2.616   4.017   8.861  0.2939 -0.2185 -0.5645
  118OSM   H15F12487   2.703   3.952   8.886  0.5042  0.8523  1.6488
  118OSM   H15G12488   2.647   4.078   8.774 -1.2018 -1.4949 -2.0332
  118OSM   C16F12489   2.488   3.934   8.825  0.0083  0.0250  0.5941
  118OSM   H16F12490   2.405   4.008   8.821  0.9015  1.0360  0.4394
  118OSM   H16G12491   2.479   3.866   8.912  1.4258 -4.0724 -2.3494
  118OSM   C17F12492   2.487   3.873   8.685 -0.1461 -0.1897 -0.2423
  118OSM   H17F12493   2.389   3.822   8.673 -0.5940  0.4050  0.7798
  118OSM   H17G12494   2.556   3.787   8.674 -1.4968 -1.2687 -0.3959
  118OSM   C18F12495   2.504   3.962   8.564  0.2276 -0.6807  0.5034
  118OSM   H18F12496   2.596   4.023   8.573 -0.8854  0.8182  2.0783
  118OSM   H18G12497   2.415   4.026   8.543  0.2160 -0.5337  1.0007
  118OSM   H18H12498   2.528   3.893   8.480 -0.7884  0.5785 -0.8528
  119OSM      N12499   2.611   3.214  11.070  0.0474 -0.3761  0.0227
  119OSM    C1512500   2.480   3.252  11.014 -0.3884 -0.5085  0.3322
  119OSM   H15A12501   2.393   3.235  11.076 -0.0213 -0.6823  0.8029
  119OSM   H15B12502   2.462   3.190  10.928  0.4593  0.8679 -0.8539
  119OSM   H15C12503   2.476   3.356  10.985 -1.8204 -1.0539 -1.5113
  119OSM    C1412504   2.632   3.271  11.205  0.7692 -0.4273 -0.8016
  119OSM   H14A12505   2.630   3.379  11.197 -0.6608 -0.5362 -2.0949
  119OSM   H14B12506   2.732   3.242  11.235  1.4807  1.6612 -1.0627
  119OSM   H14C12507   2.558   3.238  11.277  0.2196 -3.1253 -2.5168
  119OSM    C1312508   2.608   3.062  11.089 -0.4927 -0.5345  0.3967
  119OSM   H13A12509   2.708   3.039  11.124  0.2142 -0.4367 -1.5274
  119OSM   H13B12510   2.584   3.013  10.996  1.3271 -0.6944 -0.0113
  119OSM   H13C12511   2.532   3.043  11.164  0.2582  1.4869  1.7213
  119OSM    C1212512   2.726   3.250  10.983  0.7921 -0.5202 -0.0745
  119OSM   H12A12513   2.710   3.353  10.953  2.3412 -0.4263 -0.6160
  119OSM   H12B12514   2.715   3.194  10.892 -1.5844  1.9834 -1.4030
  119OSM    C1112515   2.870   3.247  11.042 -0.2665 -0.0817  0.2569
  119OSM   H11A12516   2.888   3.321  11.122 -0.7612 -1.8733  2.0731
  119OSM   H11B12517   2.941   3.286  10.965 -1.8791  0.9484 -0.7274
  119OSM      P12518   3.025   3.037  11.029  0.5082  0.0939  0.4910
  119OSM    O1312519   3.140   3.126  11.042 -0.2989 -0.1585  0.2100
  119OSM    O1412520   3.040   2.906  11.103  0.7485  0.0463  0.1655
  119OSM    O1112521   2.985   3.006  10.878  0.3303 -0.3873  0.2329
  119OSM    O1212522   2.898   3.113  11.092  0.0429  0.4969 -0.0022
  119OSM    C1S12523   2.879   2.934  10.826 -0.1210  0.5450  0.1354
  119OSM    H1S12524   2.783   2.950  10.880 -1.4779  0.6759 -2.2566
  119OSM    H1T12525   2.905   2.827  10.822  1.6247  0.7953  3.4495
  119OSM     NF12526   2.736   2.931  10.633  0.0383 -0.2029 -0.0132
  119OSM    HNF12527   2.737   2.865  10.558  1.7569  0.2277 -0.3730
  119OSM    C2S12528   2.874   2.966  10.678  0.5332  0.3717  0.0850
  119OSM    H2S12529   2.885   3.076  10.675  0.5812  0.3130 -4.5396
  119OSM    C3S12530   2.986   2.902  10.593 -0.1368  0.2734  0.1960
  119OSM    H3S12531   2.957   2.796  10.573  1.8064 -0.4834  1.2117
  119OSM     O312532   3.114   2.888  10.657  0.1355  0.4500 -0.4302
  119OSM    HO312533   3.105   2.913  10.750 -1.7660  0.8649 -0.7133
  119OSM    C4S12534   2.997   2.977  10.462  0.1610 -0.6113 -0.0958
  119OSM    H4S12535   2.943   2.923  10.383  1.5681  0.1231 -1.5943
  119OSM    C5S12536   3.060   3.089  10.429 -0.1849 -0.6693 -0.2420
  119OSM    H5S12537   3.114   3.142  10.508 -1.2549  2.3145 -1.4570
  119OSM    C6S12538   3.072   3.156  10.299  0.1501  0.9586  0.1527
  119OSM    H6S12539   3.118   3.084  10.227  2.9166  3.6855 -0.8701
  119OSM    H6T12540   3.148   3.236  10.306  1.6230 -0.3568 -0.4679
  119OSM    C7S12541   2.941   3.214  10.248 -0.3718 -0.0731  0.3221
  119OSM    H7S12542   2.897   3.286  10.320  1.6477  1.1526  0.3969
  119OSM    H7T12543   2.863   3.136  10.237  1.0362 -1.3368 -1.1103
  119OSM    C8S12544   2.976   3.278  10.116  0.5596  0.1034  0.0575
  119OSM    H8S12545   3.024   3.202  10.050  2.5548  2.5638 -1.4310
  119OSM    H8T12546   3.049   3.361  10.112  0.9654 -0.3237 -3.3885
  119OSM    C9S12547   2.850   3.333  10.047 -0.5182 -0.1371  0.1786
  119OSM    H9S12548   2.802   3.414  10.106 -0.0253  1.2801 -1.3313
  119OSM    H9T12549   2.785   3.243  10.036  1.9642 -1.6953 -2.3527
  119OSM   C10S12550   2.875   3.382   9.904  0.2819  0.0738 -0.2949
  119OSM   H10S12551   2.954   3.461   9.910  0.5881 -0.1773 -0.9578
  119OSM   H10T12552   2.778   3.426   9.873 -1.1796 -2.4490  0.6249
  119OSM   C11S12553   2.920   3.272   9.809 -0.2016  0.2354  0.3720
  119OSM   H11S12554   2.835   3.207   9.780 -1.3141  1.2310  1.3471
  119OSM   H11T12555   2.998   3.197   9.835 -0.2605 -0.1447 -0.5328
  119OSM   C12S12556   2.963   3.324   9.671  0.1290 -0.5100  0.4771
  119OSM   H12S12557   3.062   3.368   9.694  0.7283 -1.5701 -0.0668
  119OSM   H12T12558   2.894   3.410   9.656  0.1410 -0.2787  1.6509
  119OSM   C13S12559   2.950   3.226   9.557  0.5038  0.4300  0.2659
  119OSM   H13S12560   2.842   3.200   9.544  0.7631 -0.0237 -1.0400
  119OSM   H13T12561   3.009   3.134   9.576 -1.9766 -0.5489  3.7875
  119OSM   C14S12562   2.992   3.283   9.423  0.5116 -0.2084 -0.3113
  119OSM   H14S12563   3.087   3.341   9.425  0.6401 -0.4223 -0.2618
  119OSM   H14T12564   2.905   3.348   9.399  0.0322 -0.5469  0.5098
  119OSM   C15S12565   3.000   3.177   9.309  0.9768 -0.7440  0.1405
  119OSM   H15S12566   2.925   3.098   9.329 -0.1551  0.2837  0.0020
  119OSM   H15T12567   3.104   3.138   9.311  2.4509  2.8489 -2.2853
  119OSM   C16S12568   2.986   3.236   9.170  0.2157 -0.1673  0.1248
  119OSM   H16S12569   3.021   3.340   9.187 -1.2735  0.3570  0.0406
  119OSM   H16T12570   2.882   3.227   9.132  0.2019 -2.1169  0.5793
  119OSM   C17S12571   3.073   3.165   9.058 -0.5195  0.1259  0.1116
  119OSM   H17S12572   3.175   3.146   9.098 -0.1712  0.0335 -0.8033
  119OSM   H17T12573   3.070   3.240   8.976 -0.3520 -0.2859 -0.2779
  119OSM   C18S12574   3.007   3.041   9.004  0.6050  0.1305  0.4409
  119OSM   H18S12575   3.073   2.995   8.927 -2.3081 -0.7574 -1.5960
  119OSM   H18T12576   2.912   3.065   8.952  1.2775  0.0732 -0.8284
  119OSM   H18U12577   2.992   2.963   9.081 -0.7487  1.2100  1.2869
  119OSM    C1F12578   2.629   3.008  10.670  1.0022  0.0576 -0.6794
  119OSM     OF12579   2.639   3.109  10.739  0.5425 -0.4121  0.3250
  119OSM    C2F12580   2.496   2.968  10.617 -0.0523 -0.2795 -0.0782
  119OSM    H2F12581   2.422   2.995  10.695 -1.1864  1.3180 -1.6693
  119OSM    H2G12582   2.487   2.859  10.597 -1.3314 -0.0359 -0.8250
  119OSM    C3F12583   2.452   3.055  10.502 -0.4571 -0.3776 -0.0377
  119OSM    H3F12584   2.436   3.161  10.532  0.3752 -0.0686 -0.6620
  119OSM    H3G12585   2.358   3.008  10.466  0.5621 -2.8565  0.4586
  119OSM    C4F12586   2.540   3.056  10.376 -0.0339 -0.1958  0.5683
  119OSM    H4F12587   2.605   2.966  10.374 -0.2521 -0.4210  2.8134
  119OSM    H4G12588   2.618   3.135  10.371  1.6977 -1.7106  2.6930
  119OSM    C5F12589   2.454   3.052  10.253  0.6333 -0.2544 -0.2085
  119OSM    H5F12590   2.398   3.148  10.244 -0.4554 -0.8684 -0.0951
  119OSM    H5G12591   2.372   2.980  10.270  0.5057  0.4282  2.3379
  119OSM    C6F12592   2.536   3.029  10.119 -0.1620  0.0620  0.2057
  119OSM    H6F12593   2.571   3.126  10.078  2.6024 -0.7963  0.4050
  119OSM    H6G12594   2.465   2.979  10.050  0.3084 -2.3213  1.3970
  119OSM    C7F12595   2.648   2.925  10.127  0.3629 -0.5189 -0.4047
  119OSM    H7F12596   2.604   2.837  10.178  0.5822  0.7230  2.0008
  119OSM    H7G12597   2.734   2.974  10.177  0.5446  1.3795 -2.4844
  119OSM    C8F12598   2.696   2.880   9.988  0.9198 -0.0813  0.1268
  119OSM    H8F12599   2.620   2.802   9.965  1.3290 -0.4760  0.1072
  119OSM    H8G12600   2.796   2.833   9.992  0.6636 -0.7605 -1.2772
  119OSM    C9F12601   2.712   2.990   9.881  0.1747  0.2691 -0.2250
  119OSM    H9F12602   2.788   3.066   9.905 -1.4558  1.8765 -0.0938
  119OSM   C10F12603   2.641   2.991   9.773  0.1667  0.2454 -0.4373
  119OSM   H10F12604   2.658   3.078   9.708  1.8980 -1.6012 -2.5749
  119OSM   C11F12605   2.538   2.904   9.716 -0.3383  0.5678 -0.0086
  119OSM   H11F12606   2.438   2.935   9.755 -0.8142  0.4604 -1.1079
  119OSM   H11G12607   2.555   2.797   9.743  1.2488  0.8869  0.2871
  119OSM   C12F12608   2.535   2.911   9.564 -0.5606 -0.0817  0.4290
  119OSM   H12F12609   2.515   3.015   9.532 -0.4139  0.0268  0.6874
  119OSM   H12G12610   2.449   2.856   9.520 -1.7840  3.7261 -2.2159
  119OSM   C13F12611   2.663   2.857   9.497  0.2037 -0.2899  0.4547
  119OSM   H13F12612   2.649   2.747   9.482 -0.2260 -0.0583 -0.9717
  119OSM   H13G12613   2.758   2.871   9.554 -0.5778  2.4593  1.1335
  119OSM   C14F12614   2.668   2.904   9.351  0.1893 -0.0862 -0.4378
  119OSM   H14F12615   2.756   2.890   9.284 -0.3826 -0.4595 -1.1301
  119OSM   H14G12616   2.661   3.015   9.349 -1.9317 -0.1997 -2.4020
  119OSM   C15F12617   2.555   2.837   9.266 -0.1631  0.0737  0.2687
  119OSM   H15F12618   2.474   2.796   9.330  0.0282  0.2202  0.6113
  119OSM   H15G12619   2.599   2.746   9.219 -0.7543  0.6307 -1.3733
  119OSM   C16F12620   2.494   2.923   9.154  0.2690  0.8460 -0.1225
  119OSM   H16F12621   2.421   3.000   9.187 -1.2621 -0.5511 -0.1853
  119OSM   H16G12622   2.426   2.861   9.092  0.3923 -0.1306  0.6961
  119OSM   C17F12623   2.601   2.972   9.058 -0.2330 -0.2980 -0.3367
  119OSM   H17F12624   2.663   2.886   9.027 -1.3568 -1.3034  0.1928
  119OSM   H17G12625   2.664   3.042   9.117  1.2159 -1.7213 -0.1692
  119OSM   C18F12626   2.557   3.040   8.924  0.7427 -0.2379  0.3584
  119OSM   H18F12627   2.639   3.051   8.850 -0.6970  3.4591 -0.7789
  119OSM   H18G12628   2.521   3.143   8.942 -1.2583 -1.1124  1.4778
  119OSM   H18H12629   2.474   2.983   8.878 -1.6309  1.9737  1.8321
  120OSM      N12630   1.484   6.571  10.675 -0.3326 -0.4671  0.2776
  120OSM    C1512631   1.460   6.419  10.681 -0.2812  0.1150  0.5536
  120OSM   H15A12632   1.365   6.395  10.635 -0.9481  1.0142  1.4488
  120OSM   H15B12633   1.469   6.377  10.780 -2.2934 -1.6730  0.0136
  120OSM   H15C12634   1.534   6.370  10.619  0.5293  2.6918 -0.6136
  120OSM    C1412635   1.515   6.617  10.540 -0.0019 -0.3411  0.5661
  120OSM   H14A12636   1.613   6.581  10.511  0.3328  0.6906  0.3958
  120OSM   H14B12637   1.510   6.724  10.523  1.1552 -0.1867  1.1145
  120OSM   H14C12638   1.439   6.572  10.477 -0.0156  1.7688 -1.0157
  120OSM    C1312639   1.357   6.645  10.709  0.0569 -0.1718  0.2073
  120OSM   H13A12640   1.275   6.620  10.644  1.8483  0.5151 -2.4483
  120OSM   H13B12641   1.364   6.751  10.690 -0.3632 -0.5589 -2.3668
  120OSM   H13C12642   1.332   6.631  10.813  0.3343  1.2891  0.4860
  120OSM    C1212643   1.599   6.606  10.769 -0.1019 -0.2833 -0.6197
  120OSM   H12A12644   1.570   6.588  10.872 -0.6919 -0.7472 -0.8633
  120OSM   H12B12645   1.604   6.712  10.750 -0.8106 -0.2142 -0.4268
  120OSM    C1112646   1.739   6.539  10.739  0.3796  0.7536 -0.1514
  120OSM   H11A12647   1.762   6.441  10.785 -0.0968  0.3221 -0.8311
  120OSM   H11B12648   1.808   6.600  10.801  1.7738  1.1215 -2.0253
  120OSM      P12649   1.839   6.412  10.541 -0.0356  0.0550 -0.0075
  120OSM    O1312650   1.965   6.381  10.611 -0.4128 -0.4162 -0.5446
  120OSM    O1412651   1.737   6.305  10.542 -0.5686 -0.1004 -0.2157
  120OSM    O1112652   1.865   6.445  10.390 -0.0878  0.5035  0.2734
  120OSM    O1212653   1.774   6.542  10.601  0.2857  0.2934 -0.0186
  120OSM    C1S12654   1.877   6.585  10.353 -0.5204  0.8728  0.8527
  120OSM    H1S12655   1.969   6.629  10.395  0.8224  1.2267 -2.3554
  120OSM    H1T12656   1.784   6.636  10.387 -0.2906  2.3381 -0.6598
  120OSM     NF12657   1.920   6.749  10.162  0.6672 -0.2960 -0.5090
  120OSM    HNF12658   1.845   6.801  10.122  0.7318  0.2878  0.1187
  120OSM    C2S12659   1.876   6.615  10.198 -0.2924 -0.4822 -0.0664
  120OSM    H2S12660   1.956   6.549  10.159 -1.3114 -0.7928 -1.6742
  120OSM    C3S12661   1.742   6.567  10.135 -0.3835 -0.1731 -0.6723
  120OSM    H3S12662   1.669   6.650  10.140 -1.3307 -1.1059  1.8055
  120OSM     O312663   1.691   6.448  10.197 -0.3525 -0.6249 -0.0718
  120OSM    HO312664   1.761   6.418  10.255 -1.3304  0.6375  1.7866
  120OSM    C4S12665   1.768   6.534   9.987  0.0252  0.1477 -0.2429
  120OSM    H4S12666   1.818   6.440   9.961 -0.2388 -0.3042  0.8465
  120OSM    C5S12667   1.729   6.607   9.888  0.1049 -0.5028 -0.8434
  120OSM    H5S12668   1.676   6.703   9.899  0.2683 -0.6054  0.8429
  120OSM    C6S12669   1.734   6.578   9.746 -0.1905 -0.2738  0.3006
  120OSM    H6S12670   1.633   6.553   9.707 -0.5293  0.0734  0.9585
  120OSM    H6T12671   1.803   6.493   9.726 -0.0318 -0.2561  0.7747
  120OSM    C7S12672   1.781   6.692   9.660  1.0129 -0.1434 -0.2803
  120OSM    H7S12673   1.876   6.717   9.712  0.1280  1.2655  0.6730
  120OSM    H7T12674   1.723   6.786   9.673  0.7217 -0.2074 -1.0528
  120OSM    C8S12675   1.801   6.664   9.510 -0.1326 -0.4011 -0.1029
  120OSM    H8S12676   1.862   6.574   9.485 -1.2897 -1.0257 -0.7261
  120OSM    H8T12677   1.845   6.757   9.470 -0.8211  0.0164  0.0839
  120OSM    C9S12678   1.676   6.642   9.428 -0.1557 -0.6558 -0.2860
  120OSM    H9S12679   1.603   6.721   9.455  0.7313 -0.5366  1.9263
  120OSM    H9T12680   1.618   6.551   9.454  1.9625 -2.0904 -0.4344
  120OSM   C10S12681   1.690   6.657   9.268  0.0085 -0.4788 -0.6292
  120OSM   H10S12682   1.604   6.599   9.228 -1.6457  0.2028  1.8112
  120OSM   H10T12683   1.771   6.587   9.239  0.0198 -1.4454  1.5667
  120OSM   C11S12684   1.696   6.801   9.219  0.5327 -0.5153 -0.6205
  120OSM   H11S12685   1.783   6.852   9.264 -0.3344 -0.7112  1.3050
  120OSM   H11T12686   1.610   6.860   9.258  0.4705 -1.9003  1.3894
  120OSM   C12S12687   1.692   6.820   9.066  0.0500  0.0831 -0.1580
  120OSM   H12S12688   1.603   6.757   9.043 -0.2668 -0.6618  2.9081
  120OSM   H12T12689   1.789   6.778   9.032  1.0480  2.1578  0.0467
  120OSM   C13S12690   1.683   6.959   9.008 -0.2473 -0.7232 -0.5503
  120OSM   H13S12691   1.773   7.018   9.034  0.1003 -0.5147 -2.1307
  120OSM   H13T12692   1.598   7.011   9.058 -1.5708 -1.4564 -1.9569
  120OSM   C14S12693   1.649   6.970   8.859  0.1227  0.4653  0.3873
  120OSM   H14S12694   1.544   6.937   8.843  0.8406 -1.1600 -1.1768
  120OSM   H14T12695   1.720   6.913   8.795 -1.5364 -1.1931 -0.0004
  120OSM   C15S12696   1.661   7.107   8.797 -0.2776 -1.0664  0.4551
  120OSM   H15S12697   1.763   7.144   8.824  0.4175 -1.9287 -0.9319
  120OSM   H15T12698   1.587   7.176   8.842  0.9306  0.4080  0.2544
  120OSM   C16S12699   1.639   7.114   8.645  0.4498  0.2418  0.1597
  120OSM   H16S12700   1.531   7.100   8.622 -0.3153  0.9578  3.0888
  120OSM   H16T12701   1.681   7.023   8.598 -0.2225  0.5547 -1.0546
  120OSM   C17S12702   1.673   7.253   8.584 -0.2903 -0.1003  0.7788
  120OSM   H17S12703   1.782   7.275   8.590 -0.7384  2.0020  2.1274
  120OSM   H17T12704   1.623   7.330   8.647 -0.5977 -1.5974  2.4141
  120OSM   C18S12705   1.638   7.264   8.439 -0.9694  0.2422  0.6530
  120OSM   H18S12706   1.530   7.246   8.417 -0.7600  1.1026 -1.2077
  120OSM   H18T12707   1.699   7.189   8.386 -0.5399  0.4259  0.8823
  120OSM   H18U12708   1.652   7.367   8.399 -1.4243 -0.1769 -0.6288
  120OSM    C1F12709   2.040   6.800  10.188 -0.1563  0.6877  0.4711
  120OSM     OF12710   2.135   6.732  10.223  0.8130  0.4945  0.4647
  120OSM    C2F12711   2.045   6.948  10.161 -0.1995  0.0622  0.3114
  120OSM    H2F12712   2.142   6.984  10.201  0.8575 -0.5454 -1.6432
  120OSM    H2G12713   1.967   7.000  10.220 -2.0275 -1.0251 -1.0652
  120OSM    C3F12714   2.053   6.982  10.011  0.1485 -0.1916 -0.1602
  120OSM    H3F12715   2.046   7.092   9.996 -1.4124 -0.2283  0.2050
  120OSM    H3G12716   1.952   6.955   9.972 -0.3742 -0.1066  1.0890
  120OSM    C4F12717   2.164   6.910   9.942 -0.4043 -0.0938  0.1588
  120OSM    H4F12718   2.231   6.862  10.016 -0.6380 -0.2473  0.2721
  120OSM    H4G12719   2.217   6.974   9.869  0.3087 -0.2493  0.5370
  120OSM    C5F12720   2.122   6.787   9.848 -0.5221  0.4994 -0.2039
  120OSM    H5F12721   2.088   6.832   9.752 -0.5544 -1.4438 -1.1222
  120OSM    H5G12722   2.035   6.734   9.892 -0.4750 -0.1915 -0.9351
  120OSM    C6F12723   2.243   6.693   9.818 -0.4148 -0.7314  0.3085
  120OSM    H6F12724   2.281   6.651   9.914  0.9740 -0.2087 -0.0001
  120OSM    H6G12725   2.321   6.759   9.775 -1.7028 -0.6998 -2.0479
  120OSM    C7F12726   2.209   6.582   9.724  0.1371  0.3982  0.6589
  120OSM    H7F12727   2.114   6.543   9.766 -0.3741  1.3758  0.4363
  120OSM    H7G12728   2.287   6.504   9.730  1.3721  1.3930 -1.6055
  120OSM    C8F12729   2.181   6.621   9.573 -0.4540 -0.7450  0.2010
  120OSM    H8F12730   2.090   6.684   9.587  1.4110  1.9542  0.5277
  120OSM    H8G12731   2.140   6.534   9.518 -2.4938  1.2531 -1.5890
  120OSM    C9F12732   2.292   6.685   9.491 -0.3866  0.6737  0.2320
  120OSM    H9F12733   2.394   6.678   9.532 -1.7339  0.4645  3.6806
  120OSM   C10F12734   2.268   6.744   9.378  0.1988 -0.3308  0.5429
  120OSM   H10F12735   2.353   6.786   9.322 -0.4138  0.4768  0.2171
  120OSM   C11F12736   2.132   6.761   9.307  0.0264  0.5461  0.7212
  120OSM   H11F12737   2.045   6.730   9.369 -3.1374  2.0115 -2.8236
  120OSM   H11G12738   2.124   6.700   9.215  1.8960 -0.8389  1.4323
  120OSM   C12F12739   2.105   6.910   9.273 -0.4373 -0.5456  0.4170
  120OSM   H12F12740   2.008   6.921   9.220 -1.5184 -0.7176  2.3184
  120OSM   H12G12741   2.173   6.947   9.194 -2.8352 -2.2613 -2.5735
  120OSM   C13F12742   2.117   6.994   9.398 -0.0016  0.0339 -0.0407
  120OSM   H13F12743   2.226   6.987   9.418  0.0476 -1.8106 -0.8454
  120OSM   H13G12744   2.065   6.943   9.482 -1.8877  0.8000 -0.6979
  120OSM   C14F12745   2.074   7.139   9.383 -0.1691 -0.5516  0.2718
  120OSM   H14F12746   2.165   7.197   9.356  0.7674 -1.4381  1.4620
  120OSM   H14G12747   2.041   7.159   9.487  0.1683  1.5051  0.0100
  120OSM   C15F12748   1.950   7.174   9.295  0.4404  0.6104 -0.5319
  120OSM   H15F12749   1.861   7.116   9.330  0.8591  1.1523  1.5349
  120OSM   H15G12750   1.978   7.162   9.189  1.0904 -1.0215 -0.1914
  120OSM   C16F12751   1.929   7.323   9.305 -0.0602  0.2561 -0.1874
  120OSM   H16F12752   2.015   7.374   9.255  0.3901  0.9951  1.3295
  120OSM   H16G12753   1.931   7.365   9.407  2.7311 -1.0707  0.3633
  120OSM   C17F12754   1.787   7.370   9.258  0.1581  0.4273  0.0707
  120OSM   H17F12755   1.767   7.472   9.299  0.8716  1.0520 -1.0812
  120OSM   H17G12756   1.707   7.311   9.307 -2.0930  2.6770 -0.7891
  120OSM   C18F12757   1.770   7.382   9.109  0.5066  0.2339 -0.2169
  120OSM   H18F12758   1.762   7.279   9.068 -1.6437  0.5545 -0.6369
  120OSM   H18G12759   1.858   7.421   9.053  0.6570 -3.6166 -2.8602
  120OSM   H18H12760   1.676   7.435   9.081  0.3677 -0.9801 -2.1745
  121OSM      N12761   0.905   3.274  10.850 -0.6005 -0.6677  0.2932
  121OSM    C1512762   0.849   3.357  10.956  0.2133 -0.0764 -0.2559
  121OSM   H15A12763   0.741   3.355  10.959  0.2402 -0.2228  0.6250
  121OSM   H15B12764   0.865   3.460  10.927  0.2348 -0.6267 -2.2684
  121OSM   H15C12765   0.878   3.338  11.058 -0.7243  0.5610  0.1381
  121OSM    C1412766   0.865   3.139  10.887 -0.3358  0.2328 -0.4476
  121OSM   H14A12767   0.933   3.112  10.966  0.7661  0.2535 -1.3704
  121OSM   H14B12768   0.886   3.069  10.807 -2.8402 -0.2108 -0.7748
  121OSM   H14C12769   0.763   3.119  10.917 -0.2023  1.3924  0.8266
  121OSM    C1312770   0.839   3.324  10.727 -0.2406 -0.1391 -0.2751
  121OSM   H13A12771   0.844   3.259  10.641  0.0297 -1.7413  0.9330
  121OSM   H13B12772   0.889   3.417  10.706  0.0584 -0.7962 -2.5386
  121OSM   H13C12773   0.736   3.339  10.758  0.8605  3.1822  2.1258
  121OSM    C1212774   1.049   3.294  10.848  0.0349  0.4432 -0.1935
  121OSM   H12A12775   1.069   3.395  10.818 -2.0685 -0.1140 -3.7398
  121OSM   H12B12776   1.091   3.231  10.770  0.0709 -0.5570  0.6295
  121OSM    C1112777   1.127   3.268  10.985  0.2854 -0.4443  0.1181
  121OSM   H11A12778   1.082   3.332  11.064  2.6161  3.2032 -1.3812
  121OSM   H11B12779   1.230   3.306  10.970  0.2991  0.1357  1.5910
  121OSM      P12780   1.230   3.068  11.112 -0.1687 -0.1182  0.0436
  121OSM    O1312781   1.248   3.155  11.231 -0.0318 -0.0879 -0.7778
  121OSM    O1412782   1.208   2.927  11.140  0.5250 -0.3528  0.3334
  121OSM    O1112783   1.360   3.081  11.023  0.4427 -0.3725  0.2410
  121OSM    O1212784   1.120   3.129  11.019 -0.3890 -0.0904 -0.1168
  121OSM    C1S12785   1.364   3.009  10.899  0.4887  0.5165  0.8247
  121OSM    H1S12786   1.278   2.941  10.886  1.5991 -0.6950 -0.4522
  121OSM    H1T12787   1.455   2.944  10.892  1.9027  2.6749 -2.1914
  121OSM     NF12788   1.352   3.030  10.636 -0.0670 -0.1692 -0.0456
  121OSM    HNF12789   1.418   2.971  10.592 -2.7750 -1.5626 -2.4148
  121OSM    C2S12790   1.381   3.100  10.766 -0.2372  0.8335  0.1821
  121OSM    H2S12791   1.304   3.180  10.771 -0.9351  0.4278 -2.9489
  121OSM    C3S12792   1.524   3.156  10.781  0.3701 -0.1393 -0.3451
  121OSM    H3S12793   1.602   3.079  10.763  0.6385 -0.0441  0.3712
  121OSM     O312794   1.541   3.226  10.906  0.4288 -0.1594  0.0002
  121OSM    HO312795   1.470   3.187  10.957  0.6890 -0.3135  0.2374
  121OSM    C4S12796   1.547   3.258  10.679 -0.3795 -0.4210  0.2294
  121OSM    H4S12797   1.465   3.332  10.680  0.2259  0.2567  1.0349
  121OSM    C5S12798   1.643   3.269  10.586  0.4329 -0.4729  0.1460
  121OSM    H5S12799   1.726   3.197  10.585  0.3853 -0.5302  0.5543
  121OSM    C6S12800   1.636   3.386  10.490  0.0434  0.7497  0.1407
  121OSM    H6S12801   1.738   3.408  10.450 -0.0534  1.0576  0.0577
  121OSM    H6T12802   1.611   3.482  10.540 -2.8390 -0.0576  0.2924
  121OSM    C7S12803   1.549   3.367  10.362 -0.2827  0.6108  0.3592
  121OSM    H7S12804   1.522   3.453  10.296 -1.3809  0.1000  0.1218
  121OSM    H7T12805   1.451   3.346  10.410 -0.1703 -0.4639  0.1178
  121OSM    C8S12806   1.581   3.249  10.271 -0.1320  0.1035  0.3701
  121OSM    H8S12807   1.494   3.213  10.212 -0.8547  1.5037  0.5600
  121OSM    H8T12808   1.612   3.170  10.342 -0.4103  0.2493  0.6557
  121OSM    C9S12809   1.697   3.273  10.175 -0.4422 -0.4417 -0.5243
  121OSM    H9S12810   1.745   3.182  10.132 -0.9582 -0.9052 -0.1298
  121OSM    H9T12811   1.784   3.321  10.225  0.1626 -0.7085 -1.3010
  121OSM   C10S12812   1.656   3.372  10.062 -0.5214 -0.2300 -0.0641
  121OSM   H10S12813   1.670   3.479  10.089 -0.7246 -1.0447  3.4931
  121OSM   H10T12814   1.548   3.353  10.050 -0.5238 -0.5964  0.5361
  121OSM   C11S12815   1.735   3.344   9.928 -0.3774  0.2920  0.4158
  121OSM   H11S12816   1.696   3.246   9.893  1.0922 -0.4481  0.8424
  121OSM   H11T12817   1.844   3.342   9.948 -0.1203 -0.3866 -0.9591
  121OSM   C12S12818   1.712   3.435   9.811 -0.5015  0.2457 -0.0358
  121OSM   H12S12819   1.775   3.526   9.819  1.4759 -0.9429 -1.6163
  121OSM   H12T12820   1.607   3.471   9.814  0.0350  1.7677  2.6515
  121OSM   C13S12821   1.738   3.354   9.677 -0.4828  0.8090 -0.3561
  121OSM   H13S12822   1.654   3.288   9.648  0.5213  1.0990 -4.1249
  121OSM   H13T12823   1.831   3.294   9.681 -0.9340 -0.1041 -2.9432
  121OSM   C14S12824   1.775   3.448   9.557 -0.4226 -0.2125  0.6494
  121OSM   H14S12825   1.804   3.390   9.467 -0.6495  3.3815 -1.8654
  121OSM   H14T12826   1.857   3.515   9.589 -1.2320  0.2425  1.8128
  121OSM   C15S12827   1.663   3.541   9.496  0.6206  0.5208  0.6278
  121OSM   H15S12828   1.712   3.614   9.429  0.8311 -0.9609 -0.8621
  121OSM   H15T12829   1.619   3.601   9.579 -0.3666  2.6268 -1.3782
  121OSM   C16S12830   1.561   3.461   9.409  0.1505 -0.2143 -0.1454
  121OSM   H16S12831   1.494   3.400   9.473  1.4227 -0.7960  0.6372
  121OSM   H16T12832   1.630   3.396   9.351 -0.1133 -1.5523  1.0195
  121OSM   C17S12833   1.484   3.544   9.299 -0.6234  0.0163 -0.0072
  121OSM   H17S12834   1.405   3.479   9.257  1.3689 -2.5601  0.1470
  121OSM   H17T12835   1.559   3.560   9.217  0.7725 -2.6940  0.6810
  121OSM   C18S12836   1.424   3.672   9.362  0.1598 -0.5386  0.0063
  121OSM   H18S12837   1.316   3.681   9.341 -0.1894 -3.7072  0.2182
  121OSM   H18T12838   1.475   3.769   9.342  1.3366 -1.5052 -1.8369
  121OSM   H18U12839   1.430   3.663   9.472  4.6095  1.9471  0.0888
  121OSM    C1F12840   1.221   2.996  10.604 -0.3284  1.4093  0.2374
  121OSM     OF12841   1.128   3.021  10.679  0.3085 -0.5122  0.4778
  121OSM    C2F12842   1.191   2.924  10.472  0.8774  0.5378 -0.1000
  121OSM    H2F12843   1.083   2.909  10.453 -0.2745  3.2638  3.6826
  121OSM    H2G12844   1.238   2.824  10.470 -0.9134 -0.3086 -0.6356
  121OSM    C3F12845   1.243   3.007  10.353  0.4128 -0.4267 -0.0795
  121OSM    H3F12846   1.349   3.039  10.366  0.0475  0.6836  0.1805
  121OSM    H3G12847   1.182   3.100  10.349  1.2593  0.1215 -0.4178
  121OSM    C4F12848   1.227   2.937  10.215 -0.0043 -0.0663  0.0496
  121OSM    H4F12849   1.119   2.915  10.201  0.5403 -2.8482  0.0642
  121OSM    H4G12850   1.275   2.837  10.213  0.3542  0.1086 -3.6721
  121OSM    C5F12851   1.275   3.022  10.098  0.3678 -0.3307 -0.1923
  121OSM    H5F12852   1.370   3.077  10.117 -0.9377  2.0770 -0.3678
  121OSM    H5G12853   1.193   3.095  10.084  1.9206  1.2889 -1.1157
  121OSM    C6F12854   1.296   2.940   9.967  0.2366 -0.5947  0.1750
  121OSM    H6F12855   1.204   2.883   9.945 -0.7847  0.8200  0.7309
  121OSM    H6G12856   1.379   2.872   9.994 -1.2888 -2.1275  1.0640
  121OSM    C7F12857   1.340   3.031   9.852  0.6370  0.0971  0.7610
  121OSM    H7F12858   1.432   3.086   9.882  0.5211  1.0203 -0.5369
  121OSM    H7G12859   1.251   3.096   9.838  1.9244  2.0497  1.3668
  121OSM    C8F12860   1.370   2.944   9.727 -0.9145  0.0502 -0.3799
  121OSM    H8F12861   1.282   2.882   9.699 -1.0341 -0.6592  1.4697
  121OSM    H8G12862   1.443   2.861   9.741 -1.9934 -0.5891  1.6950
  121OSM    C9F12863   1.419   3.042   9.616  0.5139  0.4827 -0.0105
  121OSM    H9F12864   1.517   3.086   9.640 -0.5499  0.5356  4.5977
  121OSM   C10F12865   1.374   3.075   9.497  0.2391  0.5022  0.4602
  121OSM   H10F12866   1.434   3.147   9.439  1.3442 -1.8295 -1.4050
  121OSM   C11F12867   1.248   3.035   9.437  0.5564 -0.1622 -0.5026
  121OSM   H11F12868   1.200   3.128   9.398  1.0772  0.6681  0.7974
  121OSM   H11G12869   1.180   2.995   9.515  0.0862  1.7876  0.1279
  121OSM   C12F12870   1.267   2.931   9.322  0.1624  0.4306  0.3875
  121OSM   H12F12871   1.167   2.886   9.301 -0.2117 -0.0859  3.1864
  121OSM   H12G12872   1.333   2.849   9.357 -1.3973 -0.3673  1.5468
  121OSM   C13F12873   1.337   2.985   9.195 -0.0148 -0.1037 -0.5164
  121OSM   H13F12874   1.349   2.898   9.127 -1.1774  0.2740 -1.2272
  121OSM   H13G12875   1.439   3.012   9.229  0.5050 -1.1940 -1.1934
  121OSM   C14F12876   1.261   3.094   9.121 -0.1569  0.2346 -0.3080
  121OSM   H14F12877   1.159   3.099   9.163  0.1928 -3.1240  1.1158
  121OSM   H14G12878   1.254   3.072   9.012  2.0713  2.2078 -0.9002
  121OSM   C15F12879   1.325   3.232   9.150  0.7041  0.3905  0.0587
  121OSM   H15F12880   1.427   3.226   9.106 -0.1558  1.2011 -2.1375
  121OSM   H15G12881   1.340   3.243   9.259 -1.9438 -4.8783  1.1290
  121OSM   C16F12882   1.241   3.349   9.094  0.3453 -0.2088  0.3446
  121OSM   H16F12883   1.310   3.435   9.087  0.6375 -0.6506 -3.5091
  121OSM   H16G12884   1.152   3.380   9.153  0.4359  1.5373 -0.4204
  121OSM   C17F12885   1.193   3.321   8.951  0.2362 -0.8888 -0.4058
  121OSM   H17F12886   1.112   3.246   8.941 -0.0818 -0.7683  1.1095
  121OSM   H17G12887   1.285   3.279   8.906  1.6085  1.0529  0.5085
  121OSM   C18F12888   1.161   3.447   8.871 -0.5854 -0.3914 -0.0467
  121OSM   H18F12889   1.249   3.514   8.885 -0.1878 -1.0503  0.6941
  121OSM   H18G12890   1.077   3.499   8.921 -0.7331 -1.6941  1.1150
  121OSM   H18H12891   1.142   3.424   8.764 -2.4360 -2.5896  0.6968
  122OSM      N12892   1.179   1.208  10.955  0.2858  0.3470  0.1170
  122OSM    C1512893   1.163   1.352  10.925 -0.0105 -0.0357  0.2595
  122OSM   H15A12894   1.112   1.393  11.011  0.6324 -0.5273  0.8805
  122OSM   H15B12895   1.096   1.372  10.842  1.3180  0.0587 -0.8164
  122OSM   H15C12896   1.260   1.397  10.907 -0.3225  0.5066 -0.0813
  122OSM    C1412897   1.286   1.203  11.059  0.8457 -0.1107 -0.2947
  122OSM   H14A12898   1.255   1.264  11.144  1.1964  0.2198 -0.4016
  122OSM   H14B12899   1.377   1.250  11.023 -0.5675  1.7731 -1.4872
  122OSM   H14C12900   1.301   1.102  11.095  0.0569  0.2762  1.1605
  122OSM    C1312901   1.046   1.169  11.015  0.2998 -0.3405 -0.2438
  122OSM   H13A12902   0.965   1.171  10.944  1.7545  2.3108 -1.8777
  122OSM   H13B12903   1.018   1.208  11.112 -1.2955 -0.8052 -0.4916
  122OSM   H13C12904   1.051   1.062  11.030  1.3527 -0.1664  0.7133
  122OSM    C1212905   1.210   1.116  10.836 -0.3843  0.0527  0.3576
  122OSM   H12A12906   1.300   1.151  10.788 -1.1983 -0.1057 -1.3097
  122OSM   H12B12907   1.131   1.121  10.762  1.1475  0.6803 -1.2472
  122OSM    C1112908   1.237   0.961  10.865 -0.0969  0.6687 -0.0804
  122OSM   H11A12909   1.247   0.908  10.768  1.1370  2.2910 -0.8616
  122OSM   H11B12910   1.147   0.924  10.919  0.5955 -5.6309 -2.8177
  122OSM      P12911   1.501   0.931  10.886 -0.1398  0.1117  0.2790
  122OSM    O1312912   1.560   1.059  10.931 -0.0740  0.1675  0.1177
  122OSM    O1412913   1.567   0.810  10.915 -0.8513  0.3014 -0.4610
  122OSM    O1112914   1.475   0.930  10.737 -0.1374  0.1699 -0.4106
  122OSM    O1212915   1.352   0.931  10.945 -0.1128 -0.3094 -0.1701
  122OSM    C1S12916   1.581   0.919  10.644 -0.0327 -0.0222 -0.9199
  122OSM    H1S12917   1.614   0.813  10.639 -1.0507 -0.4852  1.4867
  122OSM    H1T12918   1.674   0.970  10.676 -2.0535  1.1079  3.4398
  122OSM     NF12919   1.662   0.934  10.415  0.4841 -0.0934  0.1139
  122OSM    HNF12920   1.722   1.007  10.382 -0.1358  0.5990  0.5160
  122OSM    C2S12921   1.546   0.965  10.501 -0.7483  0.5456 -0.0484
  122OSM    H2S12922   1.456   0.909  10.468 -0.2257  0.1445 -0.7948
  122OSM    C3S12923   1.497   1.112  10.498 -0.3918  0.0665  0.4916
  122OSM    H3S12924   1.579   1.181  10.529 -2.0500  2.4404 -0.3008
  122OSM     O312925   1.386   1.129  10.583  0.0948  0.6028 -0.8254
  122OSM    HO312926   1.385   1.051  10.638 -1.7424  2.7654  2.3606
  122OSM    C4S12927   1.453   1.153  10.360  0.0457  0.0685  0.1494
  122OSM    H4S12928   1.367   1.092  10.329  0.0310  1.1841 -2.0899
  122OSM    C5S12929   1.508   1.238  10.278 -0.0941 -0.0692 -0.4798
  122OSM    H5S12930   1.595   1.292  10.318  0.0657  0.4274 -1.4879
  122OSM    C6S12931   1.472   1.265  10.134  0.5127 -0.4116 -0.1104
  122OSM    H6S12932   1.415   1.359  10.127  0.5772 -0.3439  0.2728
  122OSM    H6T12933   1.409   1.184  10.092  0.2208 -0.6387  0.7433
  122OSM    C7S12934   1.605   1.279  10.052  0.1612  0.0171  0.3300
  122OSM    H7S12935   1.668   1.189  10.070 -2.4029 -2.2306 -1.4308
  122OSM    H7T12936   1.654   1.377  10.068  0.9303 -0.3603  0.2903
  122OSM    C8S12937   1.583   1.283   9.900 -0.2390  0.4273 -0.7224
  122OSM    H8S12938   1.521   1.371   9.875 -2.7383 -1.2961 -0.7031
  122OSM    H8T12939   1.531   1.188   9.875 -4.2545  2.1859  0.5777
  122OSM    C9S12940   1.719   1.286   9.828  0.8782 -0.8562  0.4016
  122OSM    H9S12941   1.786   1.205   9.862  1.7200  0.2408  1.4082
  122OSM    H9T12942   1.766   1.375   9.875 -1.3661  0.3032  0.5715
  122OSM   C10S12943   1.696   1.290   9.675 -0.1795 -0.2574  0.3924
  122OSM   H10S12944   1.635   1.204   9.641 -0.3298 -0.2916  0.7483
  122OSM   H10T12945   1.798   1.275   9.633 -0.1558  0.2931  0.2556
  122OSM   C11S12946   1.646   1.423   9.615  0.7091  0.0450  0.0931
  122OSM   H11S12947   1.723   1.501   9.636  0.3381  0.0699  1.3748
  122OSM   H11T12948   1.551   1.450   9.666 -0.1155 -2.3846 -0.0975
  122OSM   C12S12949   1.630   1.405   9.462  0.6111  0.2601  0.1105
  122OSM   H12S12950   1.540   1.340   9.450  1.5990 -0.9213 -0.9705
  122OSM   H12T12951   1.708   1.342   9.416 -2.0398 -0.0941 -4.1485
  122OSM   C13S12952   1.617   1.543   9.391  0.7933  0.7364  0.4996
  122OSM   H13S12953   1.714   1.597   9.390  1.6310 -0.7316 -0.1001
  122OSM   H13T12954   1.544   1.593   9.459 -2.8311 -0.7861 -2.0730
  122OSM   C14S12955   1.556   1.524   9.252 -0.5243 -0.5304  0.2731
  122OSM   H14S12956   1.532   1.627   9.218 -0.9637 -0.5653  0.4738
  122OSM   H14T12957   1.457   1.472   9.253 -0.0731 -1.4199 -0.0939
  122OSM   C15S12958   1.647   1.443   9.158 -0.2933 -0.1986  0.2202
  122OSM   H15S12959   1.698   1.350   9.191 -0.0573 -1.1773 -2.7580
  122OSM   H15T12960   1.737   1.504   9.137  0.9929 -2.1852 -0.1305
  122OSM   C16S12961   1.587   1.423   9.016 -1.2377 -0.1827  0.4755
  122OSM   H16S12962   1.679   1.404   8.957 -0.5954 -0.2314  1.4675
  122OSM   H16T12963   1.540   1.517   8.983 -1.2329 -0.4878 -0.3989
  122OSM   C17S12964   1.492   1.306   8.991 -0.3449  0.0674  0.4316
  122OSM   H17S12965   1.413   1.334   9.064 -0.6151 -0.0833  0.1975
  122OSM   H17T12966   1.550   1.218   9.022 -0.9458 -0.1066  1.0665
  122OSM   C18S12967   1.434   1.290   8.850 -0.7156 -0.1182 -0.1304
  122OSM   H18S12968   1.508   1.292   8.767 -1.5708  1.3393 -0.8662
  122OSM   H18T12969   1.353   1.364   8.830 -0.6462 -0.3071 -1.1863
  122OSM   H18U12970   1.387   1.189   8.845 -1.5200  0.2474  0.0417
  122OSM    C1F12971   1.694   0.811  10.379  0.0795  0.1525 -0.0489
  122OSM     OF12972   1.617   0.718  10.408 -0.2411  0.6837  0.1802
  122OSM    C2F12973   1.821   0.801  10.297 -0.5259  0.0764 -0.4775
  122OSM    H2F12974   1.912   0.823  10.356 -1.0816  1.9299 -0.3029
  122OSM    H2G12975   1.808   0.873  10.213  1.1778  1.7557  0.6788
  122OSM    C3F12976   1.841   0.658  10.242 -1.1086  0.1124  0.1094
  122OSM    H3F12977   1.748   0.623  10.192 -2.0079  0.7859  1.2814
  122OSM    H3G12978   1.870   0.593  10.327 -0.1924 -0.5763 -0.7244
  122OSM    C4F12979   1.956   0.652  10.143 -0.2783 -0.2712 -0.2137
  122OSM    H4F12980   1.916   0.701  10.051  0.0538 -0.0453 -0.2354
  122OSM    H4G12981   1.974   0.544  10.126 -0.9888 -0.1864 -1.5791
  122OSM    C5F12982   2.084   0.728  10.175 -0.0285 -0.3932 -0.5473
  122OSM    H5F12983   2.117   0.689  10.273  2.8001  0.8937 -0.9535
  122OSM    H5G12984   2.064   0.837  10.183 -1.1940 -0.5142 -1.6144
  122OSM    C6F12985   2.196   0.703  10.069  0.5699 -0.2415 -0.5540
  122OSM    H6F12986   2.138   0.734   9.979 -1.2177  1.2348  1.0553
  122OSM    H6G12987   2.221   0.596  10.059  1.0403 -0.5293  2.9890
  122OSM    C7F12988   2.318   0.781  10.093 -0.4665  0.0239  0.8147
  122OSM    H7F12989   2.357   0.751  10.193  2.1913 -1.6528 -0.6718
  122OSM    H7G12990   2.293   0.890  10.096  0.7178  0.3249  0.1824
  122OSM    C8F12991   2.434   0.766   9.990  0.1078  0.3629 -0.1055
  122OSM    H8F12992   2.532   0.803  10.027  1.1303 -1.4792 -0.9148
  122OSM    H8G12993   2.402   0.818   9.897 -0.6471  0.2046  0.0623
  122OSM    C9F12994   2.467   0.627   9.944 -0.0093  0.0298  0.0052
  122OSM    H9F12995   2.524   0.568  10.017  0.3723  0.7548  0.2937
  122OSM   C10F12996   2.418   0.559   9.838 -0.4555 -0.0188  0.1107
  122OSM   H10F12997   2.454   0.455   9.829 -1.4571 -0.4869  1.2373
  122OSM   C11F12998   2.312   0.599   9.735  0.4988  0.1294 -0.3466
  122OSM   H11F12999   2.278   0.701   9.762 -0.8959 -0.3257 -0.3722
  122OSM   H11G13000   2.231   0.524   9.735 -1.1000  1.8389 -0.1907
  122OSM   C12F13001   2.365   0.603   9.592 -0.0306 -0.4125  0.3331
  122OSM   H12F13002   2.395   0.499   9.565  1.8264  0.1643  0.1284
  122OSM   H12G13003   2.463   0.655   9.594 -0.8644  1.1438  2.3075
  122OSM   C13F13004   2.277   0.669   9.487  0.1439  0.3751  1.2786
  122OSM   H13F13005   2.242   0.771   9.514 -0.2437  1.0784 -1.6935
  122OSM   H13G13006   2.192   0.598   9.482 -0.4326  1.0712  1.0274
  122OSM   C14F13007   2.353   0.690   9.351 -0.3606 -0.5283 -0.5041
  122OSM   H14F13008   2.394   0.591   9.322  0.0805  0.1635 -2.3329
  122OSM   H14G13009   2.431   0.765   9.375 -0.4641 -0.7734  0.6245
  122OSM   C15F13010   2.265   0.760   9.247  0.0982  0.0045 -0.0103
  122OSM   H15F13011   2.214   0.845   9.297 -0.4757 -0.6166  0.4452
  122OSM   H15G13012   2.186   0.686   9.226  0.0194  0.0721  0.0494
  122OSM   C16F13013   2.337   0.797   9.116 -0.0027  0.3079 -0.3123
  122OSM   H16F13014   2.400   0.713   9.080 -1.0967 -0.3686 -0.6981
  122OSM   H16G13015   2.403   0.883   9.142  0.9048 -0.9052  1.5060
  122OSM   C17F13016   2.233   0.831   9.003  0.1992  0.0123  0.8718
  122OSM   H17F13017   2.145   0.889   9.038  0.4542  0.4282  0.8311
  122OSM   H17G13018   2.191   0.732   8.976 -0.5832 -0.0272  2.2042
  122OSM   C18F13019   2.298   0.908   8.886  0.1114  1.4613  0.4077
  122OSM   H18F13020   2.230   0.932   8.802  0.8732  0.3505 -0.5312
  122OSM   H18G13021   2.375   0.841   8.843 -1.0832  0.8899 -0.8629
  122OSM   H18H13022   2.348   1.003   8.916 -0.1096  1.4814  0.7142
  123OSM      N13023   6.120   0.035   5.808  0.7868  0.0959  0.0825
  123OSM    C1513024   5.981  -0.003   5.812 -0.5890  0.6047 -0.2259
  123OSM   H15A13025   5.932   0.036   5.900  1.8111 -1.6662  2.2503
  123OSM   H15B13026   5.967  -0.110   5.826 -0.5244  0.4127 -1.5536
  123OSM   H15C13027   5.937   0.023   5.717  0.1456 -1.4383 -1.1742
  123OSM    C1413028   6.202  -0.042   5.705 -0.4444  0.3963 -0.1053
  123OSM   H14A13029   6.173  -0.008   5.607 -1.6142 -0.3785 -0.0429
  123OSM   H14B13030   6.178  -0.146   5.719 -1.5026  0.7815  1.1067
  123OSM   H14C13031   6.304  -0.012   5.725 -1.4465  3.0280  1.2758
  123OSM    C1313032   6.125   0.179   5.770 -0.8293  0.7961  0.3573
  123OSM   H13A13033   6.097   0.196   5.667  2.4875 -1.3280 -0.9729
  123OSM   H13B13034   6.227   0.214   5.779 -1.5251  3.2298 -0.5664
  123OSM   H13C13035   6.050   0.234   5.825 -1.9440  1.5795 -1.8502
  123OSM    C1213036   6.177   0.027   5.948 -0.2391  0.5473  0.1424
  123OSM   H12A13037   6.117   0.097   6.004 -0.2085 -0.8277  1.9650
  123OSM   H12B13038   6.271   0.080   5.936  0.9178 -1.3815  0.3569
  123OSM    C1113039   6.187  -0.118   6.019 -0.3314 -0.0060  0.0229
  123OSM   H11A13040   6.265  -0.109   6.097 -1.2239  0.8908  0.8307
  123OSM   H11B13041   6.217  -0.191   5.940 -1.1296  0.7314 -0.9878
  123OSM      P13042   5.991  -0.075   6.195 -0.3620 -0.0687  0.1033
  123OSM    O1313043   5.874   0.003   6.138 -0.2486  0.1334  0.0368
  123OSM    O1413044   5.961  -0.180   6.301 -0.3620  0.6384 -0.0438
  123OSM    O1113045   6.114   0.005   6.248 -0.7866  0.4391  0.2349
  123OSM    O1213046   6.064  -0.156   6.071 -0.1334 -1.2155 -0.2931
  123OSM    C1S13047   6.087   0.114   6.335  0.4952 -0.2402 -0.1301
  123OSM    H1S13048   5.983   0.153   6.323  0.4950 -0.3130 -0.3605
  123OSM    H1T13049   6.153   0.202   6.324 -0.3481  0.2787 -1.1353
  123OSM     NF13050   6.039   0.176   6.566 -0.1764  0.2957  0.1243
  123OSM    HNF13051   6.092   0.246   6.613 -0.7657  0.3294  0.7390
  123OSM    C2S13052   6.105   0.075   6.485 -0.4686  0.5107  0.7040
  123OSM    H2S13053   6.046  -0.016   6.507 -0.8435  0.5445 -0.1355
  123OSM    C3S13054   6.256   0.052   6.524  0.0824 -0.2102  0.8030
  123OSM    H3S13055   6.312   0.148   6.522 -1.9509  0.9968  0.6977
  123OSM     O313056   6.316  -0.043   6.433  0.0878  0.2749 -0.2901
  123OSM    HO313057   6.269  -0.034   6.350 -2.3575 -0.9207  0.8824
  123OSM    C4S13058   6.262   0.007   6.669 -0.5974  0.3363 -0.0354
  123OSM    H4S13059   6.281   0.085   6.744 -0.7377  0.9993 -0.6834
  123OSM    C5S13060   6.239  -0.119   6.711  0.3076 -0.8501  0.5659
  123OSM    H5S13061   6.209  -0.189   6.631 -1.7800  1.6258 -0.8967
  123OSM    C6S13062   6.245  -0.174   6.851 -0.6482  0.5490 -0.5313
  123OSM    H6S13063   6.338  -0.229   6.878 -1.0763 -0.0902 -0.3595
  123OSM    H6T13064   6.178  -0.260   6.870 -0.2052  0.9739  3.3103
  123OSM    C7S13065   6.232  -0.075   6.972  0.1918  0.7472 -0.4424
  123OSM    H7S13066   6.129  -0.033   6.976 -1.2851 -2.7934  0.2456
  123OSM    H7T13067   6.298   0.014   6.967  0.9091  0.2795  0.4388
  123OSM    C8S13068   6.262  -0.134   7.105  0.3601 -0.2255 -0.3555
  123OSM    H8S13069   6.371  -0.155   7.118  0.4989 -0.1263 -1.2910
  123OSM    H8T13070   6.201  -0.226   7.102 -1.0840  0.7762 -4.1226
  123OSM    C9S13071   6.220  -0.059   7.226  0.3652 -0.6657 -0.8924
  123OSM    H9S13072   6.111  -0.070   7.246  0.3025  0.7417 -0.3751
  123OSM    H9T13073   6.240   0.050   7.220  2.5648 -1.1346 -2.1931
  123OSM   C10S13074   6.302  -0.120   7.338 -0.0218 -0.5540 -0.7511
  123OSM   H10S13075   6.410  -0.095   7.327 -0.0780 -0.6688 -1.5877
  123OSM   H10T13076   6.283  -0.229   7.334 -4.0977  0.0154  0.5955
  123OSM   C11S13077   6.253  -0.060   7.470 -0.6814 -0.6605 -0.5081
  123OSM   H11S13078   6.143  -0.063   7.479 -0.7464 -2.6645 -1.7100
  123OSM   H11T13079   6.289   0.046   7.467  4.2554 -2.0766  2.1476
  123OSM   C12S13080   6.314  -0.115   7.602  0.7595  1.2501  0.2534
  123OSM   H12S13081   6.417  -0.149   7.578 -0.3001 -1.4894 -0.5923
  123OSM   H12T13082   6.252  -0.206   7.621  0.8721  0.4722 -2.9422
  123OSM   C13S13083   6.314  -0.023   7.725  0.1201 -0.1677  0.1889
  123OSM   H13S13084   6.214   0.022   7.744 -0.2373 -0.5732 -0.6940
  123OSM   H13T13085   6.370   0.070   7.698  1.4735 -0.9507  0.2846
  123OSM   C14S13086   6.373  -0.092   7.849  0.3190  0.0247 -0.1631
  123OSM   H14S13087   6.483  -0.108   7.836  0.0079 -1.0307 -1.7013
  123OSM   H14T13088   6.323  -0.188   7.875 -0.9407  0.9783  0.9412
  123OSM   C15S13089   6.341  -0.001   7.970  0.0693  0.0194 -0.1428
  123OSM   H15S13090   6.233   0.018   7.983 -0.1944 -1.8279  0.4456
  123OSM   H15T13091   6.386   0.099   7.954 -1.8268  0.5745 -2.2910
  123OSM   C16S13092   6.385  -0.056   8.106 -0.4994 -0.4916 -0.1861
  123OSM   H16S13093   6.370   0.029   8.175  1.0896  0.4761 -1.0019
  123OSM   H16T13094   6.492  -0.083   8.089  0.2508  2.8779 -1.2309
  123OSM   C17S13095   6.314  -0.185   8.151  0.2119 -0.2059  0.5341
  123OSM   H17S13096   6.336  -0.271   8.084  2.0814  0.3008  0.4692
  123OSM   H17T13097   6.204  -0.168   8.153  0.1492 -0.3894 -0.6125
  123OSM   C18S13098   6.362  -0.230   8.291  0.2170  0.0283  1.0226
  123OSM   H18S13099   6.473  -0.226   8.297  0.2868 -1.7079  1.1038
  123OSM   H18T13100   6.329  -0.335   8.301 -0.2817  0.0441 -0.3146
  123OSM   H18U13101   6.310  -0.176   8.373 -1.1237  2.2584 -1.1992
  123OSM    C1F13102   5.913   0.199   6.569  0.0375  0.2125  0.4661
  123OSM     OF13103   5.836   0.132   6.495 -0.3746 -0.6624 -0.1369
  123OSM    C2F13104   5.858   0.308   6.656  0.3835  0.9688  0.2191
  123OSM    H2F13105   5.785   0.363   6.594 -0.0298 -0.9821 -1.0567
  123OSM    H2G13106   5.937   0.372   6.700  0.8336 -0.0109  0.8726
  123OSM    C3F13107   5.774   0.257   6.783 -0.0093 -0.2878  0.7579
  123OSM    H3F13108   5.709   0.173   6.752  0.3962 -1.0196  1.8893
  123OSM    H3G13109   5.708   0.340   6.817 -2.7036 -2.2282  0.4473
  123OSM    C4F13110   5.847   0.193   6.899  0.2778 -0.8176  0.0492
  123OSM    H4F13111   5.948   0.237   6.911  0.8162 -1.6065 -1.5609
  123OSM    H4G13112   5.873   0.088   6.873  0.2659 -0.2167 -2.5080
  123OSM    C5F13113   5.771   0.182   7.027 -0.4874  0.1812  0.1707
  123OSM    H5F13114   5.675   0.128   7.010 -0.5979  0.3174  0.3593
  123OSM    H5G13115   5.740   0.285   7.057  0.1874  0.1585  0.9830
  123OSM    C6F13116   5.854   0.124   7.140  0.3005  0.4640  0.3515
  123OSM    H6F13117   5.952   0.174   7.154 -0.3377  1.2753  1.9718
  123OSM    H6G13118   5.874   0.016   7.121 -0.4791  0.3338  0.2770
  123OSM    C7F13119   5.775   0.135   7.273 -0.2527 -0.0283 -0.0356
  123OSM    H7F13120   5.680   0.080   7.259 -0.9148  1.1331 -0.1666
  123OSM    H7G13121   5.744   0.239   7.298 -0.8359  0.5839 -3.0767
  123OSM    C8F13122   5.841   0.071   7.398 -0.4867  0.0755 -0.4781
  123OSM    H8F13123   5.864  -0.034   7.370 -0.0972  0.2185 -0.6880
  123OSM    H8G13124   5.774   0.054   7.485  0.3160  1.0922  0.3397
  123OSM    C9F13125   5.959   0.152   7.446  0.4254 -0.5780 -0.0511
  123OSM    H9F13126   6.030   0.188   7.370 -2.3526  0.7478 -2.0939
  123OSM   C10F13127   5.977   0.203   7.573 -0.5375  0.5439 -0.1944
  123OSM   H10F13128   6.072   0.258   7.580  0.7131 -1.5678  0.0710
  123OSM   C11F13129   5.890   0.197   7.697 -0.2884  0.1062  0.6179
  123OSM   H11F13130   5.939   0.132   7.773 -0.3885 -1.1514 -0.3682
  123OSM   H11G13131   5.794   0.144   7.678 -0.4501  0.8626 -0.7102
  123OSM   C12F13132   5.843   0.335   7.744 -0.2321  0.2413 -0.0713
  123OSM   H12F13133   5.827   0.402   7.657  0.7853 -0.6302 -0.9337
  123OSM   H12G13134   5.929   0.375   7.802 -1.4278  0.3453  1.6742
  123OSM   C13F13135   5.733   0.340   7.848 -0.1468  0.4151 -0.1162
  123OSM   H13F13136   5.750   0.269   7.932 -0.1294  1.0534  0.4262
  123OSM   H13G13137   5.635   0.302   7.810 -0.7575  0.5170  1.3220
  123OSM   C14F13138   5.705   0.480   7.892 -0.0813 -0.1453 -0.7825
  123OSM   H14F13139   5.692   0.557   7.813 -2.1518  0.0401 -0.2718
  123OSM   H14G13140   5.794   0.498   7.957 -1.3666 -1.5551  1.4091
  123OSM   C15F13141   5.597   0.487   7.994  0.6072  0.1573 -0.1896
  123OSM   H15F13142   5.608   0.397   8.058  0.1078  0.0091 -0.3141
  123OSM   H15G13143   5.494   0.473   7.955 -0.5005  0.3473  2.5218
  123OSM   C16F13144   5.606   0.612   8.083  0.2674 -0.4789  0.3428
  123OSM   H16F13145   5.610   0.690   8.004 -0.2467  1.0947  1.8518
  123OSM   H16G13146   5.709   0.621   8.122  0.4078 -0.0817 -0.1084
  123OSM   C17F13147   5.499   0.624   8.186  0.1859  0.3592 -0.2711
  123OSM   H17F13148   5.401   0.626   8.132  1.5890  1.4442 -2.8764
  123OSM   H17G13149   5.510   0.721   8.238 -0.5147  0.6588 -0.6605
  123OSM   C18F13150   5.497   0.530   8.303 -0.4585  0.1139 -0.1108
  123OSM   H18F13151   5.598   0.503   8.340 -1.0221  2.5303  3.4645
  123OSM   H18G13152   5.458   0.431   8.270  0.4076 -0.3094  0.1000
  123OSM   H18H13153   5.429   0.554   8.388  2.5586  0.2374  2.3394
  124OSM      N13154   2.011   4.303   6.143 -0.6758  0.3165 -0.1158
  124OSM    C1513155   1.934   4.210   6.049 -0.0912 -0.0892 -0.6789
  124OSM   H15A13156   1.994   4.121   6.043  0.2822  0.1254 -0.1311
  124OSM   H15B13157   1.928   4.245   5.947 -3.4318 -1.4662 -1.0136
  124OSM   H15C13158   1.838   4.186   6.091  0.0231 -1.4913 -1.2089
  124OSM    C1413159   2.004   4.244   6.288 -0.1865 -0.1506  0.3304
  124OSM   H14A13160   2.038   4.142   6.286  0.3245  0.0237  0.1284
  124OSM   H14B13161   1.904   4.258   6.328 -0.4485  0.0079 -0.3696
  124OSM   H14C13162   2.062   4.299   6.360  1.6908 -0.9407 -0.5523
  124OSM    C1313163   2.157   4.315   6.118 -0.0166  0.5703 -0.8757
  124OSM   H13A13164   2.173   4.367   6.025  1.1839  0.7391 -0.5825
  124OSM   H13B13165   2.203   4.217   6.119 -1.1465 -0.0100  2.3335
  124OSM   H13C13166   2.192   4.373   6.202 -1.2759 -0.9602  0.7778
  124OSM    C1213167   1.962   4.445   6.141 -0.4354 -0.6925  0.2933
  124OSM   H12A13168   1.978   4.482   6.041 -2.4400  0.1262  0.2666
  124OSM   H12B13169   2.027   4.499   6.208  0.6629 -2.0687  0.3614
  124OSM    C1113170   1.809   4.476   6.179 -0.0476 -0.5831 -0.9014
  124OSM   H11A13171   1.741   4.428   6.105 -1.1995  0.0623 -0.2581
  124OSM   H11B13172   1.802   4.586   6.168 -0.6370 -0.6048 -0.7116
  124OSM      P13173   1.664   4.351   6.355 -0.6533 -0.3742 -0.2388
  124OSM    O1313174   1.571   4.332   6.242 -0.2434 -0.1320  0.6393
  124OSM    O1413175   1.730   4.230   6.408  0.1599 -0.2335  0.2173
  124OSM    O1113176   1.612   4.426   6.478 -0.1654 -0.5076 -0.1991
  124OSM    O1213177   1.782   4.442   6.313  0.1309  0.3487  0.2272
  124OSM    C1S13178   1.673   4.469   6.596  0.4229  0.2598  0.1252
  124OSM    H1S13179   1.743   4.552   6.572  0.2230  0.2637 -0.4529
  124OSM    H1T13180   1.736   4.387   6.636 -1.2964 -1.8003 -1.3491
  124OSM     NF13181   1.660   4.564   6.828 -0.4052  0.1336 -0.4632
  124OSM    HNF13182   1.692   4.507   6.903  2.9858 -1.4309 -2.9513
  124OSM    C2S13183   1.585   4.501   6.721  0.2675  0.2999 -0.1466
  124OSM    H2S13184   1.505   4.571   6.688  0.7219  1.0732  0.3965
  124OSM    C3S13185   1.509   4.371   6.768  0.5529 -0.1624  0.7031
  124OSM    H3S13186   1.572   4.291   6.812  0.4696 -1.6314 -1.7619
  124OSM     O313187   1.458   4.298   6.656 -0.2140 -0.3674 -0.5351
  124OSM    HO313188   1.492   4.344   6.579 -0.5095  0.1582 -0.3509
  124OSM    C4S13189   1.397   4.390   6.869  0.1449  0.1298 -0.2992
  124OSM    H4S13190   1.435   4.363   6.969 -0.0533  1.7726  0.2302
  124OSM    C5S13191   1.273   4.426   6.848  0.4207 -0.4585  0.0294
  124OSM    H5S13192   1.239   4.451   6.746 -1.2312 -1.7093  0.2555
  124OSM    C6S13193   1.159   4.440   6.943 -0.3166 -0.3859 -0.1526
  124OSM    H6S13194   1.078   4.375   6.903  1.6192 -1.0304 -3.1583
  124OSM    H6T13195   1.122   4.544   6.953 -1.7323 -0.6077 -2.6734
  124OSM    C7S13196   1.188   4.386   7.086 -0.9035 -0.7030  0.0583
  124OSM    H7S13197   1.284   4.422   7.129 -0.2306 -1.9175 -0.4027
  124OSM    H7T13198   1.192   4.275   7.076  2.1230 -0.6360  0.0334
  124OSM    C8S13199   1.081   4.428   7.183 -0.4582 -0.1422  0.3901
  124OSM    H8S13200   0.985   4.385   7.146 -0.4762 -0.9542  1.3370
  124OSM    H8T13201   1.065   4.537   7.196 -0.0885 -0.2151  1.5239
  124OSM    C9S13202   1.096   4.363   7.326 -0.3331  1.0049 -0.2539
  124OSM    H9S13203   1.191   4.404   7.368  0.1348  3.7192 -3.8035
  124OSM    H9T13204   1.088   4.254   7.307 -2.0382  1.1506 -0.4455
  124OSM   C10S13205   0.989   4.421   7.429  0.4946  0.5503  0.1170
  124OSM   H10S13206   0.893   4.365   7.436  1.2596 -0.6459  1.1779
  124OSM   H10T13207   0.961   4.527   7.409 -1.0444 -0.3578 -2.7380
  124OSM   C11S13208   1.050   4.423   7.575  0.3476 -0.0224  0.6061
  124OSM   H11S13209   1.119   4.510   7.584 -1.3297  1.3193  0.9522
  124OSM   H11T13210   1.104   4.327   7.589 -1.8840 -1.1484  1.6865
  124OSM   C12S13211   0.944   4.424   7.686 -0.0621 -0.0609  0.3493
  124OSM   H12S13212   0.886   4.329   7.681  2.3606 -1.5183 -0.8996
  124OSM   H12T13213   0.871   4.502   7.655  0.0034  1.1867  3.1180
  124OSM   C13S13214   1.017   4.448   7.824  0.1914 -0.1419 -0.9030
  124OSM   H13S13215   1.093   4.529   7.824 -0.6250  0.6273 -1.3252
  124OSM   H13T13216   1.062   4.347   7.834  0.5680  0.2560  2.0643
  124OSM   C14S13217   0.919   4.475   7.939  1.4172  0.1512  0.1636
  124OSM   H14S13218   0.834   4.402   7.940  0.7829  0.8505 -1.8995
  124OSM   H14T13219   0.870   4.573   7.920  0.4068 -0.1720  1.0392
  124OSM   C15S13220   0.990   4.473   8.076 -0.2890  0.4607 -1.0681
  124OSM   H15S13221   1.063   4.557   8.080 -1.9221  1.8463  0.0391
  124OSM   H15T13222   1.040   4.377   8.104 -1.5790  0.2666  0.6502
  124OSM   C16S13223   0.891   4.492   8.196 -0.6284 -0.5814  0.2675
  124OSM   H16S13224   0.809   4.417   8.192  0.6999 -2.0900  1.0234
  124OSM   H16T13225   0.850   4.595   8.189 -1.0820 -0.5899  2.6115
  124OSM   C17S13226   0.966   4.481   8.330  0.4473 -0.0354 -0.7474
  124OSM   H17S13227   1.040   4.563   8.341  0.1856  0.2265 -0.9599
  124OSM   H17T13228   1.021   4.384   8.323 -2.5683 -1.6924 -2.1247
  124OSM   C18S13229   0.864   4.473   8.454 -0.6959 -0.7662 -0.3549
  124OSM   H18S13230   0.903   4.430   8.549 -2.6756 -0.7552  0.4872
  124OSM   H18T13231   0.773   4.413   8.433 -0.5988 -0.9178 -0.3441
  124OSM   H18U13232   0.830   4.578   8.459 -1.3572 -1.0070  0.2695
  124OSM    C1F13233   1.704   4.692   6.829 -0.2969  0.2795 -1.1100
  124OSM     OF13234   1.677   4.760   6.734 -0.4123 -0.1940  0.6024
  124OSM    C2F13235   1.774   4.735   6.960 -0.7023  0.1961 -0.0834
  124OSM    H2F13236   1.858   4.663   6.962  1.2423  2.4045  1.0426
  124OSM    H2G13237   1.706   4.725   7.047  0.4065 -1.2862  0.6137
  124OSM    C3F13238   1.816   4.885   6.957 -0.3201 -0.1164 -0.2580
  124OSM    H3F13239   1.730   4.950   6.982  1.2863  1.6193  0.9591
  124OSM    H3G13240   1.861   4.906   6.857 -2.8790  1.3280 -1.1519
  124OSM    C4F13241   1.930   4.916   7.051  0.6458 -0.4283  0.8176
  124OSM    H4F13242   1.963   5.019   7.025 -0.9426  0.5239  2.4284
  124OSM    H4G13243   2.015   4.848   7.030  0.2394  0.2238 -3.3221
  124OSM    C5F13244   1.896   4.903   7.205  0.2920  0.1492 -0.3072
  124OSM    H5F13245   1.982   4.945   7.262 -0.7594  0.6540  0.9412
  124OSM    H5G13246   1.876   4.799   7.238 -2.6978 -0.1502 -2.7763
  124OSM    C6F13247   1.776   4.982   7.242  0.5491  0.1648 -0.5021
  124OSM    H6F13248   1.688   4.929   7.200  1.5837 -1.9033 -0.1508
  124OSM    H6G13249   1.784   5.080   7.189  0.2112 -0.5526 -1.9203
  124OSM    C7F13250   1.759   5.026   7.380  0.3782  0.1844 -0.3668
  124OSM    H7F13251   1.674   5.095   7.366  1.1479  1.0803 -0.6252
  124OSM    H7G13252   1.838   5.091   7.423  0.7523 -1.5816  1.7168
  124OSM    C8F13253   1.706   4.926   7.481  0.3765  0.1378 -0.2911
  124OSM    H8F13254   1.616   4.870   7.448 -0.4396 -0.5827  2.9795
  124OSM    H8G13255   1.657   4.979   7.565  1.9409 -0.9825  1.3594
  124OSM    C9F13256   1.815   4.837   7.535 -0.4115  0.1483 -0.3352
  124OSM    H9F13257   1.894   4.811   7.463  0.9517  1.4688  0.6422
  124OSM   C10F13258   1.847   4.803   7.663  0.3985 -0.1530 -0.4645
  124OSM   H10F13259   1.936   4.739   7.672 -0.9705 -2.6306 -3.4012
  124OSM   C11F13260   1.777   4.855   7.789  0.3979  0.0881  0.7804
  124OSM   H11F13261   1.666   4.853   7.791  0.3937  0.4697  0.9900
  124OSM   H11G13262   1.812   4.960   7.790  2.5909 -0.6212  0.9051
  124OSM   C12F13263   1.826   4.772   7.908 -1.1246  0.1332 -0.8270
  124OSM   H12F13264   1.933   4.792   7.931 -0.9918 -3.3771  2.0724
  124OSM   H12G13265   1.822   4.661   7.902  1.3115 -0.3363  3.7105
  124OSM   C13F13266   1.762   4.816   8.043  0.3066  0.1650  0.2187
  124OSM   H13F13267   1.655   4.789   8.038 -0.0859  1.6357  0.7399
  124OSM   H13G13268   1.771   4.924   8.064  1.4254 -0.0609  0.9701
  124OSM   C14F13269   1.823   4.744   8.163 -0.2131 -0.1519 -0.2381
  124OSM   H14F13270   1.933   4.758   8.167 -0.1757  0.1114 -1.8376
  124OSM   H14G13271   1.805   4.636   8.143  1.9048 -0.6962  0.6596
  124OSM   C15F13272   1.759   4.787   8.294  0.0599 -0.0123  0.5534
  124OSM   H15F13273   1.649   4.797   8.286 -0.1003 -1.1003  1.2810
  124OSM   H15G13274   1.801   4.887   8.316  0.4925 -0.0612 -0.0300
  124OSM   C16F13275   1.778   4.685   8.409 -0.1746  0.1686  0.2980
  124OSM   H16F13276   1.886   4.659   8.418  0.5161  1.8541 -2.5463
  124OSM   H16G13277   1.721   4.591   8.390 -0.9176  0.5735  0.5633
  124OSM   C17F13278   1.753   4.743   8.546  0.2585 -1.4077 -0.5482
  124OSM   H17F13279   1.728   4.660   8.616  0.7831 -1.0734  0.0369
  124OSM   H17G13280   1.663   4.807   8.530  0.6896 -0.6824 -0.0670
  124OSM   C18F13281   1.871   4.823   8.600  0.0815 -0.3877  0.5316
  124OSM   H18F13282   1.850   4.863   8.701  0.8271 -0.0221  0.5435
  124OSM   H18G13283   1.884   4.904   8.525 -1.5355  1.8004  2.5395
  124OSM   H18H13284   1.958   4.755   8.612 -0.7099 -1.6445 -0.6229
  125OSM      N13285   1.034   5.887   6.273  0.2829  0.7263  0.8834
  125OSM    C1513286   1.063   6.039   6.276 -0.9104 -0.3149 -0.2087
  125OSM   H15A13287   0.979   6.107   6.266  0.0741  1.1159  1.0115
  125OSM   H15B13288   1.134   6.062   6.198 -1.2815 -0.0144 -0.4626
  125OSM   H15C13289   1.108   6.065   6.370 -0.3044  0.7964 -0.7930
  125OSM    C1413290   0.951   5.855   6.392  0.3346  0.2681 -0.7025
  125OSM   H14A13291   0.938   5.751   6.415  1.2505  0.2489 -0.2247
  125OSM   H14B13292   0.859   5.912   6.394 -0.2426 -0.6811  1.5803
  125OSM   H14C13293   0.990   5.895   6.485  0.0999 -0.3974 -0.3119
  125OSM    C1313294   0.963   5.850   6.152  0.6543 -0.2582 -0.2984
  125OSM   H13A13295   0.871   5.904   6.138  0.0223 -0.4932  2.7559
  125OSM   H13B13296   0.939   5.745   6.159 -1.1263  0.2338  1.1006
  125OSM   H13C13297   1.005   5.882   6.057 -2.5795 -0.6492 -1.9384
  125OSM    C1213298   1.170   5.811   6.284  0.4278  0.1116  1.1402
  125OSM   H12A13299   1.210   5.807   6.183  1.4475 -1.6733  1.5973
  125OSM   H12B13300   1.152   5.707   6.306  2.4045 -0.2576  1.0747
  125OSM    C1113301   1.276   5.868   6.378  0.4028  0.2661  0.4678
  125OSM   H11A13302   1.350   5.789   6.404  1.5203  1.3553  0.6560
  125OSM   H11B13303   1.230   5.891   6.476  3.0015 -0.6751  1.9636
  125OSM      P13304   1.459   5.969   6.208  0.3320  0.3170  0.0034
  125OSM    O1313305   1.443   5.854   6.121  0.0545  0.0076 -0.1119
  125OSM    O1413306   1.492   6.095   6.141  0.6926 -0.1161  0.1380
  125OSM    O1113307   1.572   5.933   6.317 -0.2564  0.6397  0.0805
  125OSM    O1213308   1.338   5.985   6.308  0.0789 -0.2185  0.2493
  125OSM    C1S13309   1.622   6.011   6.422  0.0834 -0.2821  0.0751
  125OSM    H1S13310   1.584   6.114   6.403 -0.8431 -0.2248  2.1191
  125OSM    H1T13311   1.731   6.029   6.407 -0.0880  1.1126  0.4093
  125OSM     NF13312   1.665   6.047   6.660 -0.3337 -0.0527  0.7446
  125OSM    HNF13313   1.749   6.011   6.701  1.6597  1.7455 -1.5855
  125OSM    C2S13314   1.605   5.958   6.567 -1.2895  0.1669 -0.3098
  125OSM    H2S13315   1.497   5.950   6.587 -0.8666 -1.2990  1.4878
  125OSM    C3S13316   1.664   5.817   6.583 -0.2098  0.0808  0.4227
  125OSM    H3S13317   1.774   5.825   6.597 -0.2082  4.6210 -1.4344
  125OSM     O313318   1.640   5.724   6.479  0.0760 -0.0647  0.6476
  125OSM    HO313319   1.600   5.774   6.408  1.8321 -0.4126 -0.6178
  125OSM    C4S13320   1.606   5.763   6.713 -0.3148  0.6618 -0.2070
  125OSM    H4S13321   1.662   5.802   6.799 -0.9206  3.7620 -1.1413
  125OSM    C5S13322   1.490   5.701   6.725 -0.8774 -0.1884 -0.5088
  125OSM    H5S13323   1.418   5.685   6.644 -1.2524 -0.3511 -0.1465
  125OSM    C6S13324   1.442   5.643   6.856 -0.0467 -0.2816 -0.3503
  125OSM    H6S13325   1.419   5.537   6.836 -0.1867 -0.5520  1.1512
  125OSM    H6T13326   1.340   5.669   6.891  0.0919  1.8001 -1.4346
  125OSM    C7S13327   1.544   5.646   6.975  0.0564  0.3172  0.2776
  125OSM    H7S13328   1.570   5.753   6.992 -0.7809  0.3400  1.5115
  125OSM    H7T13329   1.635   5.592   6.941 -0.3079 -0.2295  0.1616
  125OSM    C8S13330   1.488   5.583   7.107  0.5605 -0.5580  0.0004
  125OSM    H8S13331   1.421   5.500   7.077  2.1475 -1.9206  0.1749
  125OSM    H8T13332   1.423   5.657   7.159 -2.0213 -0.2666 -3.4859
  125OSM    C9S13333   1.597   5.549   7.209 -1.1132  0.7234  0.5805
  125OSM    H9S13334   1.665   5.637   7.207 -0.5468  0.3389  2.2515
  125OSM    H9T13335   1.660   5.467   7.167 -3.3288 -0.4713 -0.5006
  125OSM   C10S13336   1.567   5.499   7.355 -0.0503 -0.0036  0.0055
  125OSM   H10S13337   1.518   5.399   7.349 -3.1493  1.4599 -0.0884
  125OSM   H10T13338   1.503   5.578   7.401 -3.2533 -3.0495  1.0497
  125OSM   C11S13339   1.681   5.483   7.453  0.0298  0.1168  0.5032
  125OSM   H11S13340   1.747   5.572   7.447 -1.5969  1.2537 -1.0364
  125OSM   H11T13341   1.747   5.403   7.411  1.3925  1.9645 -0.9832
  125OSM   C12S13342   1.636   5.453   7.598 -0.1139  0.2727 -0.2195
  125OSM   H12S13343   1.544   5.390   7.597  1.4078 -2.0905  1.7642
  125OSM   H12T13344   1.601   5.554   7.629  0.6562  0.7178 -0.7963
  125OSM   C13S13345   1.743   5.396   7.699 -0.1104 -0.1342  0.0009
  125OSM   H13S13346   1.835   5.456   7.690  0.2209 -0.2663  2.1387
  125OSM   H13T13347   1.778   5.295   7.668  1.3206  0.2970  0.2046
  125OSM   C14S13348   1.699   5.395   7.842 -0.5949  0.9159  0.2093
  125OSM   H14S13349   1.640   5.486   7.867  1.7236  2.5263  0.0478
  125OSM   H14T13350   1.790   5.396   7.906 -0.9619  0.8250  0.7301
  125OSM   C15S13351   1.621   5.264   7.864 -0.0215  0.4741  0.9625
  125OSM   H15S13352   1.677   5.178   7.821  1.3109  3.1258 -2.9146
  125OSM   H15T13353   1.521   5.271   7.815  0.2109 -1.7265  0.1166
  125OSM   C16S13354   1.604   5.231   8.018 -0.7932  0.0640 -0.2853
  125OSM   H16S13355   1.559   5.313   8.077  0.0124 -0.5779  1.2380
  125OSM   H16T13356   1.700   5.204   8.067 -1.0757 -0.3340  0.0550
  125OSM   C17S13357   1.508   5.109   8.033  0.1263  0.3375  0.3665
  125OSM   H17S13358   1.563   5.017   8.001 -1.5397 -0.8063  0.7194
  125OSM   H17T13359   1.417   5.127   7.972  1.4116  2.0917 -1.0889
  125OSM   C18S13360   1.481   5.088   8.178  0.5517  0.2200 -0.8487
  125OSM   H18S13361   1.403   5.011   8.191  1.0574 -0.1023  0.3068
  125OSM   H18T13362   1.426   5.178   8.213 -1.0309  0.0316 -2.7593
  125OSM   H18U13363   1.572   5.086   8.242  0.8171 -0.3458 -1.2350
  125OSM    C1F13364   1.629   6.176   6.672 -0.1449  0.0929 -0.8014
  125OSM     OF13365   1.511   6.214   6.660  0.1857  0.2060 -0.1773
  125OSM    C2F13366   1.744   6.265   6.697 -0.4818  0.5063 -0.5122
  125OSM    H2F13367   1.785   6.290   6.597  0.3806 -1.8045 -0.7614
  125OSM    H2G13368   1.823   6.214   6.756 -0.3845  0.8330 -0.3606
  125OSM    C3F13369   1.704   6.383   6.795  1.3375  0.4661 -0.4692
  125OSM    H3F13370   1.616   6.436   6.753  0.6693  0.8756  1.3731
  125OSM    H3G13371   1.796   6.443   6.813  1.3130 -0.1034  1.7680
  125OSM    C4F13372   1.660   6.332   6.930 -0.4646 -0.0197 -0.9916
  125OSM    H4F13373   1.739   6.263   6.967 -1.5675 -1.7518 -1.8102
  125OSM    H4G13374   1.560   6.285   6.933 -0.1271 -0.6751  0.7597
  125OSM    C5F13375   1.669   6.449   7.034  0.0630  0.1157  1.1735
  125OSM    H5F13376   1.588   6.522   7.011  2.2785  1.7469 -1.8888
  125OSM    H5G13377   1.763   6.507   7.019  0.2797 -0.2525  1.0714
  125OSM    C6F13378   1.668   6.398   7.175  0.0920  0.4566 -0.4327
  125OSM    H6F13379   1.759   6.336   7.192  0.2665 -0.2683 -3.7117
  125OSM    H6G13380   1.575   6.342   7.196  1.0303 -1.4891 -1.3284
  125OSM    C7F13381   1.667   6.513   7.274  0.1279 -0.0270  0.3512
  125OSM    H7F13382   1.574   6.574   7.266 -0.3201 -0.9253 -1.8468
  125OSM    H7G13383   1.752   6.583   7.257 -0.3453  0.3040 -0.7008
  125OSM    C8F13384   1.687   6.471   7.420  0.2947 -0.5905 -0.0147
  125OSM    H8F13385   1.690   6.559   7.488 -2.7221 -1.7348  1.7125
  125OSM    H8G13386   1.794   6.440   7.427  1.1116  2.6055  3.0333
  125OSM    C9F13387   1.597   6.361   7.480  0.1878  0.1916  0.5736
  125OSM    H9F13388   1.575   6.280   7.408 -0.5979  0.8835  0.0158
  125OSM   C10F13389   1.539   6.367   7.602 -0.2224 -0.1031 -0.2585
  125OSM   H10F13390   1.476   6.281   7.633  0.5441 -0.7368 -0.4392
  125OSM   C11F13391   1.552   6.485   7.701  0.4559  0.6062 -0.3324
  125OSM   H11F13392   1.646   6.543   7.694  1.5264 -0.8526  1.3228
  125OSM   H11G13393   1.541   6.449   7.805 -1.7449 -0.8573 -1.0191
  125OSM   C12F13394   1.432   6.582   7.686  0.6575 -0.5520  0.7085
  125OSM   H12F13395   1.339   6.525   7.708  0.2608  0.2279  1.0685
  125OSM   H12G13396   1.438   6.625   7.584 -2.3297 -2.9752 -0.5832
  125OSM   C13F13397   1.439   6.709   7.781  0.0749  0.2210  0.3167
  125OSM   H13F13398   1.361   6.782   7.750  1.8852  2.9874  2.0400
  125OSM   H13G13399   1.541   6.753   7.783  0.1424  0.3894 -3.3362
  125OSM   C14F13400   1.413   6.677   7.931 -0.2492 -0.8200  0.4798
  125OSM   H14F13401   1.499   6.620   7.973  1.5339  1.1311 -0.4286
  125OSM   H14G13402   1.316   6.624   7.944 -0.8388  0.4351  1.2833
  125OSM   C15F13403   1.394   6.807   8.019  0.3836  0.4419  0.0617
  125OSM   H15F13404   1.317   6.875   7.978 -1.7474 -1.2283  1.2361
  125OSM   H15G13405   1.488   6.866   8.019  0.4179  0.3877  0.0639
  125OSM   C16F13406   1.348   6.765   8.164  0.9791 -0.0845 -0.3503
  125OSM   H16F13407   1.423   6.694   8.205 -1.2877 -1.7874  0.9463
  125OSM   H16G13408   1.248   6.717   8.161  2.1084 -2.6464  1.3241
  125OSM   C17F13409   1.334   6.885   8.251 -0.3821  0.3780 -0.3564
  125OSM   H17F13410   1.261   6.956   8.206  0.7505  3.4195  2.4309
  125OSM   H17G13411   1.431   6.938   8.264 -0.3189  0.3767 -0.8333
  125OSM   C18F13412   1.277   6.854   8.390 -0.4321  0.1236  0.6969
  125OSM   H18F13413   1.355   6.804   8.451 -1.6782 -1.7207  0.8245
  125OSM   H18G13414   1.176   6.809   8.383  0.3278 -1.9735  2.7558
  125OSM   H18H13415   1.254   6.950   8.442 -1.0685  0.5220 -0.3080
  126OSM      N13416   5.372   4.969   6.748 -0.3071 -0.0940  0.2694
  126OSM    C1513417   5.469   4.958   6.869  0.0686  0.2278  0.8819
  126OSM   H15A13418   5.464   5.046   6.932 -2.2491  0.0852  0.9132
  126OSM   H15B13419   5.571   4.941   6.837 -0.3226  2.2124 -1.5932
  126OSM   H15C13420   5.447   4.873   6.932 -1.0598 -0.8413 -0.9142
  126OSM    C1413421   5.353   4.832   6.686 -0.5982 -0.5013  0.4571
  126OSM   H14A13422   5.297   4.845   6.595  0.8628  2.3941 -0.0876
  126OSM   H14B13423   5.302   4.759   6.747 -0.4790 -1.9661 -1.1597
  126OSM   H14C13424   5.451   4.788   6.674  0.4431  1.5529  1.3118
  126OSM    C1313425   5.232   5.016   6.783  0.9895 -0.2696 -0.7889
  126OSM   H13A13426   5.176   4.954   6.852 -1.1617  0.7312 -1.5999
  126OSM   H13B13427   5.170   5.044   6.699 -1.4380  0.7250  1.2831
  126OSM   H13C13428   5.256   5.107   6.835 -0.1643 -0.0029 -0.7221
  126OSM    C1213429   5.436   5.061   6.646  0.0340  0.0232 -0.0124
  126OSM   H12A13430   5.428   5.154   6.699 -0.9374  0.0717 -0.2430
  126OSM   H12B13431   5.369   5.067   6.562  3.0759 -0.9740 -2.5949
  126OSM    C1113432   5.576   5.035   6.592 -0.4345 -0.6737  0.3619
  126OSM   H11A13433   5.571   4.945   6.527 -2.7158 -0.2484 -0.0898
  126OSM   H11B13434   5.647   5.011   6.673  0.5507 -0.4013 -0.4070
  126OSM      P13435   5.677   5.283   6.595 -0.5243  0.1007 -0.0336
  126OSM    O1313436   5.795   5.211   6.650 -0.0913  0.2223 -0.2157
  126OSM    O1413437   5.703   5.388   6.496  0.3405 -0.7079 -0.6320
  126OSM    O1113438   5.586   5.330   6.709  0.1328  0.2383 -0.2371
  126OSM    O1213439   5.604   5.159   6.523 -0.5394 -0.1289  0.1559
  126OSM    C1S13440   5.599   5.459   6.754  0.0136 -0.6312 -0.7655
  126OSM    H1S13441   5.580   5.540   6.681 -0.9543  0.6203  0.8275
  126OSM    H1T13442   5.701   5.485   6.790 -0.5506  1.1756 -0.3970
  126OSM     NF13443   5.581   5.612   6.940 -0.3526 -0.4763 -0.3690
  126OSM    HNF13444   5.658   5.599   7.001 -0.2018  0.1864 -0.4193
  126OSM    C2S13445   5.524   5.489   6.892 -0.4709 -0.0966 -0.2418
  126OSM    H2S13446   5.416   5.507   6.872 -0.5005  0.8524  0.6939
  126OSM    C3S13447   5.537   5.378   7.000  0.2481  0.4518 -1.5022
  126OSM    H3S13448   5.642   5.360   7.030 -0.3237  0.2183  0.4181
  126OSM     O313449   5.483   5.253   6.958 -0.0919 -0.6673  0.5022
  126OSM    HO313450   5.513   5.260   6.867 -1.6827 -2.0451 -0.1548
  126OSM    C4S13451   5.450   5.418   7.121  0.3596  0.8511  0.1382
  126OSM    H4S13452   5.344   5.389   7.129  0.7795 -0.4681  1.1908
  126OSM    C5S13453   5.499   5.476   7.229  0.7682  0.6357  0.6669
  126OSM    H5S13454   5.603   5.512   7.225  1.0401 -0.2404 -0.2819
  126OSM    C6S13455   5.416   5.515   7.348  0.3106 -0.3820 -0.3365
  126OSM    H6S13456   5.329   5.449   7.367 -0.4535  0.9226  0.7569
  126OSM    H6T13457   5.383   5.620   7.333 -0.1006 -0.3789  0.5608
  126OSM    C7S13458   5.495   5.512   7.489 -0.7417 -0.0912  0.2234
  126OSM    H7S13459   5.546   5.413   7.496 -1.4066 -0.4875 -0.4880
  126OSM    H7T13460   5.412   5.515   7.562 -0.0505  0.8881  0.9991
  126OSM    C8S13461   5.584   5.632   7.504 -0.1282 -0.1364 -0.1892
  126OSM    H8S13462   5.520   5.716   7.472  2.0024  1.5275 -0.2310
  126OSM    H8T13463   5.669   5.629   7.432  0.3555 -1.6699  0.4224
  126OSM    C9S13464   5.647   5.650   7.643 -0.3182 -0.5650 -0.0896
  126OSM    H9S13465   5.570   5.659   7.722  0.2310  1.7117  0.2422
  126OSM    H9T13466   5.715   5.738   7.647 -1.2838  0.2300 -0.8903
  126OSM   C10S13467   5.736   5.526   7.688  0.1599 -0.3626  0.3552
  126OSM   H10S13468   5.809   5.504   7.607  1.2683  1.5680  0.7988
  126OSM   H10T13469   5.675   5.433   7.694 -1.2140  0.4586 -0.5682
  126OSM   C11S13470   5.832   5.546   7.812 -0.4141  0.3957 -0.0512
  126OSM   H11S13471   5.904   5.624   7.777 -1.1512  0.7357 -0.8511
  126OSM   H11T13472   5.869   5.443   7.830  0.4775  0.6937 -0.1170
  126OSM   C12S13473   5.763   5.586   7.942  0.0618 -0.6574  0.4197
  126OSM   H12S13474   5.711   5.683   7.926 -0.7139 -1.0212  0.6871
  126OSM   H12T13475   5.844   5.591   8.018  0.0508 -0.1670  0.4005
  126OSM   C13S13476   5.659   5.490   7.994 -0.2258  0.3486 -0.1950
  126OSM   H13S13477   5.701   5.388   8.007 -1.1329  0.2414  2.0370
  126OSM   H13T13478   5.567   5.482   7.933  0.2389  2.2240 -1.1775
  126OSM   C14S13479   5.609   5.544   8.128  0.1260 -0.2044 -0.1097
  126OSM   H14S13480   5.574   5.646   8.103  0.9325  0.4368  1.3051
  126OSM   H14T13481   5.687   5.558   8.206 -1.4795 -0.4915  1.6084
  126OSM   C15S13482   5.495   5.446   8.185 -0.1847 -0.1390  0.1774
  126OSM   H15S13483   5.524   5.340   8.199 -0.6798 -0.5041 -1.3936
  126OSM   H15T13484   5.411   5.451   8.113  1.2167 -2.2290 -1.6607
  126OSM   C16S13485   5.442   5.498   8.321 -0.4149  0.7397  0.6683
  126OSM   H16S13486   5.407   5.601   8.300 -4.0469 -0.2841  1.3783
  126OSM   H16T13487   5.520   5.520   8.396  1.7645 -1.7898 -0.7416
  126OSM   C17S13488   5.326   5.418   8.378  0.1282  0.1794  0.7959
  126OSM   H17S13489   5.224   5.422   8.336  0.1228 -3.2653  0.2939
  126OSM   H17T13490   5.311   5.469   8.475 -0.2177  0.1625  0.7506
  126OSM   C18S13491   5.344   5.270   8.382 -0.8640 -0.0682 -0.1639
  126OSM   H18S13492   5.275   5.231   8.460  1.3325  0.6822  2.2175
  126OSM   H18T13493   5.448   5.244   8.409 -1.0911 -1.0512 -0.2411
  126OSM   H18U13494   5.322   5.229   8.281 -1.2544 -0.4025  0.0540
  126OSM    C1F13495   5.539   5.730   6.900  0.0667  0.0730  0.1949
  126OSM     OF13496   5.457   5.751   6.812  1.0345  0.1913  0.0587
  126OSM    C2F13497   5.605   5.841   6.977 -0.6647  0.8904 -0.5803
  126OSM    H2F13498   5.621   5.929   6.911  0.8772  0.9771 -0.1069
  126OSM    H2G13499   5.704   5.813   7.020 -1.1668 -1.3446 -0.8137
  126OSM    C3F13500   5.501   5.873   7.089 -0.1722 -0.1672 -0.5616
  126OSM    H3F13501   5.504   5.785   7.157  1.6194 -0.3131 -0.7951
  126OSM    H3G13502   5.405   5.903   7.041  0.2083 -0.0343 -1.2586
  126OSM    C4F13503   5.558   5.982   7.184 -0.1971  0.0448 -0.7353
  126OSM    H4F13504   5.587   6.069   7.120 -0.0326  1.5146  1.2685
  126OSM    H4G13505   5.642   5.933   7.238 -0.4764  0.3233 -0.0352
  126OSM    C5F13506   5.464   6.025   7.298  0.2559 -0.0940  0.1797
  126OSM    H5F13507   5.459   5.944   7.374  0.9263  2.2941  2.8449
  126OSM    H5G13508   5.360   6.038   7.261  0.4910 -2.4614 -1.4049
  126OSM    C6F13509   5.497   6.162   7.356  0.0852  0.1428 -0.3174
  126OSM    H6F13510   5.436   6.237   7.302 -0.3047  0.7347  0.9191
  126OSM    H6G13511   5.603   6.186   7.332 -0.9956  1.8574 -3.7053
  126OSM    C7F13512   5.468   6.191   7.502 -0.2526 -0.5862 -0.0445
  126OSM    H7F13513   5.363   6.161   7.522 -0.4423  0.3697  0.4094
  126OSM    H7G13514   5.485   6.298   7.526 -3.7514  0.0504 -0.1406
  126OSM    C8F13515   5.552   6.116   7.611 -0.1670 -0.2130  0.0739
  126OSM    H8F13516   5.531   6.010   7.583 -0.8117 -0.1812  0.4299
  126OSM    H8G13517   5.511   6.130   7.714  1.0306 -2.4550  0.9013
  126OSM    C9F13518   5.706   6.128   7.592  0.3500  0.2460  0.4113
  126OSM    H9F13519   5.745   6.121   7.490  1.4460 -0.7209  0.8896
  126OSM   C10F13520   5.800   6.134   7.685 -0.9478 -0.9561  0.3437
  126OSM   H10F13521   5.905   6.158   7.661 -1.3564  1.7599  1.0218
  126OSM   C11F13522   5.761   6.136   7.828  0.5755  0.1227 -0.2912
  126OSM   H11F13523   5.681   6.211   7.841 -0.1829 -0.7715  0.3133
  126OSM   H11G13524   5.843   6.167   7.896 -0.8848 -0.0040  1.5819
  126OSM   C12F13525   5.730   5.996   7.883 -0.0282  0.2190  0.8084
  126OSM   H12F13526   5.816   5.926   7.884 -0.2811 -0.0830  1.5049
  126OSM   H12G13527   5.653   5.946   7.820  1.7448  1.1254 -2.1828
  126OSM   C13F13528   5.678   5.989   8.028 -0.2868  0.2283  0.0336
  126OSM   H13F13529   5.679   5.878   8.042  0.4320 -0.1739 -2.9743
  126OSM   H13G13530   5.571   6.017   8.044 -0.1228  0.1034  1.4814
  126OSM   C14F13531   5.756   6.064   8.136 -0.5161  0.3979  0.7322
  126OSM   H14F13532   5.705   6.162   8.150 -2.1454 -0.5147  1.2502
  126OSM   H14G13533   5.858   6.088   8.099 -0.7079 -0.3012 -0.2626
  126OSM   C15F13534   5.778   5.994   8.273 -0.7627  0.2693  0.5882
  126OSM   H15F13535   5.687   5.932   8.286  0.6979 -2.3144 -1.0893
  126OSM   H15G13536   5.787   6.064   8.359 -1.2474  0.7755  0.2385
  126OSM   C16F13537   5.905   5.909   8.267 -0.0217  0.5624 -0.2598
  126OSM   H16F13538   5.997   5.971   8.266 -0.9146  1.9177 -0.2143
  126OSM   H16G13539   5.890   5.853   8.173  0.6277  0.7076 -0.4462
  126OSM   C17F13540   5.920   5.805   8.382 -0.5916 -0.2883  0.7109
  126OSM   H17F13541   6.027   5.775   8.377 -0.0937  1.3715  1.2297
  126OSM   H17G13542   5.847   5.721   8.374  0.4592 -1.0342 -1.8607
  126OSM   C18F13543   5.895   5.867   8.521 -0.1809  0.0242 -0.5419
  126OSM   H18F13544   5.977   5.935   8.549 -1.9466  2.1413 -0.4251
  126OSM   H18G13545   5.880   5.783   8.593  0.9981 -0.8050 -1.2401
  126OSM   H18H13546   5.805   5.932   8.525 -0.2516  0.0289 -1.9628
  127OSM      N13547   0.240   3.559   6.129 -0.5394  0.2549 -0.0705
  127OSM    C1513548   0.315   3.692   6.110  1.0818  0.1888 -0.5498
  127OSM   H15A13549   0.247   3.775   6.098  2.3517  1.2856 -0.2240
  127OSM   H15B13550   0.374   3.681   6.021 -0.6942  0.1823 -1.7592
  127OSM   H15C13551   0.373   3.725   6.195 -0.4742 -0.3023  0.7245
  127OSM    C1413552   0.117   3.598   6.205 -0.0078 -0.2077  0.5707
  127OSM   H14A13553   0.154   3.633   6.300 -0.3684 -1.3087  1.1305
  127OSM   H14B13554   0.053   3.513   6.225  2.2001 -1.5107  2.3345
  127OSM   H14C13555   0.054   3.672   6.158  1.0467 -1.5275 -3.0791
  127OSM    C1313556   0.200   3.508   5.990  0.5036  0.2073  0.7195
  127OSM   H13A13557   0.125   3.432   6.002  0.2556  0.3052 -0.2253
  127OSM   H13B13558   0.283   3.471   5.931  2.2017  1.3516  2.2983
  127OSM   H13C13559   0.143   3.582   5.937 -0.7023 -0.8724  0.4944
  127OSM    C1213560   0.331   3.454   6.195 -0.0543 -0.7474 -0.2900
  127OSM   H12A13561   0.421   3.443   6.136  1.3221 -0.1695  1.6449
  127OSM   H12B13562   0.278   3.360   6.201  3.2140 -2.8648 -2.5335
  127OSM    C1113563   0.383   3.487   6.335 -0.4873 -1.3169  0.3319
  127OSM   H11A13564   0.403   3.388   6.380 -1.6700 -0.8704  1.8706
  127OSM   H11B13565   0.296   3.518   6.397 -0.7876 -2.5366  0.5234
  127OSM      P13566   0.637   3.530   6.314  0.0390  0.0973 -0.4478
  127OSM    O1313567   0.651   3.461   6.184  1.0196 -0.4397  0.1165
  127OSM    O1413568   0.729   3.647   6.329  0.8635  0.0672 -1.0307
  127OSM    O1113569   0.649   3.425   6.432  0.2424  0.0438  0.3278
  127OSM    O1213570   0.494   3.579   6.331  0.7712 -0.4448 -0.4110
  127OSM    C1S13571   0.658   3.477   6.566  0.4775  0.6580 -0.8041
  127OSM    H1S13572   0.586   3.559   6.585 -1.1175 -0.8584 -0.1766
  127OSM    H1T13573   0.752   3.533   6.587  1.1076  0.1412 -2.1879
  127OSM     NF13574   0.616   3.449   6.801 -0.1193 -0.3223  0.6646
  127OSM    HNF13575   0.705   3.453   6.845  0.7792 -2.2091 -0.9321
  127OSM    C2S13576   0.619   3.372   6.675  0.0049 -0.3320  0.3823
  127OSM    H2S13577   0.519   3.326   6.659 -1.6303  2.6496  1.5393
  127OSM    C3S13578   0.730   3.261   6.671  0.2664 -0.1451 -0.9227
  127OSM    H3S13579   0.834   3.295   6.692  0.5714 -1.1567 -0.7722
  127OSM     O313580   0.736   3.200   6.548  0.4146  0.4255 -0.7753
  127OSM    HO313581   0.675   3.257   6.499  0.2669  0.8006 -0.1583
  127OSM    C4S13582   0.677   3.163   6.778 -0.9895  0.6986  0.3161
  127OSM    H4S13583   0.706   3.211   6.873 -1.6175  1.9871 -0.1245
  127OSM    C5S13584   0.617   3.041   6.779  0.1194  1.3527  0.1453
  127OSM    H5S13585   0.579   3.005   6.683  0.1918  0.7609  0.3304
  127OSM    C6S13586   0.578   2.963   6.901  0.3306  0.3949  0.5450
  127OSM    H6S13587   0.614   2.861   6.879 -0.4565  0.8223 -2.9263
  127OSM    H6T13588   0.467   2.974   6.901  0.3807  0.9975  1.3997
  127OSM    C7S13589   0.625   2.999   7.052  0.1491 -0.0159 -0.2501
  127OSM    H7S13590   0.611   3.108   7.067  0.6690 -0.2913  2.4104
  127OSM    H7T13591   0.733   2.972   7.055  0.2536  0.5660  2.6287
  127OSM    C8S13592   0.551   2.919   7.160  0.5027  0.7018 -0.1117
  127OSM    H8S13593   0.529   2.821   7.113  0.4313  1.5560 -1.9092
  127OSM    H8T13594   0.459   2.974   7.190  0.1501  0.2535 -0.3656
  127OSM    C9S13595   0.628   2.892   7.298  0.4726 -0.0053 -0.1287
  127OSM    H9S13596   0.672   2.991   7.323 -1.8233  0.7790  0.9915
  127OSM    H9T13597   0.704   2.813   7.284  2.3479  1.3982  1.8074
  127OSM   C10S13598   0.526   2.841   7.410  0.4208  0.5941 -0.1500
  127OSM   H10S13599   0.448   2.780   7.359  1.5011  0.0538 -1.1570
  127OSM   H10T13600   0.476   2.936   7.443  0.3430  1.3226 -2.3016
  127OSM   C11S13601   0.605   2.776   7.527 -0.5117 -0.2511  0.1983
  127OSM   H11S13602   0.684   2.848   7.555 -0.7553  0.1404 -0.1114
  127OSM   H11T13603   0.658   2.693   7.475 -1.1023 -0.3580 -0.2305
  127OSM   C12S13604   0.529   2.720   7.650  0.3548  0.4359 -0.2245
  127OSM   H12S13605   0.497   2.619   7.619 -0.0157 -0.0210  1.6077
  127OSM   H12T13606   0.438   2.779   7.675 -0.3771 -0.4527 -0.8007
  127OSM   C13S13607   0.624   2.704   7.769  0.0696  0.3209 -0.1084
  127OSM   H13S13608   0.564   2.695   7.862  0.9211 -1.0083  0.3367
  127OSM   H13T13609   0.683   2.798   7.768  0.7354 -0.0602  1.5335
  127OSM   C14S13610   0.738   2.594   7.760 -0.4134 -0.4543  0.2034
  127OSM   H14S13611   0.815   2.614   7.838 -0.7119  0.8835  0.1582
  127OSM   H14T13612   0.784   2.585   7.659 -1.9306 -3.6498 -0.2702
  127OSM   C15S13613   0.680   2.454   7.798  0.9603  0.1458 -0.3135
  127OSM   H15S13614   0.577   2.442   7.760  0.9061 -0.4823  0.0325
  127OSM   H15T13615   0.673   2.448   7.909  3.8484  1.1442 -0.0253
  127OSM   C16S13616   0.772   2.332   7.759 -0.0478 -0.5540 -0.5499
  127OSM   H16S13617   0.862   2.333   7.825  0.5574  0.1835 -1.3774
  127OSM   H16T13618   0.812   2.349   7.657 -1.7465 -0.6931 -1.2410
  127OSM   C17S13619   0.697   2.205   7.790 -0.2990 -0.6371  0.0909
  127OSM   H17S13620   0.604   2.232   7.736 -0.6829  0.3276  1.2148
  127OSM   H17T13621   0.673   2.197   7.898  1.4110  0.4531  0.5564
  127OSM   C18S13622   0.762   2.081   7.739  0.2375  0.3057 -0.2111
  127OSM   H18S13623   0.797   2.084   7.633  2.4954  2.0444  0.5352
  127OSM   H18T13624   0.687   1.999   7.746 -1.0053  1.6670  3.5092
  127OSM   H18U13625   0.846   2.053   7.807 -0.0004  0.6539  0.2243
  127OSM    C1F13626   0.516   3.524   6.837 -0.2384 -0.1324 -0.0670
  127OSM     OF13627   0.412   3.503   6.779  0.4895  0.6057  0.1996
  127OSM    C2F13628   0.530   3.622   6.951  0.0131 -0.9275  0.4061
  127OSM    H2F13629   0.550   3.725   6.913  0.7814 -0.7516  1.2545
  127OSM    H2G13630   0.623   3.588   7.002  0.2946 -3.6878 -1.8096
  127OSM    C3F13631   0.415   3.612   7.053 -0.3617  0.8921  0.1806
  127OSM    H3F13632   0.398   3.505   7.079 -2.0793  1.3386  0.9925
  127OSM    H3G13633   0.324   3.657   7.007 -2.1280 -1.9576  0.7380
  127OSM    C4F13634   0.451   3.685   7.189 -0.6247 -0.0855 -0.0965
  127OSM    H4F13635   0.490   3.785   7.162 -0.5520  0.3948  1.7207
  127OSM    H4G13636   0.529   3.627   7.243  0.1581 -0.9669 -2.1204
  127OSM    C5F13637   0.325   3.710   7.268 -0.3141 -0.4357 -0.2294
  127OSM    H5F13638   0.296   3.609   7.302 -0.5713 -0.0928  0.5635
  127OSM    H5G13639   0.253   3.756   7.196  2.4813  1.0182 -2.1957
  127OSM    C6F13640   0.352   3.798   7.391  0.2593  0.5219 -0.1547
  127OSM    H6F13641   0.406   3.889   7.357  1.3515  0.2499  0.8150
  127OSM    H6G13642   0.428   3.738   7.446  0.5490  2.0627  1.1472
  127OSM    C7F13643   0.231   3.826   7.477 -0.4798  0.2004 -0.1801
  127OSM    H7F13644   0.203   3.733   7.531 -1.1630  0.6342  0.2167
  127OSM    H7G13645   0.146   3.849   7.409 -0.1476  1.6946 -0.0977
  127OSM    C8F13646   0.238   3.941   7.578 -0.5263 -0.1833 -0.0234
  127OSM    H8F13647   0.234   4.041   7.529 -0.9205  0.7421  1.8487
  127OSM    H8G13648   0.348   3.938   7.597 -0.3594 -0.7712 -1.0129
  127OSM    C9F13649   0.164   3.923   7.705 -0.3912  0.6372 -0.2370
  127OSM    H9F13650   0.064   3.969   7.707  0.2313  2.0432 -0.8707
  127OSM   C10F13651   0.204   3.860   7.821  0.1786 -0.5539 -1.1166
  127OSM   H10F13652   0.123   3.839   7.893 -0.8711 -0.6809 -2.3128
  127OSM   C11F13653   0.342   3.792   7.835  0.0990 -0.2567  0.3328
  127OSM   H11F13654   0.393   3.777   7.737 -1.0111  0.2194 -0.3275
  127OSM   H11G13655   0.305   3.692   7.866  1.3799 -1.6275 -2.3545
  127OSM   C12F13656   0.435   3.849   7.933  0.6082 -0.5634 -0.4023
  127OSM   H12F13657   0.468   3.946   7.892 -0.0191 -0.4774 -0.7150
  127OSM   H12G13658   0.525   3.784   7.941  1.6180  0.9511  0.6721
  127OSM   C13F13659   0.378   3.851   8.075 -0.3992 -0.2070 -0.0000
  127OSM   H13F13660   0.376   3.745   8.109  0.2524  0.3989  1.9848
  127OSM   H13G13661   0.270   3.877   8.085 -0.4538  0.1959 -1.5199
  127OSM   C14F13662   0.478   3.920   8.175  0.2459  0.0598  0.0217
  127OSM   H14F13663   0.495   4.023   8.138  0.8862 -0.5284 -1.3611
  127OSM   H14G13664   0.577   3.869   8.169 -0.0672 -0.5585  0.0097
  127OSM   C15F13665   0.429   3.940   8.317 -0.1302 -0.2513 -0.0913
  127OSM   H15F13666   0.325   3.978   8.303  0.8820  1.6766 -2.7545
  127OSM   H15G13667   0.489   4.017   8.370  0.3627  0.7233 -2.0326
  127OSM   C16F13668   0.420   3.813   8.401 -0.0938 -0.1444  0.6474
  127OSM   H16F13669   0.424   3.858   8.502 -1.4205  1.1457  0.1577
  127OSM   H16G13670   0.496   3.738   8.372  1.0048  0.8734  0.8762
  127OSM   C17F13671   0.285   3.736   8.392 -0.3833 -0.7453  0.0698
  127OSM   H17F13672   0.277   3.699   8.287  1.3556 -0.1476 -0.2888
  127OSM   H17G13673   0.206   3.813   8.409 -1.0680 -0.7742 -2.6781
  127OSM   C18F13674   0.271   3.619   8.490  0.4673 -0.0518  0.3050
  127OSM   H18F13675   0.176   3.563   8.487  0.6879 -0.4803  1.2471
  127OSM   H18G13676   0.285   3.657   8.593  0.8436 -1.6402  0.8549
  127OSM   H18H13677   0.347   3.538   8.489  1.2820  0.7016  0.2698
  128OSM      N13678   2.617   0.963   5.949 -0.2694  0.1763 -0.3286
  128OSM    C1513679   2.692   0.855   5.874  0.0766  0.5873  0.2055
  128OSM   H15A13680   2.799   0.865   5.869  0.1120 -0.0040 -0.2156
  128OSM   H15B13681   2.672   0.857   5.768 -1.1178 -0.7436  0.3847
  128OSM   H15C13682   2.667   0.760   5.920  0.9727 -1.2076 -2.8487
  128OSM    C1413683   2.666   1.100   5.893  0.2113  0.4529 -0.5201
  128OSM   H14A13684   2.615   1.171   5.958 -1.5322  0.6869 -2.1110
  128OSM   H14B13685   2.634   1.109   5.790 -0.3277  3.5825 -0.1431
  128OSM   H14C13686   2.771   1.119   5.904  0.2955  0.7114 -1.7680
  128OSM    C1313687   2.465   0.951   5.926 -0.1248  0.0883  0.5071
  128OSM   H13A13688   2.442   0.931   5.822 -2.1615 -1.8056  1.3049
  128OSM   H13B13689   2.409   1.036   5.961  0.3334 -0.1109  1.7363
  128OSM   H13C13690   2.422   0.869   5.981  1.5027 -0.3940  1.0923
  128OSM    C1213691   2.654   0.961   6.092 -0.7814 -0.4508 -0.3890
  128OSM   H12A13692   2.629   1.057   6.134 -1.1339 -0.3443 -0.8342
  128OSM   H12B13693   2.759   0.954   6.115 -1.5037 -3.7538  2.3224
  128OSM    C1113694   2.602   0.847   6.180 -0.0168 -0.0598 -0.3547
  128OSM   H11A13695   2.494   0.827   6.163 -0.2827 -0.1471  1.3258
  128OSM   H11B13696   2.618   0.879   6.285 -1.7146  0.5426 -0.2583
  128OSM      P13697   2.818   0.691   6.190 -0.2072 -0.3078 -0.0938
  128OSM    O1313698   2.844   0.548   6.151 -0.3724  0.1014 -0.7819
  128OSM    O1413699   2.917   0.790   6.141 -0.0754 -0.3678 -0.4222
  128OSM    O1113700   2.820   0.709   6.347 -0.4671  0.2736  0.3597
  128OSM    O1213701   2.673   0.723   6.150  0.2661  0.0778 -0.3759
  128OSM    C1S13702   2.729   0.618   6.421  0.2981  0.0389 -0.1201
  128OSM    H1S13703   2.775   0.517   6.417  1.4869  0.5820 -0.5468
  128OSM    H1T13704   2.629   0.610   6.373  0.5327  0.2179 -0.6391
  128OSM     NF13705   2.630   0.576   6.662  0.1319 -0.9865 -0.3610
  128OSM    HNF13706   2.533   0.591   6.678  0.5650  0.0536  1.4253
  128OSM    C2S13707   2.713   0.662   6.575  0.1415 -0.2022 -0.4792
  128OSM    H2S13708   2.819   0.666   6.607  1.3003  0.9916 -4.1069
  128OSM    C3S13709   2.676   0.815   6.585 -0.6476 -0.2921  0.3999
  128OSM    H3S13710   2.577   0.839   6.539 -0.3840  1.0950  0.5281
  128OSM     O313711   2.774   0.908   6.522 -0.1456  0.4184  0.0493
  128OSM    HO313712   2.838   0.851   6.481 -1.0587 -0.7415  0.1933
  128OSM    C4S13713   2.670   0.865   6.730  0.1494  0.5985 -0.3022
  128OSM    H4S13714   2.758   0.849   6.794 -0.1550  1.4900  0.3511
  128OSM    C5S13715   2.561   0.910   6.795 -0.3697 -0.6375  0.2437
  128OSM    H5S13716   2.466   0.913   6.739  1.1342 -2.1057 -2.4974
  128OSM    C6S13717   2.553   0.951   6.941 -0.5274 -0.3611 -0.0087
  128OSM    H6S13718   2.447   0.937   6.974 -0.4680 -2.8732 -0.7855
  128OSM    H6T13719   2.569   1.058   6.968 -1.5082 -0.1275 -0.3182
  128OSM    C7S13720   2.631   0.861   7.032  0.2435 -0.9370 -0.5770
  128OSM    H7S13721   2.741   0.879   7.027  0.1811 -0.6170 -0.8521
  128OSM    H7T13722   2.607   0.753   7.022 -0.8175 -0.7008 -0.6379
  128OSM    C8S13723   2.593   0.887   7.177  0.8784  0.5510 -0.1869
  128OSM    H8S13724   2.490   0.849   7.194  2.1348 -2.5650  0.8002
  128OSM    H8T13725   2.589   0.997   7.193  0.5966  0.3477  1.2061
  128OSM    C9S13726   2.700   0.838   7.279 -0.1287  0.1310 -0.1529
  128OSM    H9S13727   2.790   0.903   7.276  0.2912 -0.5100 -2.5582
  128OSM    H9T13728   2.726   0.730   7.266 -1.8287 -0.1984 -0.8869
  128OSM   C10S13729   2.649   0.855   7.423  0.9136  0.2953  0.4085
  128OSM   H10S13730   2.552   0.803   7.440  0.6085  0.9293  0.5921
  128OSM   H10T13731   2.631   0.962   7.446  0.5659  0.2092  0.5320
  128OSM   C11S13732   2.730   0.789   7.539  0.5276  0.2003 -0.4385
  128OSM   H11S13733   2.811   0.855   7.576  0.0033  0.0578  0.9932
  128OSM   H11T13734   2.771   0.693   7.501 -0.6991 -0.5665  0.1576
  128OSM   C12S13735   2.643   0.756   7.664  0.1409 -0.1950  0.3201
  128OSM   H12S13736   2.567   0.681   7.634 -1.1627  2.0337 -2.1366
  128OSM   H12T13737   2.592   0.844   7.709 -1.3741  0.5433 -2.7690
  128OSM   C13S13738   2.717   0.690   7.785  1.0129 -0.5647  0.2807
  128OSM   H13S13739   2.813   0.745   7.796  0.6906 -0.2544  1.6692
  128OSM   H13T13740   2.748   0.585   7.767  0.9550 -0.4709 -0.3648
  128OSM   C14S13741   2.638   0.698   7.919 -0.0177 -0.7730  0.0979
  128OSM   H14S13742   2.545   0.636   7.922 -0.3176 -0.3346 -0.1421
  128OSM   H14T13743   2.608   0.804   7.928 -0.0594 -0.7827  0.0751
  128OSM   C15S13744   2.723   0.658   8.045  0.2418  0.3023  0.2815
  128OSM   H15S13745   2.822   0.709   8.040  0.8218 -0.9314 -1.5147
  128OSM   H15T13746   2.738   0.552   8.014 -3.4026 -0.1344 -0.1983
  128OSM   C16S13747   2.652   0.676   8.177 -0.1012  0.4247  0.2074
  128OSM   H16S13748   2.557   0.623   8.156  0.9624 -0.9725 -1.2208
  128OSM   H16T13749   2.624   0.781   8.200 -1.6903  0.1604 -0.4445
  128OSM   C17S13750   2.731   0.613   8.296 -0.2888 -0.3247  0.7302
  128OSM   H17S13751   2.823   0.674   8.299  0.7594 -1.8085 -0.5584
  128OSM   H17T13752   2.745   0.503   8.283 -0.5984  0.0520 -3.4854
  128OSM   C18S13753   2.657   0.631   8.427 -0.7056  0.0208  0.7354
  128OSM   H18S13754   2.720   0.586   8.507 -0.4841 -1.4829 -0.2634
  128OSM   H18T13755   2.558   0.581   8.434 -1.0658  1.0509  3.6710
  128OSM   H18U13756   2.650   0.738   8.455  1.2579  0.3619 -0.0016
  128OSM    C1F13757   2.670   0.455   6.680  0.2715 -0.1059  0.3636
  128OSM     OF13758   2.786   0.424   6.656 -0.1746 -0.1842  0.3121
  128OSM    C2F13759   2.567   0.343   6.718  1.3564 -0.8304 -0.7480
  128OSM    H2F13760   2.518   0.310   6.625  0.6156 -0.7080 -0.4010
  128OSM    H2G13761   2.486   0.394   6.775  0.7301 -1.5209 -1.0222
  128OSM    C3F13762   2.626   0.230   6.804  0.8970 -0.0782 -0.7769
  128OSM    H3F13763   2.636   0.272   6.906  1.7076 -1.3196 -0.3344
  128OSM    H3G13764   2.728   0.195   6.778  0.3285 -1.0797 -1.6686
  128OSM    C4F13765   2.530   0.113   6.819  0.5232  0.0857  0.0033
  128OSM    H4F13766   2.495   0.056   6.729  0.4119 -0.3208  0.3024
  128OSM    H4G13767   2.440   0.159   6.865  1.5775  2.0916  0.1109
  128OSM    C5F13768   2.583   0.009   6.918  0.0249 -0.4471 -0.5773
  128OSM    H5F13769   2.687  -0.012   6.884  0.7006  1.2271  0.3771
  128OSM    H5G13770   2.519  -0.081   6.916  1.1640 -1.2526 -2.3909
  128OSM    C6F13771   2.588   0.050   7.065 -0.1396 -0.2833 -0.2262
  128OSM    H6F13772   2.485   0.084   7.090  0.5271  1.8831 -0.2963
  128OSM    H6G13773   2.664   0.127   7.091 -0.7834  0.4187 -0.4239
  128OSM    C7F13774   2.624  -0.081   7.138 -0.3870  0.2946  0.3450
  128OSM    H7F13775   2.707  -0.134   7.086  0.7528  0.4639  1.9705
  128OSM    H7G13776   2.544  -0.158   7.129 -1.5290  1.6688 -1.5840
  128OSM    C8F13777   2.656  -0.049   7.289 -0.4617  0.6153  0.3470
  128OSM    H8F13778   2.742   0.020   7.303 -0.1147  0.7835 -2.3620
  128OSM    H8G13779   2.717  -0.137   7.319  1.7219  1.6033 -1.0954
  128OSM    C9F13780   2.530  -0.023   7.375  0.0143 -1.1131 -0.7167
  128OSM    H9F13781   2.442   0.025   7.329  0.3212 -0.3933 -0.5573
  128OSM   C10F13782   2.505  -0.080   7.493 -0.4309 -0.0020 -0.0698
  128OSM   H10F13783   2.404  -0.070   7.537 -0.8133 -1.7940 -0.5146
  128OSM   C11F13784   2.603  -0.170   7.572 -0.4364 -0.1600 -0.0651
  128OSM   H11F13785   2.695  -0.109   7.584 -0.5167 -0.3954  1.8033
  128OSM   H11G13786   2.618  -0.273   7.533 -1.5708 -2.0303  4.2459
  128OSM   C12F13787   2.540  -0.190   7.705  0.4259  0.5661  0.0898
  128OSM   H12F13788   2.436  -0.227   7.697  0.9673 -0.6998 -1.3016
  128OSM   H12G13789   2.533  -0.101   7.770 -0.7660 -0.8972  1.9969
  128OSM   C13F13790   2.612  -0.305   7.782  0.2563  0.0201  0.4545
  128OSM   H13F13791   2.718  -0.272   7.782  0.1154  0.5156  2.1303
  128OSM   H13G13792   2.611  -0.410   7.744  1.0423  0.1753  0.0029
  128OSM   C14F13793   2.552  -0.326   7.925  0.0922  0.0259  0.2789
  128OSM   H14F13794   2.607  -0.411   7.972  1.9011 -0.0765 -1.9140
  128OSM   H14G13795   2.444  -0.350   7.916  0.0292 -1.2655  3.7762
  128OSM   C15F13796   2.571  -0.207   8.022  0.2711  0.7437 -0.2095
  128OSM   H15F13797   2.512  -0.121   7.984  0.1131  0.2153 -1.2046
  128OSM   H15G13798   2.675  -0.171   8.033 -0.2497  1.5238  2.3162
  128OSM   C16F13799   2.521  -0.226   8.167  0.1407  0.8948  0.2969
  128OSM   H16F13800   2.563  -0.152   8.238 -0.9828  1.2946  0.5662
  128OSM   H16G13801   2.543  -0.328   8.205 -1.7410  1.8744  4.3095
  128OSM   C17F13802   2.371  -0.207   8.188  0.2135 -0.3706  0.4556
  128OSM   H17F13803   2.320  -0.295   8.144  0.7855 -0.0167 -0.9760
  128OSM   H17G13804   2.334  -0.124   8.125  0.0159 -0.2989  0.6654
  128OSM   C18F13805   2.330  -0.193   8.333  0.1941 -0.1148  0.5475
  128OSM   H18F13806   2.364  -0.285   8.385  0.4201  0.5971  1.6740
  128OSM   H18G13807   2.220  -0.193   8.346  0.1979  0.1126  0.5844
  128OSM   H18H13808   2.385  -0.107   8.376  0.3821  0.3897 -0.6718
  129OSM      N13809   0.576   2.982   6.171 -0.2718  0.6093  0.0347
  129OSM    C1513810   0.578   2.853   6.243  0.6214  0.6201 -0.1167
  129OSM   H15A13811   0.647   2.840   6.325 -0.0172 -2.1865  0.0632
  129OSM   H15B13812   0.600   2.767   6.181 -0.0476 -0.1403  0.6713
  129OSM   H15C13813   0.480   2.831   6.283  1.1352 -0.6498  0.4740
  129OSM    C1413814   0.698   3.002   6.084 -0.0073  0.2239  0.4038
  129OSM   H14A13815   0.791   3.018   6.136 -0.0547 -0.2132  0.6263
  129OSM   H14B13816   0.690   3.081   6.010  0.5064  0.9772  1.1528
  129OSM   H14C13817   0.719   2.915   6.023 -0.6933  0.2814  0.0817
  129OSM    C1313818   0.453   2.989   6.081 -0.4494  0.1624 -0.2694
  129OSM   H13A13819   0.436   3.092   6.054 -0.3328  0.3786  0.4683
  129OSM   H13B13820   0.365   2.957   6.134 -0.4884  0.1666 -0.3309
  129OSM   H13C13821   0.465   2.926   5.994  0.3620 -0.3881  0.2371
  129OSM    C1213822   0.566   3.099   6.273  0.3551  0.4159 -0.3456
  129OSM   H12A13823   0.564   3.190   6.215 -0.1209  1.7258  1.6772
  129OSM   H12B13824   0.657   3.094   6.330 -0.4907  2.1897  1.2018
  129OSM    C1113825   0.433   3.101   6.364  0.3496 -0.2524 -0.2890
  129OSM   H11A13826   0.461   3.176   6.441  0.1916 -2.0336  1.5383
  129OSM   H11B13827   0.424   3.006   6.420  0.9624 -0.8571 -1.2033
  129OSM      P13828   0.164   3.071   6.316 -0.3087 -0.0183 -0.0891
  129OSM    O1313829   0.071   3.147   6.236  0.2015  0.0691  0.5733
  129OSM    O1413830   0.171   2.924   6.292 -0.3925  0.2432  0.1113
  129OSM    O1113831   0.135   3.105   6.472 -0.1146 -0.2135  0.1036
  129OSM    O1213832   0.309   3.136   6.294 -0.2577 -0.3805  0.1116
  129OSM    C1S13833   0.147   3.247   6.512 -0.2352 -0.3234  0.1633
  129OSM    H1S13834   0.066   3.304   6.462 -1.1100 -1.3157  0.4177
  129OSM    H1T13835   0.246   3.292   6.487 -0.1789  1.1718  2.8763
  129OSM     NF13836   0.169   3.418   6.692  0.2119 -0.1382 -0.0368
  129OSM    HNF13837   0.257   3.437   6.735 -0.1396  1.4179  0.0112
  129OSM    C2S13838   0.141   3.272   6.661  1.1675  0.5100 -0.1617
  129OSM    H2S13839   0.043   3.236   6.698  1.5692  0.0944  0.5043
  129OSM    C3S13840   0.237   3.170   6.744 -0.2540  0.2819  0.0519
  129OSM    H3S13841   0.337   3.209   6.716 -0.1196 -0.3229 -0.3162
  129OSM     O313842   0.236   3.037   6.706 -0.1632  0.6920  0.3018
  129OSM    HO313843   0.195   3.042   6.620 -1.5513 -0.2141  0.8963
  129OSM    C4S13844   0.232   3.177   6.892  0.2378  0.2077 -1.1564
  129OSM    H4S13845   0.318   3.236   6.925 -0.3235  0.3551  0.0766
  129OSM    C5S13846   0.168   3.110   6.990 -0.3784 -0.0942  0.1627
  129OSM    H5S13847   0.095   3.034   6.960 -1.0696  0.0612  1.4052
  129OSM    C6S13848   0.185   3.136   7.144  0.1947 -0.2586 -0.3896
  129OSM    H6S13849   0.193   3.038   7.194 -0.4948  0.7432  1.7417
  129OSM    H6T13850   0.089   3.169   7.189  1.0355 -1.0152  2.0564
  129OSM    C7S13851   0.305   3.212   7.193 -0.1964 -0.2169  0.2602
  129OSM    H7S13852   0.311   3.309   7.139 -1.0907 -0.9906 -1.2607
  129OSM    H7T13853   0.390   3.154   7.152  0.2124  0.4621  0.1388
  129OSM    C8S13854   0.321   3.217   7.346  0.4453  0.7852  0.6673
  129OSM    H8S13855   0.315   3.114   7.386 -1.9826 -0.4374 -2.6452
  129OSM    H8T13856   0.228   3.269   7.379 -0.2661  1.6662 -2.5568
  129OSM    C9S13857   0.441   3.291   7.389  0.0017  0.1430 -0.3838
  129OSM    H9S13858   0.460   3.367   7.310 -1.7719 -1.0981 -2.0414
  129OSM    H9T13859   0.533   3.229   7.393  0.7539  1.2136 -0.8358
  129OSM   C10S13860   0.410   3.376   7.507  0.0241 -0.1312  0.7555
  129OSM   H10S13861   0.316   3.431   7.487 -0.1674 -1.1875 -1.4615
  129OSM   H10T13862   0.482   3.460   7.511 -0.3521  0.3308 -1.3675
  129OSM   C11S13863   0.388   3.310   7.646  0.4240  0.5692 -0.4780
  129OSM   H11S13864   0.473   3.243   7.671  1.2288  1.3186 -1.1478
  129OSM   H11T13865   0.302   3.240   7.643  1.9857 -1.5652  2.3587
  129OSM   C12S13866   0.350   3.410   7.760 -0.3204  0.9789 -0.1660
  129OSM   H12S13867   0.264   3.476   7.735 -1.0506  0.5602  1.1615
  129OSM   H12T13868   0.437   3.469   7.795  1.6752 -2.7322  1.4676
  129OSM   C13S13869   0.298   3.328   7.882  0.2123  0.4437  0.9757
  129OSM   H13S13870   0.383   3.278   7.933  1.7818  2.1310  0.0901
  129OSM   H13T13871   0.222   3.257   7.845  2.0165 -0.8656 -0.3219
  129OSM   C14S13872   0.234   3.419   7.982  0.2809 -0.1524 -0.1881
  129OSM   H14S13873   0.136   3.453   7.943 -0.9504 -3.2999  0.0610
  129OSM   H14T13874   0.298   3.510   7.989  0.2118 -0.0905 -0.3611
  129OSM   C15S13875   0.218   3.354   8.120 -0.1004  0.8442  0.2811
  129OSM   H15S13876   0.315   3.313   8.156 -0.1288 -0.4894 -1.0883
  129OSM   H15T13877   0.156   3.266   8.093  2.5036 -0.2985 -2.3595
  129OSM   C16S13878   0.142   3.437   8.217  0.6731  0.6414  0.5487
  129OSM   H16S13879   0.188   3.536   8.240 -0.0365  0.6880  1.8201
  129OSM   H16T13880   0.147   3.383   8.314  1.3959 -2.4438 -1.1501
  129OSM   C17S13881  -0.019   3.444   8.197 -0.1020 -0.2238 -0.0364
  129OSM   H17S13882  -0.059   3.352   8.149  1.5262  0.4458 -2.8298
  129OSM   H17T13883  -0.050   3.526   8.128  0.6408  0.1539  0.0650
  129OSM   C18S13884  -0.100   3.456   8.328 -0.4923  0.0008 -0.2458
  129OSM   H18S13885  -0.207   3.438   8.304 -0.2479  0.9026 -2.1228
  129OSM   H18T13886  -0.084   3.554   8.379 -1.8203 -0.1135  0.4265
  129OSM   H18U13887  -0.073   3.375   8.399 -0.1644 -0.5097 -0.9506
  129OSM    C1F13888   0.092   3.519   6.650 -0.6259  0.1182  0.0645
  129OSM     OF13889  -0.017   3.499   6.599 -0.1033 -0.4457  0.0756
  129OSM    C2F13890   0.158   3.649   6.664 -0.2156 -0.2973 -0.0879
  129OSM    H2F13891   0.200   3.664   6.562  2.1712  1.3256  1.1070
  129OSM    H2G13892   0.232   3.643   6.746  0.0782 -1.9897 -0.4658
  129OSM    C3F13893   0.059   3.767   6.696 -0.3116  0.1327  0.0290
  129OSM    H3F13894   0.009   3.753   6.795 -1.0309  2.5682  0.0339
  129OSM    H3G13895  -0.024   3.785   6.624 -0.9724 -1.2204  0.4403
  129OSM    C4F13896   0.138   3.898   6.706  0.7156  0.2946 -0.5768
  129OSM    H4F13897   0.069   3.982   6.728  3.2936  1.8638  1.8440
  129OSM    H4G13898   0.179   3.921   6.605 -1.3452 -1.3588 -1.8159
  129OSM    C5F13899   0.256   3.901   6.810  0.3546  0.4467 -0.5618
  129OSM    H5F13900   0.337   3.828   6.792  0.5692  0.7864 -0.9714
  129OSM    H5G13901   0.211   3.893   6.911 -0.7875 -1.1577 -1.1671
  129OSM    C6F13902   0.330   4.042   6.814 -0.4584  0.1381  0.3565
  129OSM    H6F13903   0.262   4.130   6.815  2.0817  2.2352 -2.3628
  129OSM    H6G13904   0.377   4.042   6.714 -0.9043 -0.5003  0.1388
  129OSM    C7F13905   0.437   4.066   6.919  0.2560 -0.3219 -0.1445
  129OSM    H7F13906   0.508   4.148   6.894  1.2075 -0.9748  0.3913
  129OSM    H7G13907   0.497   3.972   6.927  0.6561 -0.1976 -1.5348
  129OSM    C8F13908   0.376   4.094   7.053  0.2515  0.1746 -0.5575
  129OSM    H8F13909   0.464   4.111   7.118  0.8867 -2.2136 -0.7456
  129OSM    H8G13910   0.316   4.012   7.098  1.2255 -0.4591 -0.3982
  129OSM    C9F13911   0.291   4.220   7.049 -0.1232 -0.3899 -0.0627
  129OSM    H9F13912   0.191   4.204   7.006  0.7931 -2.4663 -1.4891
  129OSM   C10F13913   0.323   4.343   7.096 -0.1510  0.1916 -0.1111
  129OSM   H10F13914   0.247   4.422   7.093 -0.1886  0.2090  1.0580
  129OSM   C11F13915   0.453   4.380   7.164 -0.5641  0.1104  0.3343
  129OSM   H11F13916   0.486   4.485   7.148 -1.9399  0.4342 -0.4613
  129OSM   H11G13917   0.538   4.322   7.122 -0.6854  1.0576 -1.2802
  129OSM   C12F13918   0.453   4.348   7.320  0.1269  0.5135  0.2315
  129OSM   H12F13919   0.457   4.239   7.343  0.8799  0.4772 -0.0343
  129OSM   H12G13920   0.359   4.396   7.353 -0.1545 -1.1810  2.0021
  129OSM   C13F13921   0.581   4.400   7.397 -0.4532 -0.1596 -0.1785
  129OSM   H13F13922   0.662   4.420   7.325 -0.5939  1.9061  0.2063
  129OSM   H13G13923   0.630   4.320   7.456  2.6817  1.4272 -0.5237
  129OSM   C14F13924   0.577   4.523   7.492  0.0058  0.5252  0.2021
  129OSM   H14F13925   0.532   4.605   7.433 -2.0431  0.1561  1.2185
  129OSM   H14G13926   0.681   4.541   7.528 -0.3280  1.5250  0.6846
  129OSM   C15F13927   0.494   4.492   7.616 -0.2782  0.1633  0.0278
  129OSM   H15F13928   0.407   4.435   7.577  0.4295 -2.2010  1.8387
  129OSM   H15G13929   0.455   4.585   7.663  2.2236  1.6026 -0.6868
  129OSM   C16F13930   0.573   4.404   7.720  0.0331  0.1265  0.2448
  129OSM   H16F13931   0.645   4.462   7.780  2.1543 -3.6265  1.4855
  129OSM   H16G13932   0.639   4.327   7.676  2.1383  1.7376  0.5135
  129OSM   C17F13933   0.474   4.338   7.824  0.1417 -0.3031  0.8118
  129OSM   H17F13934   0.423   4.252   7.775  2.0283 -0.2397 -1.3486
  129OSM   H17G13935   0.401   4.419   7.842  0.6188  0.0598  1.1137
  129OSM   C18F13936   0.537   4.308   7.966  0.7140  0.0598 -0.2341
  129OSM   H18F13937   0.460   4.247   8.017  2.6224 -3.7020 -1.6321
  129OSM   H18G13938   0.552   4.398   8.029  2.2431  0.0804 -0.5962
  129OSM   H18H13939   0.632   4.252   7.981  1.8088  1.8868 -0.2876
  130OSM      N13940   3.077   5.969   6.019  0.4585  0.0324  0.2333
  130OSM    C1513941   3.180   5.856   6.011  0.1804 -0.2229 -0.1868
  130OSM   H15A13942   3.194   5.815   6.110 -1.4553 -0.9655 -0.2454
  130OSM   H15B13943   3.276   5.886   5.973 -0.3419 -1.8246 -2.8470
  130OSM   H15C13944   3.146   5.778   5.945  0.4949 -1.1470  0.7298
  130OSM    C1413945   3.065   6.025   5.873  0.4494  0.1313 -0.3248
  130OSM   H14A13946   3.053   5.943   5.803 -2.7098  0.2098  0.0271
  130OSM   H14B13947   3.152   6.086   5.854  1.5605 -1.2138  0.3991
  130OSM   H14C13948   2.979   6.090   5.870  0.5431  0.2646 -0.0522
  130OSM    C1313949   2.940   5.906   6.062 -0.0416  0.1203 -0.2488
  130OSM   H13A13950   2.917   5.833   5.986  1.2462  1.5568 -2.0919
  130OSM   H13B13951   2.865   5.983   6.053  0.7004  0.9477  0.4992
  130OSM   H13C13952   2.940   5.883   6.167  0.7523  2.1034  0.2222
  130OSM    C1213953   3.115   6.072   6.116  0.3554  0.1739  0.1019
  130OSM   H12A13954   3.207   6.117   6.083  0.6908 -0.8978 -0.4417
  130OSM   H12B13955   3.147   6.023   6.207 -0.0877  1.1692  0.8059
  130OSM    C1113956   3.027   6.196   6.161  0.6829  0.0642  0.1628
  130OSM   H11A13957   3.059   6.232   6.261  1.5492 -0.0980 -0.0484
  130OSM   H11B13958   2.922   6.175   6.189  0.9684 -0.8111  0.5761
  130OSM      P13959   3.157   6.394   6.046 -0.1226  0.4538 -0.0492
  130OSM    O1313960   3.275   6.325   5.991 -0.4921  0.6370 -0.2258
  130OSM    O1413961   3.109   6.515   5.976 -0.3891  0.5159 -0.6845
  130OSM    O1113962   3.188   6.432   6.195  0.1847 -0.0213 -0.2543
  130OSM    O1213963   3.032   6.298   6.056 -0.0975  0.0681 -0.0996
  130OSM    C1S13964   3.101   6.504   6.272 -0.3447 -0.3135 -0.0379
  130OSM    H1S13965   2.995   6.478   6.253 -1.1378  2.0539  0.9810
  130OSM    H1T13966   3.095   6.613   6.251  1.1732  0.5533  3.5524
  130OSM     NF13967   3.021   6.555   6.506 -0.3528 -0.3751 -0.2201
  130OSM    HNF13968   3.041   6.650   6.530 -0.4433 -0.1108 -1.1603
  130OSM    C2S13969   3.131   6.495   6.429 -0.1034  0.0228 -0.1207
  130OSM    H2S13970   3.131   6.387   6.453 -0.7878  0.1697  0.5687
  130OSM    C3S13971   3.260   6.566   6.454  0.0122  0.4291  0.2947
  130OSM    H3S13972   3.256   6.673   6.426 -0.9213  0.6780  1.3383
  130OSM     O313973   3.364   6.535   6.362 -0.1577  0.0159  0.0470
  130OSM    HO313974   3.326   6.474   6.299  0.8588  0.1128 -0.6869
  130OSM    C4S13975   3.296   6.542   6.599  0.4260  0.6512 -0.0660
  130OSM    H4S13976   3.287   6.637   6.654  1.8880 -0.2311  1.7509
  130OSM    C5S13977   3.337   6.428   6.658  0.9714  0.6315 -0.2826
  130OSM    H5S13978   3.355   6.334   6.604  4.2891  1.2570 -0.3294
  130OSM    C6S13979   3.363   6.423   6.800 -0.4814 -0.0083 -0.6244
  130OSM    H6S13980   3.472   6.400   6.802 -0.5444 -0.2794 -0.0202
  130OSM    H6T13981   3.319   6.328   6.838 -1.1319 -0.5587 -2.7325
  130OSM    C7S13982   3.339   6.548   6.891  0.0522 -0.3139 -0.2941
  130OSM    H7S13983   3.231   6.573   6.901 -0.7098 -2.4911 -2.5437
  130OSM    H7T13984   3.379   6.634   6.833 -1.1711  1.7905  1.8916
  130OSM    C8S13985   3.425   6.542   7.018 -0.4173 -0.4206  0.0827
  130OSM    H8S13986   3.447   6.646   7.051  0.5840 -0.8871  0.9012
  130OSM    H8T13987   3.524   6.502   6.988 -0.3922 -0.0346 -0.3570
  130OSM    C9S13988   3.357   6.474   7.136  0.2336  0.5568  0.0337
  130OSM    H9S13989   3.374   6.367   7.110  0.0867  0.1031  1.7204
  130OSM    H9T13990   3.247   6.487   7.139  0.0392 -0.3400 -2.3036
  130OSM   C10S13991   3.436   6.500   7.264 -0.2113 -0.2498 -0.4765
  130OSM   H10S13992   3.456   6.610   7.262 -1.6239  0.1037  2.3555
  130OSM   H10T13993   3.529   6.441   7.266 -0.8991 -1.3838 -1.5118
  130OSM   C11S13994   3.337   6.468   7.379  0.1837  0.2200 -0.0641
  130OSM   H11S13995   3.302   6.362   7.375  0.3798  0.0285  2.1749
  130OSM   H11T13996   3.251   6.536   7.392  0.7996  1.0529 -0.3338
  130OSM   C12S13997   3.401   6.477   7.513  0.0139  0.1235  0.4277
  130OSM   H12S13998   3.443   6.578   7.530  1.1269 -0.0576 -1.1035
  130OSM   H12T13999   3.482   6.401   7.521 -1.5796 -1.6733 -0.2949
  130OSM   C13S14000   3.302   6.458   7.626  0.7788 -0.5968 -0.8608
  130OSM   H13S14001   3.242   6.367   7.609  0.5539 -1.0309  1.9801
  130OSM   H13T14002   3.227   6.537   7.646  2.0637 -0.1280  2.6066
  130OSM   C14S14003   3.364   6.460   7.759 -0.0895 -0.4306  1.0294
  130OSM   H14S14004   3.456   6.522   7.763 -0.4340  0.0231  1.8889
  130OSM   H14T14005   3.399   6.357   7.784 -0.6099 -1.1456 -1.0559
  130OSM   C15S14006   3.275   6.497   7.876  0.2282  0.6353 -0.2260
  130OSM   H15S14007   3.206   6.411   7.869  1.1723 -0.5452  3.7865
  130OSM   H15T14008   3.223   6.594   7.862 -2.5457 -1.0920 -2.3343
  130OSM   C16S14009   3.350   6.498   8.011  0.4165 -0.3178  0.4327
  130OSM   H16S14010   3.273   6.481   8.089 -0.6809  0.2288 -0.5002
  130OSM   H16T14011   3.382   6.604   8.022 -0.2218  0.0288 -0.9051
  130OSM   C17S14012   3.470   6.407   8.024  1.2018  0.5099 -0.2893
  130OSM   H17S14013   3.541   6.428   7.942 -0.8492  1.1160 -1.9680
  130OSM   H17T14014   3.425   6.306   8.010  0.6013  0.5173  1.5296
  130OSM   C18S14015   3.544   6.414   8.155  0.3821 -0.4446 -0.5059
  130OSM   H18S14016   3.471   6.415   8.239 -0.6441 -1.7380 -1.3655
  130OSM   H18T14017   3.598   6.511   8.147  1.2983 -0.9846 -0.9677
  130OSM   H18U14018   3.606   6.322   8.160 -1.8512 -1.9727  0.2840
  130OSM    C1F14019   2.901   6.507   6.526 -0.4659 -0.4037  0.0156
  130OSM     OF14020   2.872   6.399   6.484 -0.1603  0.0979 -0.3172
  130OSM    C2F14021   2.806   6.591   6.602 -0.4558 -0.0177 -0.2057
  130OSM    H2F14022   2.834   6.698   6.588 -0.6169 -0.1020 -1.2455
  130OSM    H2G14023   2.831   6.581   6.709 -2.0066 -0.9063  0.0835
  130OSM    C3F14024   2.653   6.575   6.569 -0.2156  0.2773 -0.6505
  130OSM    H3F14025   2.626   6.574   6.461 -2.3964 -1.6767 -0.1129
  130OSM    H3G14026   2.611   6.666   6.616  0.5763  0.2669  0.1082
  130OSM    C4F14027   2.594   6.452   6.639  0.2426 -0.2411 -0.4175
  130OSM    H4F14028   2.643   6.354   6.615 -1.3375 -0.4279 -3.1010
  130OSM    H4G14029   2.496   6.435   6.590 -0.3012  1.1435  0.1989
  130OSM    C5F14030   2.586   6.455   6.793 -0.2327 -0.2784  0.2787
  130OSM    H5F14031   2.510   6.534   6.814 -1.4360 -1.4237  0.2868
  130OSM    H5G14032   2.685   6.486   6.833  0.1312 -0.8450 -0.1932
  130OSM    C6F14033   2.532   6.324   6.849 -0.8808 -0.0958 -0.8185
  130OSM    H6F14034   2.620   6.256   6.855 -1.7563 -1.2214 -0.5771
  130OSM    H6G14035   2.468   6.264   6.781 -0.1247 -2.6305  0.6647
  130OSM    C7F14036   2.462   6.330   6.988  0.0483  0.0224 -0.6027
  130OSM    H7F14037   2.385   6.409   6.998  2.4218  2.0046  3.0897
  130OSM    H7G14038   2.538   6.340   7.069  0.1333  0.3273 -0.7195
  130OSM    C8F14039   2.388   6.205   7.039  0.3756  0.1449 -0.0983
  130OSM    H8F14040   2.323   6.173   6.955  1.2461 -4.3638  0.8415
  130OSM    H8G14041   2.315   6.233   7.118  1.6963 -0.6912  1.4261
  130OSM    C9F14042   2.496   6.108   7.088  0.0268 -0.5329  0.1546
  130OSM    H9F14043   2.547   6.044   7.015  0.5000 -1.1731  1.0436
  130OSM   C10F14044   2.523   6.083   7.216  0.4627 -0.6950 -0.2716
  130OSM   H10F14045   2.593   5.999   7.222 -2.9446 -3.8644 -2.2275
  130OSM   C11F14046   2.460   6.140   7.342 -0.0866 -0.1769  0.4480
  130OSM   H11F14047   2.351   6.120   7.341  0.0994 -1.3002 -0.6595
  130OSM   H11G14048   2.467   6.251   7.339  1.9124 -0.3024 -0.7855
  130OSM   C12F14049   2.510   6.078   7.476 -0.4178  0.3575  0.8132
  130OSM   H12F14050   2.617   6.104   7.490  0.2640 -1.3971 -0.8448
  130OSM   H12G14051   2.508   5.967   7.469 -4.0746  0.4156 -0.5448
  130OSM   C13F14052   2.413   6.127   7.594 -0.7201 -1.0614 -0.2402
  130OSM   H13F14053   2.308   6.118   7.560 -0.9163  0.1515  0.0081
  130OSM   H13G14054   2.435   6.234   7.615  1.2679 -1.6602  0.8674
  130OSM   C14F14055   2.448   6.059   7.725 -1.0186 -0.2535 -0.2101
  130OSM   H14F14056   2.556   6.069   7.752 -1.4851 -0.6360  1.9244
  130OSM   H14G14057   2.424   5.951   7.719 -4.3328  0.4046  0.2330
  130OSM   C15F14058   2.366   6.110   7.841 -0.0543 -0.4297 -0.1725
  130OSM   H15F14059   2.258   6.087   7.836 -0.0867  0.0997 -2.5899
  130OSM   H15G14060   2.367   6.221   7.843 -1.7505 -0.4217  1.5153
  130OSM   C16F14061   2.422   6.064   7.981  0.3380  0.3444  0.5945
  130OSM   H16F14062   2.529   6.094   7.984 -0.1958  2.1515  3.8871
  130OSM   H16G14063   2.422   5.953   7.987 -1.2695  0.2424 -0.9020
  130OSM   C17F14064   2.358   6.140   8.096 -0.7579  0.0562  0.3674
  130OSM   H17F14065   2.251   6.119   8.075 -0.3167 -0.2732 -1.7023
  130OSM   H17G14066   2.371   6.251   8.095 -0.6233  0.0482  1.2190
  130OSM   C18F14067   2.408   6.098   8.235 -0.3672  0.7297 -0.1853
  130OSM   H18F14068   2.411   5.987   8.244 -2.4173  0.5272 -1.5819
  130OSM   H18G14069   2.344   6.150   8.309 -1.1828  1.5484 -1.4363
  130OSM   H18H14070   2.514   6.129   8.252 -0.6563  1.6718 -0.0997
  131OSM      N14071   0.912   1.195   5.859 -0.6503 -0.1882 -0.2070
  131OSM    C1514072   0.794   1.240   5.787  0.3537  0.4194  0.9946
  131OSM   H15A14073   0.818   1.320   5.719  1.2036 -0.1203  0.6505
  131OSM   H15B14074   0.724   1.286   5.855 -1.1840  0.5889 -0.6791
  131OSM   H15C14075   0.752   1.164   5.724 -0.6282  0.9914  0.9465
  131OSM    C1414076   0.884   1.052   5.897  0.7519  0.1148  0.0407
  131OSM   H14A14077   0.806   1.052   5.972 -1.7226  3.1857 -2.3945
  131OSM   H14B14078   0.968   0.999   5.940  1.3213  0.9032 -0.0990
  131OSM   H14C14079   0.845   1.002   5.809 -0.0347  0.0090  0.4494
  131OSM    C1314080   1.021   1.206   5.763 -0.7714  0.7382 -0.3170
  131OSM   H13A14081   0.997   1.148   5.675  0.4386 -0.0847 -0.1148
  131OSM   H13B14082   1.115   1.173   5.803 -1.0248 -1.5091 -1.4861
  131OSM   H13C14083   1.041   1.308   5.735  1.9202  0.0734 -0.9703
  131OSM    C1214084   0.952   1.262   5.994  0.0236 -0.1013  0.0783
  131OSM   H12A14085   1.039   1.220   6.041 -0.8072 -2.0347 -0.0469
  131OSM   H12B14086   0.870   1.236   6.059 -1.4432  2.0389 -0.8455
  131OSM    C1114087   0.970   1.416   5.993 -0.2603  0.3750 -0.1051
  131OSM   H11A14088   0.981   1.438   6.101  0.4069  0.2614 -0.1454
  131OSM   H11B14089   0.879   1.464   5.952 -1.4837 -1.5359  0.2806
  131OSM      P14090   1.228   1.448   5.969  0.2878 -0.2407 -0.1365
  131OSM    O1314091   1.246   1.314   6.036 -0.4530 -0.1975  0.8642
  131OSM    O1414092   1.314   1.465   5.850  0.2791  0.0312 -0.1145
  131OSM    O1114093   1.265   1.565   6.064  0.1415 -0.0797 -0.3124
  131OSM    O1214094   1.081   1.464   5.913  0.4059  0.3221 -0.6206
  131OSM    C1S14095   1.176   1.661   6.120  0.0874 -0.2338 -0.3630
  131OSM    H1S14096   1.085   1.676   6.057  0.0643 -1.8159 -0.7337
  131OSM    H1T14097   1.226   1.759   6.131  0.5003 -0.6080  1.0782
  131OSM     NF14098   1.045   1.717   6.331  0.1648 -0.2129 -0.0599
  131OSM    HNF14099   1.068   1.775   6.409  1.0973  2.1351 -1.9877
  131OSM    C2S14100   1.143   1.630   6.275 -0.1714 -0.1128  0.7090
  131OSM    H2S14101   1.098   1.530   6.260 -0.6971  0.3412 -0.9094
  131OSM    C3S14102   1.278   1.620   6.354  0.4650 -0.1999 -0.1886
  131OSM    H3S14103   1.341   1.712   6.355  2.4708 -1.5408 -0.5629
  131OSM     O314104   1.374   1.530   6.294  0.4551 -0.4513  0.9048
  131OSM    HO314105   1.357   1.534   6.200  0.0773 -0.0693  0.9897
  131OSM    C4S14106   1.254   1.573   6.489 -0.0099 -0.2919 -0.4249
  131OSM    H4S14107   1.206   1.474   6.496 -3.2440  1.1377 -1.2928
  131OSM    C5S14108   1.260   1.652   6.596  0.7666  0.2013 -0.1565
  131OSM    H5S14109   1.282   1.759   6.581  1.1192  0.5790  2.7928
  131OSM    C6S14110   1.237   1.612   6.740 -0.9337  0.3118 -0.2460
  131OSM    H6S14111   1.179   1.517   6.748  2.1228 -1.7045 -1.3002
  131OSM    H6T14112   1.173   1.690   6.786 -1.0557  0.5353 -0.7878
  131OSM    C7S14113   1.368   1.599   6.830  0.6539  0.3344  0.2386
  131OSM    H7S14114   1.407   1.702   6.842  0.0944  0.4943  0.6767
  131OSM    H7T14115   1.449   1.540   6.782  0.1515 -0.3813  0.2629
  131OSM    C8S14116   1.340   1.563   6.974 -0.5067  0.1048  0.6743
  131OSM    H8S14117   1.325   1.453   6.980  0.3512  0.0486  1.8080
  131OSM    H8T14118   1.243   1.612   7.001 -0.2238  1.3539 -0.5336
  131OSM    C9S14119   1.441   1.621   7.084  0.0675 -0.0426  0.6203
  131OSM    H9S14120   1.441   1.731   7.071  0.3870  0.1178  1.9396
  131OSM    H9T14121   1.544   1.589   7.060  1.4070  4.3386  0.2417
  131OSM   C10S14122   1.415   1.593   7.231 -0.0426  0.2960 -1.0232
  131OSM   H10S14123   1.307   1.597   7.255  0.0692  1.1866 -0.6405
  131OSM   H10T14124   1.452   1.671   7.301 -0.7670 -0.6546  0.4353
  131OSM   C11S14125   1.474   1.460   7.283 -0.3946  0.5058 -0.8980
  131OSM   H11S14126   1.584   1.466   7.271 -0.2209  1.1251  0.8213
  131OSM   H11T14127   1.435   1.382   7.215 -2.3588  0.3321  0.4054
  131OSM   C12S14128   1.430   1.414   7.426 -0.1849  0.2736 -0.1538
  131OSM   H12S14129   1.469   1.312   7.446 -0.0736  0.5497  1.0784
  131OSM   H12T14130   1.320   1.413   7.444 -0.2721  0.9121 -0.6551
  131OSM   C13S14131   1.477   1.516   7.523  0.2848  0.5291 -0.1372
  131OSM   H13S14132   1.421   1.610   7.510 -0.7974  0.3964  3.0808
  131OSM   H13T14133   1.585   1.536   7.505  0.1094  1.4936 -0.1108
  131OSM   C14S14134   1.460   1.470   7.667  0.0575  0.4636  0.1697
  131OSM   H14S14135   1.463   1.360   7.652 -0.6232  0.2581  1.3893
  131OSM   H14T14136   1.358   1.491   7.708 -1.2371  0.8368 -3.0612
  131OSM   C15S14137   1.582   1.511   7.753 -0.1488  0.6057  0.4529
  131OSM   H15S14138   1.613   1.616   7.739  1.2215 -0.0320 -1.4399
  131OSM   H15T14139   1.664   1.453   7.705 -0.7433  0.3259 -0.2465
  131OSM   C16S14140   1.571   1.458   7.898  0.2288  0.3750 -0.3532
  131OSM   H16S14141   1.534   1.354   7.904  2.3802 -0.4129 -0.2931
  131OSM   H16T14142   1.488   1.520   7.939 -0.0054 -0.4955  0.5120
  131OSM   C17S14143   1.693   1.463   7.995  0.4099  1.2015 -0.4288
  131OSM   H17S14144   1.746   1.561   7.994  0.5432  1.1252 -1.6005
  131OSM   H17T14145   1.764   1.396   7.943  0.3660 -1.0309  2.3020
  131OSM   C18S14146   1.676   1.429   8.139 -0.1964  0.2069 -0.4910
  131OSM   H18S14147   1.612   1.506   8.187 -0.6783  0.1224 -0.9864
  131OSM   H18T14148   1.766   1.415   8.202  0.0544  0.7803 -0.7248
  131OSM   H18U14149   1.625   1.331   8.155  0.2562  0.2503  1.2955
  131OSM    C1F14150   0.921   1.732   6.285 -0.6957 -0.0442  0.7106
  131OSM     OF14151   0.867   1.636   6.230 -0.6272  0.2576 -0.0213
  131OSM    C2F14152   0.837   1.858   6.315  0.4606 -0.4346 -0.3399
  131OSM    H2F14153   0.759   1.867   6.237 -1.0795  0.2875  1.2720
  131OSM    H2G14154   0.909   1.942   6.307 -0.1050  0.0230 -0.6420
  131OSM    C3F14155   0.780   1.845   6.451 -0.3138  0.9099  0.3553
  131OSM    H3F14156   0.854   1.824   6.532 -0.5569 -0.6983  0.1737
  131OSM    H3G14157   0.708   1.760   6.446  0.9922 -0.0717 -2.3053
  131OSM    C4F14158   0.709   1.972   6.497  0.8372 -0.1027 -0.0937
  131OSM    H4F14159   0.638   1.998   6.416 -0.2498  0.1985  0.9537
  131OSM    H4G14160   0.769   2.066   6.502 -0.0914  0.5702 -1.3974
  131OSM    C5F14161   0.615   1.963   6.618 -0.6026  0.0355 -0.6091
  131OSM    H5F14162   0.543   1.885   6.584 -2.5241  1.8622 -0.7752
  131OSM    H5G14163   0.558   2.053   6.648  0.1038  0.2312  0.1679
  131OSM    C6F14164   0.699   1.920   6.749  0.3221 -1.1899 -0.3803
  131OSM    H6F14165   0.771   2.002   6.767 -0.6195 -0.0755 -1.5748
  131OSM    H6G14166   0.750   1.825   6.720  1.2576 -0.3001 -1.7088
  131OSM    C7F14167   0.604   1.893   6.871 -0.2656 -0.2493 -0.6354
  131OSM    H7F14168   0.527   1.820   6.840  0.9947 -0.8564 -2.3691
  131OSM    H7G14169   0.556   1.991   6.897 -0.7271 -0.2754 -1.3865
  131OSM    C8F14170   0.673   1.850   7.005  0.0076  0.6890  0.0047
  131OSM    H8F14171   0.711   1.746   6.995 -1.6285  0.0736 -0.0302
  131OSM    H8G14172   0.596   1.857   7.085  1.3354 -0.2756  1.4093
  131OSM    C9F14173   0.785   1.942   7.038 -0.4875  0.4537 -0.7382
  131OSM    H9F14174   0.756   2.048   7.032 -0.6760  0.3677 -1.3981
  131OSM   C10F14175   0.909   1.908   7.063  0.2466  0.2215 -0.3703
  131OSM   H10F14176   0.976   1.994   7.076 -1.6397  1.9409 -1.6656
  131OSM   C11F14177   0.961   1.766   7.081  0.1300 -0.1362  0.1163
  131OSM   H11F14178   1.027   1.758   6.993  1.2143 -1.4503  1.0235
  131OSM   H11G14179   0.890   1.681   7.071 -0.2541  0.4218 -2.0765
  131OSM   C12F14180   1.052   1.739   7.205 -0.2127 -0.6074 -0.1446
  131OSM   H12F14181   1.136   1.813   7.210 -0.0890 -0.6264 -1.6264
  131OSM   H12G14182   1.096   1.638   7.211  1.5419  0.0828 -0.9871
  131OSM   C13F14183   0.966   1.746   7.331 -0.0066  0.6050  0.0101
  131OSM   H13F14184   0.866   1.698   7.321  0.9853 -1.8004  1.2659
  131OSM   H13G14185   0.945   1.854   7.345 -0.8888  0.3229  0.9935
  131OSM   C14F14186   1.042   1.694   7.453 -0.2709  0.4204  0.3437
  131OSM   H14F14187   1.146   1.726   7.431 -0.3929  1.9722  1.9057
  131OSM   H14G14188   1.041   1.584   7.464 -2.2928  0.4874  0.9231
  131OSM   C15F14189   1.003   1.762   7.577 -0.2223  0.2654 -0.0462
  131OSM   H15F14190   0.910   1.712   7.612 -0.4051 -0.3263 -1.3334
  131OSM   H15G14191   0.980   1.871   7.573  0.2548  0.3305 -1.4961
  131OSM   C16F14192   1.113   1.729   7.676 -1.4450 -0.8012  0.3801
  131OSM   H16F14193   1.154   1.627   7.659  1.1518  0.3040 -0.3420
  131OSM   H16G14194   1.072   1.724   7.779 -1.5980  0.4297  0.3776
  131OSM   C17F14195   1.222   1.843   7.678 -0.0025  0.5442 -0.2001
  131OSM   H17F14196   1.155   1.930   7.696  0.3749  0.6894  0.5306
  131OSM   H17G14197   1.273   1.850   7.580 -0.6080 -1.2586 -0.6618
  131OSM   C18F14198   1.330   1.846   7.788 -0.2851  0.6251  1.3749
  131OSM   H18F14199   1.401   1.764   7.766  0.4461  1.7283 -0.5024
  131OSM   H18G14200   1.281   1.823   7.885 -4.9664 -0.1542 -1.0306
  131OSM   H18H14201   1.388   1.941   7.786 -0.5658  0.7967  1.2700
  132OSM      N14202   2.912   4.240   6.033 -0.0392  0.3026 -0.4712
  132OSM    C1514203   2.969   4.328   5.926 -0.2620  0.1070  0.0423
  132OSM   H15A14204   2.893   4.356   5.854 -0.9709 -0.4790  0.5596
  132OSM   H15B14205   3.051   4.294   5.865 -0.6364 -0.5042 -0.1147
  132OSM   H15C14206   3.007   4.423   5.962 -2.0123  0.3084  1.4336
  132OSM    C1414207   2.872   4.116   5.959 -0.4971  0.6523 -0.4946
  132OSM   H14A14208   2.787   4.130   5.894 -1.3833  0.9976  0.7335
  132OSM   H14B14209   2.832   4.043   6.028 -0.8865  2.3463  1.1146
  132OSM   H14C14210   2.958   4.066   5.916 -0.2876 -0.5824  1.2860
  132OSM    C1314211   3.018   4.203   6.133 -0.8244  0.1570 -0.7323
  132OSM   H13A14212   3.108   4.170   6.083 -2.2385 -1.5661 -2.1710
  132OSM   H13B14213   2.992   4.145   6.220  0.3369  0.6838 -0.0158
  132OSM   H13C14214   3.054   4.297   6.173  0.0930 -0.2865 -0.4936
  132OSM    C1214215   2.798   4.314   6.101  0.8162 -0.3998  0.2521
  132OSM   H12A14216   2.832   4.410   6.139 -1.2629  0.6689 -0.5042
  132OSM   H12B14217   2.758   4.253   6.180  2.0854 -0.0031  1.2369
  132OSM    C1114218   2.682   4.337   5.999  0.1455 -0.5330  0.2042
  132OSM   H11A14219   2.717   4.376   5.901  0.0712  2.1575  1.2225
  132OSM   H11B14220   2.619   4.421   6.035  1.6264  1.7359 -2.3362
  132OSM      P14221   2.538   4.136   6.101  0.1405  0.3794  0.4657
  132OSM    O1314222   2.407   4.091   6.057 -0.3113  0.2805  0.2775
  132OSM    O1414223   2.627   4.029   6.143 -0.1872 -0.2691  0.2657
  132OSM    O1114224   2.528   4.243   6.216 -0.0664 -0.0251 -0.0310
  132OSM    O1214225   2.599   4.227   5.984  0.0271 -0.3682 -0.2091
  132OSM    C1S14226   2.452   4.228   6.338 -0.2158  0.2100  0.6241
  132OSM    H1S14227   2.451   4.124   6.376 -1.4863 -0.6197 -1.6031
  132OSM    H1T14228   2.345   4.240   6.310 -0.6267 -1.5047  1.4101
  132OSM     NF14229   2.446   4.300   6.570 -0.3988  0.1099 -0.3262
  132OSM    HNF14230   2.353   4.320   6.600 -0.9016  1.6731 -2.7899
  132OSM    C2S14231   2.494   4.337   6.446  0.8564 -0.3843  0.7836
  132OSM    H2S14232   2.604   4.348   6.450  0.6114  2.0160  1.3052
  132OSM    C3S14233   2.445   4.472   6.396 -0.7697 -0.0048 -0.3686
  132OSM    H3S14234   2.336   4.483   6.414 -0.9115  0.0092 -1.2040
  132OSM     O314235   2.452   4.492   6.261 -0.2236 -0.5098 -0.1388
  132OSM    HO314236   2.481   4.407   6.226 -0.8758 -0.3558 -1.1019
  132OSM    C4S14237   2.516   4.586   6.472  0.2666  0.7143  0.6233
  132OSM    H4S14238   2.626   4.587   6.468  0.2625 -0.2397  0.2890
  132OSM    C5S14239   2.455   4.671   6.550  0.4369 -0.4292  0.5212
  132OSM    H5S14240   2.347   4.666   6.570  0.1263  2.0332 -0.2847
  132OSM    C6S14241   2.532   4.769   6.628 -0.1163 -0.1981 -0.0339
  132OSM    H6S14242   2.469   4.824   6.702 -0.7359  0.8603 -1.3240
  132OSM    H6T14243   2.576   4.851   6.567  0.4085 -0.9119 -0.6210
  132OSM    C7S14244   2.640   4.700   6.706  1.3024  0.3114 -0.0731
  132OSM    H7S14245   2.722   4.652   6.649  1.0092 -0.0643 -0.1748
  132OSM    H7T14246   2.595   4.622   6.771 -1.6643  1.4997 -0.6462
  132OSM    C8S14247   2.701   4.803   6.799 -0.7060 -0.1547 -0.1969
  132OSM    H8S14248   2.635   4.876   6.849  0.4298  0.3432  0.5962
  132OSM    H8T14249   2.780   4.858   6.743  0.0098 -0.6527  0.3074
  132OSM    C9S14250   2.788   4.733   6.914 -0.8790  0.1086  0.4087
  132OSM    H9S14251   2.861   4.812   6.940 -1.2679  0.7910 -0.5511
  132OSM    H9T14252   2.836   4.634   6.896 -2.4265 -0.7744  1.0670
  132OSM   C10S14253   2.708   4.702   7.039 -0.1916 -0.1894  0.0227
  132OSM   H10S14254   2.624   4.636   7.010 -0.3340 -0.5253  1.1505
  132OSM   H10T14255   2.670   4.795   7.087 -1.0389 -0.0411 -0.9357
  132OSM   C11S14256   2.787   4.622   7.141  0.4527  0.5085 -0.0138
  132OSM   H11S14257   2.870   4.682   7.182  0.7292  0.2294 -0.1665
  132OSM   H11T14258   2.826   4.536   7.083 -1.0880 -0.2300  0.0077
  132OSM   C12S14259   2.716   4.576   7.273  0.3235  0.2311  0.2527
  132OSM   H12S14260   2.794   4.515   7.324 -2.8556 -3.8339  0.5252
  132OSM   H12T14261   2.627   4.518   7.239  0.6106 -0.5186  0.7494
  132OSM   C13S14262   2.665   4.702   7.356 -0.6201  0.5609 -0.4715
  132OSM   H13S14263   2.581   4.744   7.296 -0.0464  1.0723 -0.9263
  132OSM   H13T14264   2.742   4.781   7.370  0.1087  0.1781 -2.2349
  132OSM   C14S14265   2.607   4.671   7.492  0.2306  0.3360  0.3646
  132OSM   H14S14266   2.525   4.599   7.476 -0.4477  1.1398  0.1807
  132OSM   H14T14267   2.571   4.764   7.542  1.3032  1.7739 -1.4683
  132OSM   C15S14268   2.707   4.606   7.590  0.4380 -0.5415  0.8741
  132OSM   H15S14269   2.730   4.504   7.551 -0.2872 -0.1209 -0.6938
  132OSM   H15T14270   2.654   4.587   7.686  0.6999  1.9366  1.5324
  132OSM   C16S14271   2.830   4.685   7.626  0.4979 -0.5605  0.2121
  132OSM   H16S14272   2.796   4.787   7.654 -1.8417 -1.5454  1.0687
  132OSM   H16T14273   2.876   4.713   7.529  1.8410  0.6457  1.1766
  132OSM   C17S14274   2.917   4.616   7.727 -0.4173  0.6063  1.0321
  132OSM   H17S14275   3.020   4.656   7.711  0.6878 -2.3641  0.3876
  132OSM   H17T14276   2.921   4.510   7.693 -0.5197  0.4655  1.4571
  132OSM   C18S14277   2.873   4.615   7.867 -0.0587 -0.3919 -0.0595
  132OSM   H18S14278   2.885   4.712   7.918  1.1511 -0.4530 -0.2030
  132OSM   H18T14279   2.936   4.536   7.914  1.4242  0.5875 -0.3584
  132OSM   H18U14280   2.770   4.575   7.878  0.5481 -1.8490  0.5117
  132OSM    C1F14281   2.523   4.212   6.636  0.3950  0.6328 -0.6036
  132OSM     OF14282   2.629   4.163   6.594  0.2061 -0.3929 -0.3802
  132OSM    C2F14283   2.468   4.157   6.765 -0.0821 -0.3143  0.0704
  132OSM    H2F14284   2.429   4.054   6.750  1.2799 -0.8628  0.1885
  132OSM    H2G14285   2.377   4.212   6.796 -1.4071 -0.2337 -3.7023
  132OSM    C3F14286   2.574   4.153   6.877  0.5928  0.0509 -0.1159
  132OSM    H3F14287   2.628   4.250   6.865 -0.0273  0.0455 -3.2785
  132OSM    H3G14288   2.655   4.078   6.864  1.3128  0.9103 -0.6482
  132OSM    C4F14289   2.511   4.147   7.017 -0.4055 -0.4171  0.5104
  132OSM    H4F14290   2.448   4.056   7.007 -0.6110 -0.2858  0.5992
  132OSM    H4G14291   2.442   4.233   7.029 -0.6023 -0.2234 -1.9047
  132OSM    C5F14292   2.619   4.148   7.124 -0.4218 -0.0175  0.0760
  132OSM    H5F14293   2.686   4.235   7.110 -0.0566 -0.2445  0.4018
  132OSM    H5G14294   2.678   4.054   7.112  0.7080  0.7505 -0.5373
  132OSM    C6F14295   2.556   4.176   7.261 -0.2408  0.5147  0.0051
  132OSM    H6F14296   2.512   4.075   7.272 -1.7645  1.0061 -1.4129
  132OSM    H6G14297   2.474   4.249   7.241 -1.0437 -1.1712 -3.2726
  132OSM    C7F14298   2.654   4.214   7.374  0.6368  0.3042 -0.2896
  132OSM    H7F14299   2.674   4.322   7.356  1.2012  0.6132  1.9783
  132OSM    H7G14300   2.750   4.159   7.380  1.9081  2.6246  1.7662
  132OSM    C8F14301   2.584   4.194   7.511  0.1275 -0.8956  0.1724
  132OSM    H8F14302   2.546   4.092   7.533  0.6018 -0.8861  1.0663
  132OSM    H8G14303   2.495   4.260   7.516 -0.1151 -1.0846 -1.4175
  132OSM    C9F14304   2.677   4.240   7.622 -0.0785 -0.9670 -0.6409
  132OSM    H9F14305   2.783   4.228   7.597 -0.2912  0.6329 -2.3859
  132OSM   C10F14306   2.635   4.284   7.748 -1.0008  0.6578  0.0276
  132OSM   H10F14307   2.715   4.309   7.819  0.1325  1.1862 -1.4070
  132OSM   C11F14308   2.501   4.309   7.813  0.2356  0.0716  0.3752
  132OSM   H11F14309   2.417   4.259   7.760  0.6263  0.6580 -0.8126
  132OSM   H11G14310   2.489   4.419   7.805 -0.2167 -0.1285 -1.8730
  132OSM   C12F14311   2.510   4.270   7.965 -0.2326 -0.6239  0.5032
  132OSM   H12F14312   2.413   4.304   8.007 -0.3608  1.4969 -1.4177
  132OSM   H12G14313   2.593   4.318   8.020 -1.5081  0.1195  1.8308
  132OSM   C13F14314   2.504   4.116   7.967 -0.1767  0.2644  0.4886
  132OSM   H13F14315   2.571   4.069   7.892 -1.8788 -1.2924 -0.1068
  132OSM   H13G14316   2.401   4.080   7.947 -0.8136  1.5626  1.3870
  132OSM   C14F14317   2.534   4.062   8.110  0.2938 -0.2573  0.4056
  132OSM   H14F14318   2.497   3.958   8.115 -0.7589  0.0619 -0.5445
  132OSM   H14G14319   2.507   4.126   8.197 -0.4129 -1.3104  0.9693
  132OSM   C15F14320   2.685   4.052   8.136 -0.1341  0.0753  0.2628
  132OSM   H15F14321   2.722   4.156   8.131 -0.0757 -0.0302 -2.6666
  132OSM   H15G14322   2.731   4.002   8.048  0.0711 -1.1679  1.0601
  132OSM   C16F14323   2.729   3.959   8.251  0.4808 -0.2661  0.5279
  132OSM   H16F14324   2.665   3.868   8.243  1.2573 -0.8391  0.7928
  132OSM   H16G14325   2.694   4.022   8.336 -1.5411 -1.8672  0.9393
  132OSM   C17F14326   2.877   3.935   8.244 -0.8249  0.0744  0.4967
  132OSM   H17F14327   2.928   4.033   8.254 -0.2220 -0.2402  0.4973
  132OSM   H17G14328   2.901   3.887   8.147 -2.2975 -1.3869  0.8297
  132OSM   C18F14329   2.922   3.853   8.363 -0.5410 -0.5957 -0.0717
  132OSM   H18F14330   2.873   3.754   8.376  0.0070 -1.0449 -1.3917
  132OSM   H18G14331   2.897   3.915   8.452  0.2679  0.9925 -0.9398
  132OSM   H18H14332   3.032   3.841   8.355 -0.5752 -0.7833 -0.2553
  133OSM      N14333   3.263   3.818   6.073 -0.5704  0.2942  0.0232
  133OSM    C1514334   3.322   3.955   6.102  0.8167 -0.6150 -0.2792
  133OSM   H15A14335   3.423   3.953   6.141  0.4566  2.1072  0.9253
  133OSM   H15B14336   3.273   4.004   6.185  3.9815 -0.3292  1.5253
  133OSM   H15C14337   3.303   4.016   6.015  0.4966 -2.0680 -1.2462
  133OSM    C1414338   3.116   3.846   6.057 -0.0344 -0.9349 -0.1630
  133OSM   H14A14339   3.065   3.753   6.040  0.6704 -1.7179  1.8070
  133OSM   H14B14340   3.090   3.901   5.968  0.4094  0.1283  0.3477
  133OSM   H14C14341   3.078   3.896   6.145 -1.3602 -0.6144 -0.8973
  133OSM    C1314342   3.319   3.772   5.943  0.4401  0.7392  0.2361
  133OSM   H13A14343   3.313   3.853   5.872 -0.2615  1.3960  1.0174
  133OSM   H13B14344   3.266   3.684   5.910  0.3709  1.0128 -0.3856
  133OSM   H13C14345   3.425   3.753   5.947  0.6800  1.9356 -0.1041
  133OSM    C1214346   3.287   3.717   6.186  0.1792  0.0471 -0.8899
  133OSM   H12A14347   3.242   3.754   6.276  0.6127  0.7336 -0.9576
  133OSM   H12B14348   3.389   3.720   6.221 -0.0301  2.0502 -0.3867
  133OSM    C1114349   3.237   3.571   6.166  0.0708  0.1959  0.0796
  133OSM   H11A14350   3.258   3.507   6.254 -0.8586 -1.0307 -0.5702
  133OSM   H11B14351   3.292   3.529   6.079 -1.7420 -0.1413 -0.9285
  133OSM      P14352   3.005   3.575   6.267 -0.5932  0.2838  0.1944
  133OSM    O1314353   2.867   3.566   6.210  0.0070  0.2592  0.4567
  133OSM    O1414354   3.039   3.468   6.367  0.2628  0.3016 -0.0095
  133OSM    O1114355   3.010   3.718   6.321  0.0071 -0.3965 -0.1019
  133OSM    O1214356   3.098   3.577   6.141  0.0102  0.0346  0.1840
  133OSM    C1S14357   2.918   3.787   6.403  0.4307 -0.3158  0.1501
  133OSM    H1S14358   2.817   3.741   6.400  1.4232 -2.4532 -2.1591
  133OSM    H1T14359   2.922   3.895   6.377  0.5534 -0.8278 -2.0696
  133OSM     NF14360   2.836   3.811   6.637 -0.2422  0.1138 -0.2972
  133OSM    HNF14361   2.842   3.898   6.686  1.3864 -1.5778  2.6590
  133OSM    C2S14362   2.954   3.767   6.556  0.6042 -0.3445 -0.3181
  133OSM    H2S14363   2.964   3.659   6.580  0.3243  0.2333  2.5872
  133OSM    C3S14364   3.085   3.837   6.590 -0.3564 -0.3285 -0.0810
  133OSM    H3S14365   3.067   3.947   6.592  0.9263 -0.0755 -1.8049
  133OSM     O314366   3.188   3.827   6.491 -0.5536 -0.0059  0.0194
  133OSM    HO314367   3.144   3.801   6.410  0.4298  2.1124 -1.2167
  133OSM    C4S14368   3.136   3.802   6.731  0.4957  0.1507  0.0796
  133OSM    H4S14369   3.145   3.894   6.790 -1.8264  1.0201 -0.8667
  133OSM    C5S14370   3.191   3.689   6.782  0.3192  1.0283 -0.1873
  133OSM    H5S14371   3.213   3.599   6.722 -3.1678  0.6754 -1.0111
  133OSM    C6S14372   3.247   3.673   6.917  0.4102 -0.6929 -0.1262
  133OSM    H6S14373   3.340   3.614   6.900 -0.1109 -1.3059 -0.8273
  133OSM    H6T14374   3.175   3.617   6.980 -0.7289  2.3575  1.3957
  133OSM    C7S14375   3.273   3.797   7.005 -0.0488 -0.0006  0.1672
  133OSM    H7S14376   3.175   3.846   7.025  0.5650  2.5309 -2.7310
  133OSM    H7T14377   3.340   3.866   6.949  0.7646  0.8486  2.1352
  133OSM    C8S14378   3.347   3.761   7.137  0.4298  0.0117 -0.1007
  133OSM    H8S14379   3.445   3.721   7.105 -0.8328 -2.4432 -1.0698
  133OSM    H8T14380   3.285   3.688   7.194 -1.3574  0.9438 -0.8067
  133OSM    C9S14381   3.364   3.881   7.233 -0.3443  0.1182  0.0728
  133OSM    H9S14382   3.268   3.917   7.274  0.2238 -0.4994  2.0385
  133OSM    H9T14383   3.413   3.966   7.181 -0.9142  1.0196  1.0063
  133OSM   C10S14384   3.454   3.839   7.352  0.0821  0.3324 -0.0327
  133OSM   H10S14385   3.552   3.791   7.331 -0.2224  0.3655 -1.5119
  133OSM   H10T14386   3.385   3.769   7.403 -0.5867  0.7281 -0.3806
  133OSM   C11S14387   3.484   3.946   7.459  0.0812  0.3593  0.4200
  133OSM   H11S14388   3.382   3.966   7.499  0.5043  0.2642  1.5708
  133OSM   H11T14389   3.524   4.037   7.411  1.5080 -0.7170 -0.4491
  133OSM   C12S14390   3.579   3.889   7.570  0.0977  0.4924 -0.3494
  133OSM   H12S14391   3.674   3.859   7.522  1.6878  3.2606  0.9638
  133OSM   H12T14392   3.528   3.797   7.606  0.4637  0.6298  0.5159
  133OSM   C13S14393   3.608   3.981   7.687  0.6947 -0.0831 -0.0282
  133OSM   H13S14394   3.517   4.046   7.690  0.5509 -0.2265 -1.1330
  133OSM   H13T14395   3.683   4.059   7.665 -1.3641  1.7336 -0.8658
  133OSM   C14S14396   3.646   3.906   7.820  0.0070  0.5227  0.3323
  133OSM   H14S14397   3.572   3.824   7.831  0.8366 -0.5106 -1.6713
  133OSM   H14T14398   3.649   3.974   7.908 -1.1651 -1.7155  2.1550
  133OSM   C15S14399   3.788   3.838   7.815 -0.3292 -0.5648  0.0300
  133OSM   H15S14400   3.839   3.914   7.752  0.4628  0.4337  1.8725
  133OSM   H15T14401   3.781   3.751   7.745  0.6459  0.7130 -1.6840
  133OSM   C16S14402   3.855   3.810   7.951  0.3910 -0.5997  0.0215
  133OSM   H16S14403   3.854   3.909   8.002 -1.0316 -0.3845 -0.3941
  133OSM   H16T14404   3.959   3.773   7.945  0.7352 -0.5160  4.0841
  133OSM   C17S14405   3.776   3.722   8.046 -0.4296 -0.6046  0.4898
  133OSM   H17S14406   3.738   3.633   7.991 -1.1985  0.4895 -0.7773
  133OSM   H17T14407   3.690   3.780   8.086  0.3347  0.5933  0.4186
  133OSM   C18S14408   3.858   3.667   8.165 -0.2245  1.1255  0.1024
  133OSM   H18S14409   3.964   3.648   8.137 -0.0835  0.8433  0.8171
  133OSM   H18T14410   3.823   3.566   8.196 -0.2377  1.6036  1.7129
  133OSM   H18U14411   3.867   3.753   8.235 -1.3424  0.7797  0.6830
  133OSM    C1F14412   2.719   3.746   6.625 -0.4048  0.0568 -0.0134
  133OSM     OF14413   2.707   3.631   6.587  0.0711  0.8815 -0.0044
  133OSM    C2F14414   2.599   3.825   6.664 -0.3605  0.7403 -0.2172
  133OSM    H2F14415   2.531   3.823   6.576  0.8392 -0.8059 -1.1303
  133OSM    H2G14416   2.633   3.928   6.684  0.8167  0.3846 -0.3358
  133OSM    C3F14417   2.521   3.777   6.788  0.3669 -0.2157  0.2843
  133OSM    H3F14418   2.436   3.847   6.805  2.3144  1.8548  1.8458
  133OSM    H3G14419   2.588   3.786   6.876  2.2266 -0.3261 -1.0836
  133OSM    C4F14420   2.458   3.635   6.773  0.3530  0.2475 -0.1900
  133OSM    H4F14421   2.539   3.565   6.745  1.5001  1.4362  0.0749
  133OSM    H4G14422   2.384   3.642   6.691 -0.8190 -0.2093  0.8088
  133OSM    C5F14423   2.402   3.583   6.910  0.2786 -0.1735 -0.1384
  133OSM    H5F14424   2.376   3.477   6.891 -0.1477 -0.1313  0.1873
  133OSM    H5G14425   2.306   3.638   6.924  0.4708  0.5021 -1.4420
  133OSM    C6F14426   2.497   3.587   7.030  0.3533  0.2994  0.6586
  133OSM    H6F14427   2.507   3.691   7.068  0.4545  0.7004 -0.4499
  133OSM    H6G14428   2.594   3.549   6.991 -1.7086 -2.5993 -1.8553
  133OSM    C7F14429   2.444   3.508   7.149 -0.3212  0.8996 -0.7776
  133OSM    H7F14430   2.524   3.482   7.222 -1.3062  1.2166  0.4149
  133OSM    H7G14431   2.408   3.405   7.127  1.1354  0.5876 -1.8513
  133OSM    C8F14432   2.344   3.585   7.231 -0.3844  0.3018 -0.0968
  133OSM    H8F14433   2.317   3.515   7.313 -1.2974 -0.9828 -1.4775
  133OSM    H8G14434   2.242   3.596   7.188 -0.2047 -1.8729 -1.1372
  133OSM    C9F14435   2.390   3.719   7.280  0.0564  0.0124  0.5494
  133OSM    H9F14436   2.393   3.798   7.204 -1.8801  0.0734  0.5235
  133OSM   C10F14437   2.428   3.747   7.408  0.6508 -0.6354 -0.0127
  133OSM   H10F14438   2.457   3.851   7.429  1.1174 -0.8737  0.5386
  133OSM   C11F14439   2.426   3.657   7.530  0.0898 -0.0728  0.1374
  133OSM   H11F14440   2.512   3.586   7.535 -0.3976 -0.9342 -2.9812
  133OSM   H11G14441   2.333   3.597   7.528  0.7720 -1.1900  0.8833
  133OSM   C12F14442   2.423   3.724   7.668 -0.6311  0.0650 -0.4397
  133OSM   H12F14443   2.353   3.810   7.667 -0.4741  0.2385  1.4074
  133OSM   H12G14444   2.522   3.772   7.687 -0.2441  0.3609 -2.9540
  133OSM   C13F14445   2.395   3.633   7.786 -0.1286  0.0552  0.1221
  133OSM   H13F14446   2.465   3.548   7.802 -1.1659 -0.9043 -0.3524
  133OSM   H13G14447   2.293   3.592   7.770 -0.2015  0.7774 -1.3286
  133OSM   C14F14448   2.386   3.694   7.934  0.1884 -0.5491  0.1680
  133OSM   H14F14449   2.298   3.761   7.928  0.4850 -0.3163 -2.6220
  133OSM   H14G14450   2.468   3.764   7.962 -0.1490 -0.1591  0.1862
  133OSM   C15F14451   2.371   3.588   8.047 -0.4317 -0.9940  0.1136
  133OSM   H15F14452   2.449   3.511   8.031 -0.2469 -1.2395  2.0627
  133OSM   H15G14453   2.275   3.533   8.034 -0.9729 -0.4230  1.5900
  133OSM   C16F14454   2.375   3.656   8.185 -0.2093 -0.6217 -0.3091
  133OSM   H16F14455   2.297   3.735   8.181 -1.3743 -1.6887  0.8580
  133OSM   H16G14456   2.474   3.705   8.193 -1.2033  1.3519  0.0594
  133OSM   C17F14457   2.364   3.563   8.302  0.0185 -0.0471 -0.5285
  133OSM   H17F14458   2.456   3.501   8.301  0.0117 -0.0471 -1.8647
  133OSM   H17G14459   2.271   3.503   8.289 -0.7584  0.6456  1.6111
  133OSM   C18F14460   2.347   3.629   8.437 -0.3681 -0.0846 -0.8634
  133OSM   H18F14461   2.257   3.607   8.497  2.5527  0.5728  4.0139
  133OSM   H18G14462   2.338   3.740   8.432  0.3944 -0.0719 -2.1445
  133OSM   H18H14463   2.429   3.596   8.505 -0.7693  1.3231  0.3297
  134OSM      N14464   3.731   0.619   6.213  0.5456  0.4649  0.0754
  134OSM    C1514465   3.643   0.598   6.098 -0.2649 -0.1571 -0.7721
  134OSM   H15A14466   3.564   0.671   6.093 -0.9813 -0.8963 -0.3749
  134OSM   H15B14467   3.603   0.499   6.114 -1.5768  0.1780 -1.8455
  134OSM   H15C14468   3.703   0.611   6.009 -0.3726  0.4062 -0.7642
  134OSM    C1414469   3.853   0.528   6.187  0.0519  0.0012 -0.9473
  134OSM   H14A14470   3.927   0.567   6.119 -0.3599 -0.0118 -1.4036
  134OSM   H14B14471   3.821   0.436   6.140  0.4218 -0.9805  0.6955
  134OSM   H14C14472   3.901   0.505   6.281 -1.2727  1.6831  0.1839
  134OSM    C1314473   3.775   0.764   6.209 -0.0351  0.1581  0.4933
  134OSM   H13A14474   3.689   0.829   6.208 -1.1103 -1.2783 -1.3308
  134OSM   H13B14475   3.835   0.792   6.124  0.7270 -0.7051  0.7403
  134OSM   H13C14476   3.839   0.780   6.295 -0.2612  0.1270  0.6686
  134OSM    C1214477   3.660   0.595   6.349  0.1919 -0.2004 -0.5827
  134OSM   H12A14478   3.577   0.664   6.349  1.5629  1.4902 -1.9607
  134OSM   H12B14479   3.721   0.625   6.433 -0.6987 -0.4201  0.1504
  134OSM    C1114480   3.604   0.455   6.384 -0.3154  0.2220 -0.2493
  134OSM   H11A14481   3.519   0.431   6.316  0.1577 -0.5305 -0.5706
  134OSM   H11B14482   3.561   0.478   6.484  0.2779  0.0221  0.0500
  134OSM      P14483   3.696   0.217   6.303 -0.5036  0.1625 -0.2826
  134OSM    O1314484   3.606   0.253   6.193  0.1135  0.1657 -0.1865
  134OSM    O1414485   3.830   0.163   6.270  0.2055  0.4972 -0.1085
  134OSM    O1114486   3.619   0.110   6.389  0.3269 -0.5956  0.4789
  134OSM    O1214487   3.705   0.345   6.392 -0.3096 -0.5783  0.7373
  134OSM    C1S14488   3.657   0.117   6.527 -0.6146 -1.1896 -0.3640
  134OSM    H1S14489   3.597   0.191   6.584  1.1090 -2.1079  2.7625
  134OSM    H1T14490   3.757   0.156   6.552 -1.2399  0.5958 -0.5965
  134OSM     NF14491   3.681  -0.007   6.732  0.5548 -0.2145 -0.4052
  134OSM    HNF14492   3.778  -0.021   6.748  0.9548 -0.3048 -2.6811
  134OSM    C2S14493   3.646  -0.019   6.596 -0.6610  0.3513 -0.4191
  134OSM    H2S14494   3.543  -0.060   6.583 -0.4689 -0.2699 -0.0228
  134OSM    C3S14495   3.738  -0.123   6.517 -0.2101  0.4970 -0.4618
  134OSM    H3S14496   3.846  -0.099   6.527 -0.1830  0.8736 -1.5366
  134OSM     O314497   3.711  -0.136   6.378 -0.5623 -0.1974  0.5324
  134OSM    HO314498   3.653  -0.061   6.367 -0.7697 -0.2345  1.3570
  134OSM    C4S14499   3.724  -0.257   6.591 -0.1852 -1.1859  1.0103
  134OSM    H4S14500   3.623  -0.300   6.600 -0.3931 -0.9129  0.0430
  134OSM    C5S14501   3.828  -0.340   6.613  0.0769  0.7745 -0.9514
  134OSM    H5S14502   3.917  -0.332   6.549 -0.1966 -3.0471 -1.8943
  134OSM    C6S14503   3.818  -0.478   6.664 -0.0206 -0.3342  0.0429
  134OSM    H6S14504   3.915  -0.528   6.642  0.4399  0.2098  0.7870
  134OSM    H6T14505   3.734  -0.542   6.629  0.5017 -0.7198 -0.5085
  134OSM    C7S14506   3.804  -0.453   6.815  0.2081 -0.3017 -0.0129
  134OSM    H7S14507   3.794  -0.558   6.849  0.2732 -0.5930 -0.8596
  134OSM    H7T14508   3.706  -0.403   6.828  0.3791  0.7984 -2.5276
  134OSM    C8S14509   3.919  -0.388   6.880 -0.0789  0.0266 -0.7934
  134OSM    H8S14510   3.942  -0.290   6.834  1.5050 -0.3969 -0.9525
  134OSM    H8T14511   4.006  -0.454   6.858  1.2841  0.9626  1.5643
  134OSM    C9S14512   3.915  -0.391   7.034  0.4111  0.2406 -0.6426
  134OSM    H9S14513   4.011  -0.353   7.074  0.5731 -1.8439  1.0124
  134OSM    H9T14514   3.904  -0.494   7.073  3.4556 -0.6722 -2.1154
  134OSM   C10S14515   3.797  -0.299   7.089  0.2876  0.5431 -0.0403
  134OSM   H10S14516   3.700  -0.352   7.092  0.9468 -0.6158  1.3955
  134OSM   H10T14517   3.786  -0.216   7.016  1.3138  1.6347  1.0330
  134OSM   C11S14518   3.816  -0.242   7.234 -0.2310 -0.1099  0.4712
  134OSM   H11S14519   3.725  -0.181   7.253 -0.8891 -0.7726 -0.5242
  134OSM   H11T14520   3.907  -0.179   7.240  0.5341 -1.1102 -0.3124
  134OSM   C12S14521   3.834  -0.368   7.324  0.0412  0.5875  0.2899
  134OSM   H12S14522   3.930  -0.422   7.312 -0.1012  0.0777  1.4243
  134OSM   H12T14523   3.760  -0.448   7.303  0.2290  0.5554 -0.2556
  134OSM   C13S14524   3.817  -0.314   7.472 -0.9611 -0.2197  0.1733
  134OSM   H13S14525   3.720  -0.264   7.494 -0.2466  1.0323  0.4827
  134OSM   H13T14526   3.894  -0.235   7.480 -0.1874 -1.0120  0.6798
  134OSM   C14S14527   3.830  -0.425   7.585 -0.4732 -0.3324  0.1586
  134OSM   H14S14528   3.939  -0.450   7.587  0.1461  2.2311 -0.6324
  134OSM   H14T14529   3.784  -0.522   7.557  0.5547 -1.0071  0.7631
  134OSM   C15S14530   3.760  -0.384   7.721  0.5740 -0.0771 -0.1328
  134OSM   H15S14531   3.721  -0.479   7.763 -2.3694  1.5557  0.8977
  134OSM   H15T14532   3.670  -0.326   7.693 -1.8091 -4.4200 -2.0886
  134OSM   C16S14533   3.852  -0.297   7.814 -0.7523  0.3742 -0.3395
  134OSM   H16S14534   3.788  -0.226   7.870 -1.0681 -0.1821  0.0137
  134OSM   H16T14535   3.915  -0.227   7.756 -0.3680 -0.0426 -0.4235
  134OSM   C17S14536   3.935  -0.387   7.904 -0.0467  0.5400  0.1393
  134OSM   H17S14537   4.001  -0.454   7.846  0.2973  0.0333  1.1169
  134OSM   H17T14538   3.872  -0.452   7.969  1.6339 -0.8854  0.3585
  134OSM   C18S14539   4.020  -0.304   8.005  0.1736  0.4339 -0.1251
  134OSM   H18S14540   4.102  -0.245   7.960  0.3630 -0.4288 -0.9277
  134OSM   H18T14541   4.062  -0.386   8.067  1.9730  1.0587 -0.5017
  134OSM   H18U14542   3.947  -0.244   8.063 -1.9110 -3.7228  1.7856
  134OSM    C1F14543   3.602   0.058   6.820 -0.6279 -0.8454 -0.6391
  134OSM     OF14544   3.492   0.098   6.786  0.3694 -0.4809  0.0540
  134OSM    C2F14545   3.659   0.081   6.960 -0.2768 -0.3867  0.7028
  134OSM    H2F14546   3.739   0.158   6.958 -1.1109  0.5546  2.2631
  134OSM    H2G14547   3.705  -0.017   6.986 -0.0304 -0.5784 -0.4552
  134OSM    C3F14548   3.552   0.127   7.061 -0.2537 -0.1938  0.8600
  134OSM    H3F14549   3.456   0.070   7.052 -2.2619  2.7554  2.8780
  134OSM    H3G14550   3.539   0.236   7.046  0.1233  0.0486  2.2907
  134OSM    C4F14551   3.584   0.118   7.208  0.0304  0.3886  0.3175
  134OSM    H4F14552   3.672   0.178   7.239 -0.4970  1.1658  0.3372
  134OSM    H4G14553   3.621   0.017   7.237  0.3869  0.3536 -0.2599
  134OSM    C5F14554   3.474   0.146   7.305  0.3498  0.1362 -0.3891
  134OSM    H5F14555   3.387   0.085   7.272  2.2485 -1.9462 -1.6504
  134OSM    H5G14556   3.444   0.252   7.290  3.5538  0.7763 -2.8346
  134OSM    C6F14557   3.512   0.115   7.447  0.1699 -0.0916  0.2105
  134OSM    H6F14558   3.605   0.175   7.457  1.7329 -1.8893 -2.8971
  134OSM    H6G14559   3.552   0.012   7.457  1.5841  0.3770 -0.4754
  134OSM    C7F14560   3.405   0.144   7.558  0.4761 -0.1032  0.1626
  134OSM    H7F14561   3.333   0.059   7.559  1.1510 -0.6760  1.5808
  134OSM    H7G14562   3.347   0.232   7.520 -0.8967 -1.4755 -0.9918
  134OSM    C8F14563   3.457   0.179   7.697 -0.3854  0.2966 -1.0631
  134OSM    H8F14564   3.368   0.201   7.761  1.8131  3.2815  1.0890
  134OSM    H8G14565   3.530   0.262   7.698  0.0353 -0.0756 -0.4906
  134OSM    C9F14566   3.515   0.059   7.773  1.1448  0.1306  0.2283
  134OSM    H9F14567   3.524  -0.028   7.707 -0.0141  0.8038 -0.8383
  134OSM   C10F14568   3.543   0.045   7.904  0.6363 -0.1637  1.3167
  134OSM   H10F14569   3.573  -0.057   7.932  1.1005 -0.3799  0.1084
  134OSM   C11F14570   3.538   0.158   8.007  0.5821 -0.3497 -0.0122
  134OSM   H11F14571   3.539   0.257   7.957  2.0584 -0.3929 -0.0854
  134OSM   H11G14572   3.631   0.161   8.068  0.5773  2.0572 -0.0766
  134OSM   C12F14573   3.413   0.148   8.095  0.6303  0.0129 -0.1001
  134OSM   H12F14574   3.405   0.044   8.133  2.0749 -0.5547 -1.2966
  134OSM   H12G14575   3.329   0.174   8.028  0.3804 -1.2990 -0.3027
  134OSM   C13F14576   3.411   0.240   8.215 -0.1136 -0.2740 -0.3891
  134OSM   H13F14577   3.420   0.347   8.188 -0.4134  0.1364  1.0796
  134OSM   H13G14578   3.501   0.229   8.278 -0.9223 -0.5788  0.7249
  134OSM   C14F14579   3.292   0.217   8.307 -0.1039 -0.0491  0.7359
  134OSM   H14F14580   3.277   0.107   8.313  1.6571 -0.4468 -1.6024
  134OSM   H14G14581   3.202   0.253   8.254  1.1265  1.6193 -0.2597
  134OSM   C15F14582   3.313   0.275   8.446  0.3046  0.2216  0.4548
  134OSM   H15F14583   3.292   0.384   8.450 -0.4490  0.0470  1.3209
  134OSM   H15G14584   3.419   0.286   8.478  1.0855 -1.3821 -1.4939
  134OSM   C16F14585   3.234   0.201   8.555  0.4599  0.3926 -0.3151
  134OSM   H16F14586   3.139   0.158   8.517  1.3519 -1.1474 -0.8204
  134OSM   H16G14587   3.209   0.260   8.646 -2.5971  1.5449 -1.8091
  134OSM   C17F14588   3.294   0.065   8.597 -0.2683  0.3980 -0.1511
  134OSM   H17F14589   3.386   0.076   8.658 -0.7133  0.9371  0.4343
  134OSM   H17G14590   3.329   0.013   8.506  1.2713  2.7837 -0.9480
  134OSM   C18F14591   3.191  -0.025   8.678  0.1829  0.0644 -0.7639
  134OSM   H18F14592   3.244  -0.119   8.708  0.8127 -0.5193 -3.5322
  134OSM   H18G14593   3.120  -0.074   8.608 -1.4035 -2.0621  2.2069
  134OSM   H18H14594   3.148   0.035   8.761  0.2484 -1.0126  0.0752
  135OSM      N14595   3.303   0.099   6.057 -0.1267 -0.0797 -0.4762
  135OSM    C1514596   3.367   0.158   5.936 -0.1307 -0.0044 -0.1830
  135OSM   H15A14597   3.312   0.247   5.907  3.0205  2.4924  1.1706
  135OSM   H15B14598   3.367   0.099   5.846  2.4838 -2.9778  1.6547
  135OSM   H15C14599   3.464   0.195   5.966 -0.0680 -0.5055  0.2261
  135OSM    C1414600   3.164   0.048   6.026 -0.1053  0.4629  0.4600
  135OSM   H14A14601   3.094   0.127   6.008 -0.1421  0.6460  1.3654
  135OSM   H14B14602   3.128  -0.012   6.108  0.3260 -0.8602 -0.3075
  135OSM   H14C14603   3.171  -0.020   5.942  0.8424 -0.3718  1.1964
  135OSM    C1314604   3.394  -0.018   6.090 -0.2275 -0.0253  0.9931
  135OSM   H13A14605   3.496   0.016   6.087  0.6316 -2.5747 -0.4594
  135OSM   H13B14606   3.380  -0.092   6.012  2.3038 -0.5219  0.9600
  135OSM   H13C14607   3.380  -0.062   6.187 -1.6219 -0.4592  0.6044
  135OSM    C1214608   3.314   0.204   6.165 -0.6765  0.0695 -0.4837
  135OSM   H12A14609   3.418   0.210   6.194 -1.1962 -2.9062  2.2202
  135OSM   H12B14610   3.256   0.159   6.244  0.2878  0.5961  0.5296
  135OSM    C1114611   3.267   0.350   6.141 -0.4867 -0.0970  0.3331
  135OSM   H11A14612   3.285   0.375   6.034 -1.0727 -2.2630 -0.3002
  135OSM   H11B14613   3.323   0.413   6.213  0.4286  0.0226 -0.4688
  135OSM      P14614   3.060   0.358   6.305 -0.2307 -0.1864 -0.3347
  135OSM    O1314615   3.062   0.496   6.357 -0.3920 -0.3441 -0.0465
  135OSM    O1414616   2.927   0.288   6.294  0.2678  0.4051  0.5705
  135OSM    O1114617   3.140   0.262   6.408 -0.0252  0.1006 -1.0440
  135OSM    O1214618   3.129   0.349   6.166 -0.2355  0.3594 -0.0556
  135OSM    C1S14619   3.252   0.292   6.493  0.0162  0.0008  0.0203
  135OSM    H1S14620   3.286   0.397   6.487  0.7191  0.0257  3.2666
  135OSM    H1T14621   3.344   0.235   6.467  0.6093  0.2888  1.4036
  135OSM     NF14622   3.351   0.316   6.712 -0.0532 -0.2011 -0.0588
  135OSM    HNF14623   3.404   0.236   6.738 -1.1912 -2.1208 -3.2816
  135OSM    C2S14624   3.231   0.275   6.649  0.7513 -0.2953 -0.4747
  135OSM    H2S14625   3.148   0.340   6.686  0.4936 -0.7326 -0.2819
  135OSM    C3S14626   3.197   0.126   6.669 -0.7463 -0.3413 -0.3811
  135OSM    H3S14627   3.279   0.057   6.636 -0.6874 -0.1214 -0.6961
  135OSM     O314628   3.090   0.065   6.589 -0.3107 -0.0182  0.0432
  135OSM    HO314629   3.082   0.134   6.524  0.4850  1.0724  1.0660
  135OSM    C4S14630   3.174   0.101   6.819 -0.2506  0.9903  0.3995
  135OSM    H4S14631   3.262   0.136   6.876  0.2286  0.5289 -0.0437
  135OSM    C5S14632   3.061   0.051   6.875 -0.4352  0.1866 -0.8078
  135OSM    H5S14633   2.983   0.013   6.807 -1.7641  1.0251  0.2289
  135OSM    C6S14634   3.028   0.036   7.022  0.5969 -0.1421 -0.1631
  135OSM    H6S14635   2.990  -0.067   7.032 -2.8945  1.1702  0.9147
  135OSM    H6T14636   2.957   0.110   7.065  1.8773  0.0338  1.6861
  135OSM    C7S14637   3.156   0.032   7.112  1.1996  0.3292 -0.5259
  135OSM    H7S14638   3.182   0.139   7.126 -0.7193  0.9049 -1.2101
  135OSM    H7T14639   3.245  -0.015   7.064  1.0217 -1.2904  0.6863
  135OSM    C8S14640   3.135  -0.026   7.250  0.1913  0.1800  0.2525
  135OSM    H8S14641   3.230  -0.056   7.300 -0.1290 -0.9095  0.2205
  135OSM    H8T14642   3.081  -0.123   7.246 -1.4438  1.0010  1.7479
  135OSM    C9S14643   3.061   0.067   7.342 -0.2315 -0.3050 -0.3429
  135OSM    H9S14644   2.982   0.126   7.291 -0.2058  0.8688  0.9602
  135OSM    H9T14645   3.138   0.145   7.360 -0.6142 -0.1537  0.6495
  135OSM   C10S14646   3.028  -0.003   7.478 -0.1902 -0.4156 -0.7535
  135OSM   H10S14647   3.108  -0.078   7.500 -1.9340 -2.1851 -0.3115
  135OSM   H10T14648   2.934  -0.061   7.471 -1.8364  1.7556  2.1983
  135OSM   C11S14649   3.025   0.109   7.586 -0.2034  0.2373  0.2782
  135OSM   H11S14650   2.929   0.160   7.565  0.5842  2.4514  1.8612
  135OSM   H11T14651   3.113   0.176   7.575  0.4751 -0.7038 -0.1372
  135OSM   C12S14652   3.031   0.048   7.723 -0.0060  0.1544 -0.3241
  135OSM   H12S14653   3.114  -0.026   7.729 -1.7252 -1.6912  1.8417
  135OSM   H12T14654   2.942  -0.015   7.744 -0.3656  1.3688  1.9483
  135OSM   C13S14655   3.047   0.151   7.830 -0.0765  0.0202  0.5331
  135OSM   H13S14656   2.957   0.216   7.826  0.9684  1.4080 -1.3542
  135OSM   H13T14657   3.127   0.223   7.800 -0.7476 -0.3344 -2.3287
  135OSM   C14S14658   3.050   0.089   7.969  0.0889 -0.0469  0.2724
  135OSM   H14S14659   3.088   0.168   8.038  0.5428  0.8582 -0.9860
  135OSM   H14T14660   3.142   0.027   7.956 -0.4896 -0.9126  0.3180
  135OSM   C15S14661   2.927   0.041   8.043 -0.1601 -0.0562 -0.3071
  135OSM   H15S14662   2.888  -0.048   7.989  1.8085 -0.6876 -0.7472
  135OSM   H15T14663   2.845   0.116   8.038  0.8736  1.2455  1.6268
  135OSM   C16S14664   2.952  -0.013   8.183  0.2849  0.1470  0.3555
  135OSM   H16S14665   2.849  -0.033   8.221 -0.4789  1.3211 -1.0265
  135OSM   H16T14666   2.995   0.072   8.240 -0.9073  2.0341 -1.4814
  135OSM   C17S14667   3.035  -0.142   8.188  0.1771  0.0523 -0.7580
  135OSM   H17S14668   3.133  -0.101   8.154  0.7012  0.8200  1.5759
  135OSM   H17T14669   2.989  -0.210   8.113  1.4343  0.3558 -1.8266
  135OSM   C18S14670   3.055  -0.203   8.323  0.3328  0.1465  0.9017
  135OSM   H18S14671   3.103  -0.128   8.389 -0.0244  2.0213 -0.9025
  135OSM   H18T14672   3.122  -0.290   8.309 -1.3955 -1.0507 -0.1377
  135OSM   H18U14673   2.959  -0.237   8.368 -0.6221  1.2443 -0.2362
  135OSM    C1F14674   3.398   0.439   6.731 -0.4726  0.3425  0.3843
  135OSM     OF14675   3.353   0.538   6.672 -0.5339  0.3647 -0.3272
  135OSM    C2F14676   3.529   0.450   6.811 -0.0857  0.4326  0.7314
  135OSM    H2F14677   3.596   0.520   6.757  0.1605  1.7913  2.7502
  135OSM    H2G14678   3.569   0.346   6.812  0.8400  0.7819  0.3135
  135OSM    C3F14679   3.490   0.510   6.950 -0.2179 -0.7075 -0.2914
  135OSM    H3F14680   3.417   0.439   6.994 -1.6434  0.3169 -0.9772
  135OSM    H3G14681   3.432   0.602   6.926 -0.8783 -1.3830 -1.3342
  135OSM    C4F14682   3.612   0.538   7.041  0.5975  1.2255 -0.0129
  135OSM    H4F14683   3.692   0.596   6.990 -0.6348  2.8282 -0.1467
  135OSM    H4G14684   3.656   0.437   7.058  2.0725  1.5393 -1.8175
  135OSM    C5F14685   3.577   0.612   7.170  0.8934  0.1167  0.2021
  135OSM    H5F14686   3.489   0.567   7.221  2.6440 -1.5008  1.8369
  135OSM    H5G14687   3.542   0.711   7.133  1.8353  0.5591  0.4672
  135OSM    C6F14688   3.688   0.623   7.276  0.5017 -0.0408 -0.0473
  135OSM    H6F14689   3.787   0.655   7.239  0.3510  1.4580  0.7617
  135OSM    H6G14690   3.699   0.525   7.326 -1.2455 -0.9231 -1.3459
  135OSM    C7F14691   3.632   0.717   7.379 -0.3680 -0.0261 -0.8419
  135OSM    H7F14692   3.538   0.668   7.410 -0.2597 -0.2060 -0.8003
  135OSM    H7G14693   3.619   0.822   7.345  0.6622  1.1725  2.2059
  135OSM    C8F14694   3.717   0.723   7.515 -0.0863  0.7433  0.1696
  135OSM    H8F14695   3.827   0.722   7.498  0.3248 -2.6170  2.4371
  135OSM    H8G14696   3.704   0.626   7.568 -2.8320 -0.8324 -3.1853
  135OSM    C9F14697   3.668   0.835   7.600  0.2323 -0.6062 -0.2267
  135OSM    H9F14698   3.646   0.928   7.546  0.9078 -0.2653  0.0815
  135OSM   C10F14699   3.653   0.833   7.732  0.0156 -0.7122  0.0422
  135OSM   H10F14700   3.597   0.924   7.758  0.9845 -0.0065 -0.3122
  135OSM   C11F14701   3.667   0.712   7.824 -0.6614 -0.1906 -0.0348
  135OSM   H11F14702   3.766   0.662   7.819 -0.5476  0.1705 -1.5097
  135OSM   H11G14703   3.589   0.636   7.800 -0.6103 -0.0361 -0.6903
  135OSM   C12F14704   3.641   0.745   7.971  0.9490  0.2365  0.1329
  135OSM   H12F14705   3.552   0.810   7.971  1.4621  0.9418  0.4583
  135OSM   H12G14706   3.729   0.804   8.004  1.9036 -0.9407 -0.2536
  135OSM   C13F14707   3.637   0.619   8.058  0.3898  0.1202  0.0094
  135OSM   H13F14708   3.720   0.553   8.024  0.3344 -0.5026  1.0579
  135OSM   H13G14709   3.539   0.566   8.055  1.0199 -0.9903 -2.3354
  135OSM   C14F14710   3.669   0.655   8.201  0.0891 -0.4314  0.4617
  135OSM   H14F14711   3.607   0.741   8.234  1.4433  0.3747  0.9419
  135OSM   H14G14712   3.769   0.702   8.210 -0.2514 -0.1479  3.1798
  135OSM   C15F14713   3.654   0.543   8.297  0.2181  0.0530  0.2457
  135OSM   H15F14714   3.746   0.481   8.302 -0.9238 -1.6138  1.0935
  135OSM   H15G14715   3.566   0.479   8.274  0.2683  0.2977 -0.6725
  135OSM   C16F14716   3.638   0.601   8.444 -0.8096 -0.4814 -0.0375
  135OSM   H16F14717   3.531   0.596   8.473  0.0785 -4.5444  3.0370
  135OSM   H16G14718   3.676   0.705   8.452 -0.2987 -0.6024 -0.8123
  135OSM   C17F14719   3.716   0.529   8.553  0.3396  0.0206  0.2826
  135OSM   H17F14720   3.699   0.419   8.543 -0.2180 -0.0933  2.3834
  135OSM   H17G14721   3.667   0.553   8.649  0.1558  0.2277  0.1382
  135OSM   C18F14722   3.865   0.569   8.564 -1.1093  0.2342 -0.6287
  135OSM   H18F14723   3.890   0.677   8.553 -1.4178  0.5781  1.6481
  135OSM   H18G14724   3.933   0.521   8.490  1.3457  0.7706  1.2159
  135OSM   H18H14725   3.902   0.548   8.667  2.4468  1.6818 -1.5511
  136OSM      N14726   2.061   0.605   5.979 -0.2474 -0.1233 -0.1775
  136OSM    C1514727   2.021   0.533   5.856 -0.5780  0.0688  0.0018
  136OSM   H15A14728   1.944   0.461   5.881 -0.4760  0.0587  0.2912
  136OSM   H15B14729   2.109   0.489   5.813 -0.3450  0.6623 -0.1366
  136OSM   H15C14730   1.997   0.605   5.779 -0.7882  0.0273  0.0270
  136OSM    C1414731   2.107   0.511   6.091  0.6848 -0.5104  0.4318
  136OSM   H14A14732   2.115   0.557   6.188 -0.5439  2.1417 -0.6782
  136OSM   H14B14733   2.205   0.470   6.075  0.5457  0.2560 -2.6270
  136OSM   H14C14734   2.034   0.432   6.103 -0.7136  0.5466 -0.8667
  136OSM    C1314735   2.168   0.700   5.948  0.5600 -0.2018  0.1165
  136OSM   H13A14736   2.189   0.752   6.040  2.9963  0.4256 -0.7699
  136OSM   H13B14737   2.139   0.775   5.876 -1.7941 -0.2041  1.0100
  136OSM   H13C14738   2.251   0.641   5.911  2.7145  3.1957 -0.6514
  136OSM    C1214739   1.933   0.682   6.036 -0.1160 -0.3148  0.7143
  136OSM   H12A14740   1.863   0.604   6.060 -0.5183 -0.7080 -1.5732
  136OSM   H12B14741   1.900   0.742   5.952  0.4866 -1.4556 -0.3415
  136OSM    C1114742   1.945   0.768   6.163 -0.1823  0.3100 -0.5673
  136OSM   H11A14743   2.007   0.719   6.241  1.7963  0.0065 -2.2926
  136OSM   H11B14744   1.847   0.774   6.215  0.3475  1.0749  0.3581
  136OSM      P14745   1.912   1.023   6.137 -0.3228 -0.0308 -0.0372
  136OSM    O1314746   1.998   1.140   6.099 -0.6577 -0.2523 -0.4233
  136OSM    O1414747   1.799   0.994   6.047 -0.5540 -0.0742  0.2557
  136OSM    O1114748   1.865   1.029   6.288  0.2123  0.8517 -0.4007
  136OSM    O1214749   2.004   0.897   6.131 -0.3731  0.3469  0.2727
  136OSM    C1S14750   1.759   1.122   6.305 -0.4108 -0.1746 -0.5728
  136OSM    H1S14751   1.667   1.073   6.269  0.5348 -1.9564 -0.5876
  136OSM    H1T14752   1.773   1.211   6.240 -0.2533  0.3919  0.2150
  136OSM     NF14753   1.625   1.232   6.483 -0.0796  0.8482 -0.0746
  136OSM    HNF14754   1.618   1.330   6.498  2.9984  0.8776  1.6430
  136OSM    C2S14755   1.751   1.172   6.452  0.8650 -0.2044  0.0346
  136OSM    H2S14756   1.763   1.089   6.524  1.9778 -1.5837 -1.6902
  136OSM    C3S14757   1.871   1.268   6.485 -0.6876 -0.6611  0.2447
  136OSM    H3S14758   1.855   1.364   6.432  0.4259  0.4877  1.9242
  136OSM     O314759   2.002   1.219   6.440  0.9662  0.1880 -0.4236
  136OSM    HO314760   1.979   1.159   6.368  2.9670 -1.5294  0.3122
  136OSM    C4S14761   1.861   1.315   6.637 -0.0212  0.6746 -0.6527
  136OSM    H4S14762   1.903   1.245   6.710 -0.9623  1.4375  0.6476
  136OSM    C5S14763   1.813   1.430   6.682  0.0320  0.6248 -0.1740
  136OSM    H5S14764   1.792   1.514   6.614  0.6150  1.5002  0.7095
  136OSM    C6S14765   1.808   1.477   6.821 -0.3807  0.1096  0.7251
  136OSM    H6S14766   1.701   1.497   6.841 -0.7196  0.3510 -1.2818
  136OSM    H6T14767   1.864   1.572   6.835  1.7271 -1.3026  2.1750
  136OSM    C7S14768   1.864   1.388   6.927 -0.2535 -0.2062 -0.2472
  136OSM    H7S14769   1.973   1.370   6.916 -0.0707 -0.3006  1.5670
  136OSM    H7T14770   1.797   1.300   6.926 -1.9157  1.0394 -0.0753
  136OSM    C8S14771   1.843   1.463   7.060  0.4750 -0.0349  0.0667
  136OSM    H8S14772   1.736   1.487   7.076  0.2840  0.0886 -1.4056
  136OSM    H8T14773   1.895   1.561   7.047 -0.6367  0.7310  1.3170
  136OSM    C9S14774   1.903   1.409   7.186 -0.6466 -0.1542 -0.0522
  136OSM    H9S14775   2.013   1.404   7.167 -0.6389 -3.5946  0.5254
  136OSM    H9T14776   1.877   1.302   7.202 -2.8230  0.3633  0.0191
  136OSM   C10S14777   1.883   1.494   7.315 -0.1499  0.5079 -0.8340
  136OSM   H10S14778   1.774   1.492   7.338  0.2420 -2.4993  1.0468
  136OSM   H10T14779   1.909   1.602   7.306 -0.8673  0.8686  1.1136
  136OSM   C11S14780   1.970   1.438   7.430  0.2698  0.2934 -0.1694
  136OSM   H11S14781   2.075   1.438   7.393 -0.3671  1.0554 -2.0577
  136OSM   H11T14782   1.944   1.330   7.439  1.2812 -0.0711 -1.4636
  136OSM   C12S14783   1.948   1.507   7.565  0.7170 -0.5460  0.0292
  136OSM   H12S14784   1.846   1.479   7.600 -0.1311  1.0377 -1.0862
  136OSM   H12T14785   1.943   1.615   7.539 -0.3136 -0.7871 -0.8442
  136OSM   C13S14786   2.043   1.485   7.682 -0.3939 -1.0290 -0.0638
  136OSM   H13S14787   2.046   1.378   7.711  4.1973 -0.9096  0.2962
  136OSM   H13T14788   2.000   1.540   7.769 -0.8797 -1.8060  0.1900
  136OSM   C14S14789   2.183   1.539   7.648 -0.0452  0.2169  0.8562
  136OSM   H14S14790   2.221   1.479   7.562 -1.7576 -0.0774  0.2887
  136OSM   H14T14791   2.252   1.507   7.729  1.1214 -0.2733 -0.3099
  136OSM   C15S14792   2.185   1.689   7.633  0.3991 -0.3251 -0.7503
  136OSM   H15S14793   2.129   1.723   7.544 -2.5279  0.3046  1.2806
  136OSM   H15T14794   2.292   1.716   7.616 -0.3309  1.2564 -3.0008
  136OSM   C16S14795   2.129   1.771   7.754 -0.2138 -0.0931 -0.8829
  136OSM   H16S14796   2.026   1.737   7.777 -0.0579 -0.3549 -0.5788
  136OSM   H16T14797   2.122   1.876   7.719 -0.2445 -0.1900 -1.1720
  136OSM   C17S14798   2.214   1.767   7.882  0.3658  0.7285 -0.6718
  136OSM   H17S14799   2.302   1.701   7.871 -1.1002 -1.5393  0.6483
  136OSM   H17T14800   2.154   1.716   7.961  1.3399  0.2168 -0.2564
  136OSM   C18S14801   2.256   1.899   7.934  0.0414 -0.1166 -0.0434
  136OSM   H18S14802   2.316   1.957   7.861 -2.2144  0.8328 -1.1759
  136OSM   H18T14803   2.307   1.882   8.032  0.3640 -2.9246 -0.6664
  136OSM   H18U14804   2.154   1.938   7.955  0.2700  0.5837 -0.2289
  136OSM    C1F14805   1.506   1.170   6.490 -0.8540  0.4311 -0.0556
  136OSM     OF14806   1.504   1.049   6.477  0.0275  0.6648 -0.2438
  136OSM    C2F14807   1.401   1.262   6.529  0.4331  0.8341 -0.9600
  136OSM    H2F14808   1.350   1.302   6.439  2.4250 -0.6637 -2.8023
  136OSM    H2G14809   1.438   1.356   6.577  0.3034  0.9509 -1.0885
  136OSM    C3F14810   1.302   1.193   6.629 -0.0126 -0.1032 -0.6898
  136OSM    H3F14811   1.239   1.117   6.579 -1.3540  0.6577 -0.1696
  136OSM    H3G14812   1.243   1.280   6.664  1.5027  1.2323 -1.3924
  136OSM    C4F14813   1.360   1.136   6.757 -0.3615  0.9289  0.1134
  136OSM    H4F14814   1.408   1.037   6.737  1.7611  1.6247  1.5746
  136OSM    H4G14815   1.281   1.115   6.832 -0.4631  0.2891 -0.1700
  136OSM    C5F14816   1.468   1.223   6.816  0.0356 -0.5548 -0.2799
  136OSM    H5F14817   1.456   1.329   6.783  0.6875 -0.1637  0.7176
  136OSM    H5G14818   1.556   1.171   6.774 -0.1443 -0.6305 -0.5662
  136OSM    C6F14819   1.475   1.226   6.967 -0.0980  0.5290 -0.9859
  136OSM    H6F14820   1.375   1.237   7.015 -0.8761 -0.0790 -2.4164
  136OSM    H6G14821   1.534   1.313   7.002  1.0120 -1.4954  2.4185
  136OSM    C7F14822   1.541   1.093   7.018 -0.1622 -0.3684 -0.2927
  136OSM    H7F14823   1.639   1.115   6.971  0.2579  0.3835  0.9183
  136OSM    H7G14824   1.490   1.002   6.979 -0.3827 -0.0989 -0.6395
  136OSM    C8F14825   1.555   1.087   7.173  0.2983 -0.8603  0.6674
  136OSM    H8F14826   1.456   1.060   7.218 -0.7466  1.8259  0.0563
  136OSM    H8G14827   1.581   1.185   7.219 -1.7634 -0.7987  1.8125
  136OSM    C9F14828   1.657   0.985   7.213  0.1219 -0.6375  0.1165
  136OSM    H9F14829   1.685   0.929   7.122  1.3799 -0.4102  0.3581
  136OSM   C10F14830   1.715   0.963   7.334  0.1957  0.1136  1.3363
  136OSM   H10F14831   1.797   0.890   7.344  0.7295  0.5075 -0.0231
  136OSM   C11F14832   1.693   1.041   7.462 -0.0751 -0.4146 -0.1985
  136OSM   H11F14833   1.587   1.054   7.491  0.8281  2.8537  1.8566
  136OSM   H11G14834   1.718   1.148   7.447 -1.2678  0.2741  2.3739
  136OSM   C12F14835   1.788   0.999   7.574 -0.4900 -0.7639 -0.2571
  136OSM   H12F14836   1.894   1.001   7.542  0.5285  0.7655  2.9880
  136OSM   H12G14837   1.771   0.900   7.622 -1.9568  0.2648  1.4315
  136OSM   C13F14838   1.765   1.115   7.675  0.1908  0.0851 -0.3670
  136OSM   H13F14839   1.657   1.140   7.676  0.1151 -0.0738 -2.5369
  136OSM   H13G14840   1.817   1.205   7.638 -2.3418  2.0553  0.7339
  136OSM   C14F14841   1.806   1.078   7.818  0.4174  0.0052  0.2249
  136OSM   H14F14842   1.746   0.988   7.842  3.0969 -1.9644 -0.3696
  136OSM   H14G14843   1.777   1.154   7.895  0.1417 -1.2207  1.3481
  136OSM   C15F14844   1.956   1.059   7.849 -1.6053  0.4686  0.6036
  136OSM   H15F14845   2.013   1.119   7.775  1.4634 -1.3883  1.3400
  136OSM   H15G14846   1.976   0.951   7.832  0.0923  0.9879 -0.8280
  136OSM   C16F14847   2.003   1.085   7.995 -0.0039  0.4005 -0.6826
  136OSM   H16F14848   2.079   1.021   8.044 -1.6838 -1.2051 -0.1017
  136OSM   H16G14849   1.917   1.082   8.065 -2.1079  0.6720 -3.1924
  136OSM   C17F14850   2.042   1.233   8.010  0.4485 -0.2261 -0.0635
  136OSM   H17F14851   1.962   1.293   7.961 -0.6377  1.6587  3.8386
  136OSM   H17G14852   2.138   1.238   7.953  0.9257  0.7004  0.8171
  136OSM   C18F14853   2.068   1.287   8.154  0.2501  0.3134 -0.1348
  136OSM   H18F14854   2.144   1.239   8.219  2.3216  0.6719 -2.2468
  136OSM   H18G14855   1.980   1.291   8.221  0.5201  0.7571  0.1992
  136OSM   H18H14856   2.103   1.391   8.134  1.3115  0.2534  1.3569
  137OSM      N14857   4.695   5.345   6.137  0.1810 -0.0922 -0.2356
  137OSM    C1514858   4.605   5.273   6.035  0.1024 -0.2356  0.3689
  137OSM   H15A14859   4.524   5.338   6.004 -0.5877 -0.6332  1.3395
  137OSM   H15B14860   4.549   5.190   6.075  1.6898 -1.8267 -0.6418
  137OSM   H15C14861   4.666   5.265   5.946  2.9924 -0.7695  2.3550
  137OSM    C1414862   4.800   5.245   6.169 -0.0308  0.6572 -0.1444
  137OSM   H14A14863   4.872   5.236   6.090 -0.7912 -0.1422 -0.7532
  137OSM   H14B14864   4.760   5.147   6.189  0.1876  0.1868 -1.9966
  137OSM   H14C14865   4.849   5.284   6.257 -2.6837 -1.2946  2.2961
  137OSM    C1314866   4.753   5.463   6.074 -0.1654  0.1240  0.3456
  137OSM   H13A14867   4.693   5.551   6.057  0.1663  0.2951  0.0668
  137OSM   H13B14868   4.779   5.433   5.974  1.2746 -0.1181  0.7918
  137OSM   H13C14869   4.842   5.485   6.132 -0.5182 -1.3088  1.4475
  137OSM    C1214870   4.614   5.390   6.264  0.3165  0.0812 -1.2029
  137OSM   H12A14871   4.572   5.300   6.307 -0.6265  1.2094  0.3100
  137OSM   H12B14872   4.529   5.453   6.242 -1.9690 -2.9265 -1.2935
  137OSM    C1114873   4.685   5.455   6.387  0.1186 -0.2062  0.5322
  137OSM   H11A14874   4.776   5.395   6.409  1.9300  1.4298 -2.2553
  137OSM   H11B14875   4.614   5.461   6.473  1.9404 -0.8391  2.1137
  137OSM      P14876   4.623   5.706   6.340 -0.8004  0.0220  0.3079
  137OSM    O1314877   4.690   5.836   6.309  0.7210 -0.1012 -0.2226
  137OSM    O1414878   4.523   5.665   6.244  0.7174 -0.0738  0.2072
  137OSM    O1114879   4.567   5.710   6.489  0.1280 -0.2752  0.1991
  137OSM    O1214880   4.730   5.589   6.356  0.5181  0.0074  0.5479
  137OSM    C1S14881   4.657   5.753   6.593  1.0006  0.7348 -0.2528
  137OSM    H1S14882   4.707   5.850   6.573  2.1952  0.2794  0.4805
  137OSM    H1T14883   4.741   5.684   6.617  0.7320  0.9871  1.4632
  137OSM     NF14884   4.671   5.860   6.817  0.4401 -0.2679 -0.3358
  137OSM    HNF14885   4.743   5.815   6.869  0.4091 -0.2019 -0.2368
  137OSM    C2S14886   4.592   5.777   6.730 -0.1431 -0.2481 -0.0118
  137OSM    H2S14887   4.495   5.827   6.708  0.4719  0.2868 -1.6222
  137OSM    C3S14888   4.564   5.635   6.787  0.4838 -0.0853  0.1445
  137OSM    H3S14889   4.659   5.585   6.816  0.1296  0.4435  2.2907
  137OSM     O314890   4.504   5.537   6.697 -0.5098 -0.1743 -0.2185
  137OSM    HO314891   4.484   5.595   6.624  1.8750  1.7998  0.6244
  137OSM    C4S14892   4.488   5.632   6.918 -0.1386 -0.0701 -0.2530
  137OSM    H4S14893   4.558   5.642   7.002  0.3009  0.5542 -0.6829
  137OSM    C5S14894   4.361   5.609   6.942  0.0362  0.1965  0.1045
  137OSM    H5S14895   4.296   5.585   6.857  1.1726  0.9263 -0.9787
  137OSM    C6S14896   4.289   5.614   7.077 -0.4571 -0.4237 -0.7803
  137OSM    H6S14897   4.248   5.513   7.098  0.5181 -0.3154  1.7096
  137OSM    H6T14898   4.200   5.678   7.060  0.3624  1.4415  1.6544
  137OSM    C7S14899   4.371   5.671   7.191  0.2660  0.2839  0.3425
  137OSM    H7S14900   4.390   5.781   7.184  0.6997  0.2560  1.0306
  137OSM    H7T14901   4.470   5.622   7.199  0.9245  1.4052 -0.7565
  137OSM    C8S14902   4.307   5.640   7.328 -0.0734  0.5268  0.4885
  137OSM    H8S14903   4.282   5.531   7.328 -0.8043  0.6856  1.0151
  137OSM    H8T14904   4.220   5.709   7.333  1.5837  2.7617 -0.7121
  137OSM    C9S14905   4.404   5.667   7.444 -0.3589  0.4403 -0.1658
  137OSM    H9S14906   4.461   5.761   7.429 -1.4386  0.9603 -1.0509
  137OSM    H9T14907   4.486   5.592   7.443  1.4006  2.3218 -1.2864
  137OSM   C10S14908   4.340   5.670   7.581  0.1370 -1.1056 -0.4774
  137OSM   H10S14909   4.288   5.578   7.615 -3.0566  0.0389 -2.0358
  137OSM   H10T14910   4.246   5.729   7.575  2.4902  2.6151 -2.0814
  137OSM   C11S14911   4.435   5.722   7.688 -0.0537 -0.1603  0.4598
  137OSM   H11S14912   4.368   5.741   7.775  0.2740  1.6798  0.3261
  137OSM   H11T14913   4.476   5.817   7.648  1.4381 -0.9295  0.1461
  137OSM   C12S14914   4.542   5.626   7.730 -0.2011 -0.0772  0.2653
  137OSM   H12S14915   4.626   5.633   7.657 -0.3604  0.9403  0.1799
  137OSM   H12T14916   4.501   5.523   7.732  1.9896 -0.9823  0.4206
  137OSM   C13S14917   4.603   5.651   7.869 -0.1195  0.1556  0.3684
  137OSM   H13S14918   4.512   5.678   7.927 -1.1565 -2.4169  0.0221
  137OSM   H13T14919   4.664   5.743   7.874  0.4882 -0.1878 -0.6190
  137OSM   C14S14920   4.665   5.533   7.940 -0.3482  0.1843  0.0300
  137OSM   H14S14921   4.748   5.494   7.877 -1.1396  0.4159 -1.1654
  137OSM   H14T14922   4.599   5.444   7.946  1.9392 -1.6575 -0.9818
  137OSM   C15S14923   4.713   5.562   8.084 -0.0260 -0.0867 -0.2108
  137OSM   H15S14924   4.625   5.574   8.151 -0.0491  0.0721 -0.2695
  137OSM   H15T14925   4.777   5.653   8.086  0.8898 -0.6370 -2.5591
  137OSM   C16S14926   4.794   5.450   8.156 -1.2430 -0.2071  0.0146
  137OSM   H16S14927   4.813   5.491   8.257 -0.0392  1.4373 -0.8624
  137OSM   H16T14928   4.890   5.425   8.107 -1.7387 -0.3850 -0.8731
  137OSM   C17S14929   4.714   5.316   8.169  0.3326  0.1276  0.4889
  137OSM   H17S14930   4.702   5.278   8.065  3.5883 -1.1213  0.5245
  137OSM   H17T14931   4.609   5.339   8.199 -0.5534 -2.0478 -0.8500
  137OSM   C18S14932   4.776   5.219   8.266  0.3287 -0.0838 -0.8835
  137OSM   H18S14933   4.879   5.184   8.242 -0.1782 -3.0732  1.0770
  137OSM   H18T14934   4.715   5.128   8.246  1.0280 -1.1042  1.5135
  137OSM   H18U14935   4.770   5.259   8.369  0.8634 -2.0515 -0.0715
  137OSM    C1F14936   4.682   5.991   6.795 -0.2592  0.2896 -1.0532
  137OSM     OF14937   4.621   6.033   6.700 -0.3296 -0.4111 -0.1594
  137OSM    C2F14938   4.779   6.070   6.878 -0.1595 -0.8893 -0.0639
  137OSM    H2F14939   4.854   6.112   6.807 -0.6168  1.1479  0.6382
  137OSM    H2G14940   4.839   6.012   6.952 -0.7930  0.6723  1.7023
  137OSM    C3F14941   4.711   6.193   6.953  0.0812 -1.0128 -0.0078
  137OSM    H3F14942   4.644   6.240   6.877 -0.8602 -1.6076  0.4427
  137OSM    H3G14943   4.790   6.266   6.981  0.8511 -1.2403 -1.5014
  137OSM    C4F14944   4.639   6.147   7.078  0.0014  0.6043 -0.6956
  137OSM    H4F14945   4.583   6.052   7.063  1.2120 -0.4878  1.4369
  137OSM    H4G14946   4.567   6.227   7.102  0.6292  0.9419  0.0871
  137OSM    C5F14947   4.742   6.133   7.192 -1.0086  0.1747  0.3096
  137OSM    H5F14948   4.794   6.228   7.215  1.3616 -1.1512  0.6442
  137OSM    H5G14949   4.823   6.062   7.164 -2.5602 -2.1346  1.5170
  137OSM    C6F14950   4.676   6.097   7.331  0.1614  0.5403  0.1472
  137OSM    H6F14951   4.609   6.010   7.321 -2.1892  2.1303  1.5427
  137OSM    H6G14952   4.614   6.187   7.356  2.2049  1.4024  2.3292
  137OSM    C7F14953   4.774   6.054   7.441 -0.5231 -0.3258  0.4024
  137OSM    H7F14954   4.836   6.143   7.466 -0.0418 -0.5634  0.0593
  137OSM    H7G14955   4.848   5.990   7.389 -0.1909 -0.3505  0.9031
  137OSM    C8F14956   4.697   6.016   7.568 -0.2392  1.3740  0.3982
  137OSM    H8F14957   4.776   5.970   7.632 -0.9470  3.0127  2.5154
  137OSM    H8G14958   4.619   5.943   7.536  0.3098  0.0795  1.8950
  137OSM    C9F14959   4.645   6.141   7.629 -0.1566  0.1551  0.4856
  137OSM    H9F14960   4.578   6.197   7.563 -2.2113 -1.5215  1.0921
  137OSM   C10F14961   4.670   6.197   7.750 -0.3685 -0.1001  0.5406
  137OSM   H10F14962   4.626   6.296   7.769 -2.5844 -0.9599  0.1108
  137OSM   C11F14963   4.773   6.143   7.847  0.6369 -0.5926 -0.0053
  137OSM   H11F14964   4.811   6.045   7.812  0.0369 -1.0323  0.5566
  137OSM   H11G14965   4.730   6.121   7.947 -1.7533 -1.8293 -1.2691
  137OSM   C12F14966   4.900   6.236   7.859  0.0596  0.1084 -0.5079
  137OSM   H12F14967   4.865   6.340   7.871  2.1039  0.9254 -1.3359
  137OSM   H12G14968   4.966   6.235   7.769  1.4715 -1.5540  0.5017
  137OSM   C13F14969   4.973   6.203   7.987  0.1754  0.1092  0.2674
  137OSM   H13F14970   5.004   6.097   7.988 -4.5374 -1.4094 -0.8964
  137OSM   H13G14971   4.909   6.218   8.077 -0.1676  3.3900 -0.4350
  137OSM   C14F14972   5.096   6.294   8.020  0.5790  0.2412  0.3753
  137OSM   H14F14973   5.145   6.265   8.115  1.7403 -0.6800 -0.5073
  137OSM   H14G14974   5.058   6.395   8.048 -2.5056 -0.1976 -1.9258
  137OSM   C15F14975   5.192   6.295   7.900 -0.0337 -0.0645  0.1823
  137OSM   H15F14976   5.146   6.334   7.806  1.7428 -3.0073 -1.9926
  137OSM   H15G14977   5.211   6.188   7.878 -1.6978 -0.9033  2.6268
  137OSM   C16F14978   5.321   6.369   7.926 -0.7437 -0.4792 -0.4340
  137OSM   H16F14979   5.299   6.471   7.964 -2.5685 -0.7978 -0.6074
  137OSM   H16G14980   5.370   6.386   7.828 -0.6669 -0.1292 -0.3363
  137OSM   C17F14981   5.413   6.322   8.034  0.0262  0.5209  0.0013
  137OSM   H17F14982   5.424   6.215   8.006 -1.3107 -0.2245  2.1609
  137OSM   H17G14983   5.362   6.320   8.133  0.6862 -1.8649  0.3164
  137OSM   C18F14984   5.544   6.392   8.046 -0.3138 -0.1287 -0.5590
  137OSM   H18F14985   5.603   6.339   8.125 -0.5843  0.8954  0.3424
  137OSM   H18G14986   5.530   6.494   8.088  3.1514 -0.5797  1.9462
  137OSM   H18H14987   5.596   6.390   7.948  1.1753 -0.6974  0.2218
  138OSM      N14988   5.238   1.629   5.634 -0.2409 -0.0273  0.3096
  138OSM    C1514989   5.105   1.562   5.658  0.7734 -0.1176  0.0780
  138OSM   H15A14990   5.056   1.617   5.736  1.4797 -0.1884  0.5690
  138OSM   H15B14991   5.119   1.456   5.677  2.9672  0.3070  0.8973
  138OSM   H15C14992   5.057   1.567   5.561  1.7056 -1.3996 -0.4732
  138OSM    C1414993   5.277   1.560   5.503 -0.1953  0.8987 -0.8152
  138OSM   H14A14994   5.273   1.452   5.506  3.6863  0.7170  3.7222
  138OSM   H14B14995   5.365   1.608   5.465  0.2161  1.1524  0.4360
  138OSM   H14C14996   5.206   1.586   5.426  1.2083  0.3036 -2.3333
  138OSM    C1314997   5.231   1.769   5.598 -0.1660  0.8661 -0.0790
  138OSM   H13A14998   5.190   1.824   5.681 -0.0110 -0.3390  0.8043
  138OSM   H13B14999   5.173   1.790   5.509 -3.2875  1.6113  2.0590
  138OSM   H13C15000   5.329   1.815   5.592  0.5820 -0.8333 -1.1177
  138OSM    C1215001   5.338   1.609   5.752  0.4285 -0.2500  1.0693
  138OSM   H12A15002   5.422   1.670   5.722 -1.2272  2.2621  1.3698
  138OSM   H12B15003   5.354   1.503   5.743 -0.6239 -0.4432  1.4447
  138OSM    C1115004   5.301   1.652   5.891  0.6655  0.2355 -0.5093
  138OSM   H11A15005   5.275   1.760   5.889 -1.4097 -0.2779 -2.9729
  138OSM   H11B15006   5.385   1.639   5.963 -1.4735 -1.3280  1.7953
  138OSM      P15007   5.206   1.432   6.004  0.3513 -0.0271  0.2929
  138OSM    O1315008   5.080   1.348   6.006 -0.3654 -0.2166  0.4079
  138OSM    O1415009   5.329   1.357   5.958 -0.0092 -0.1469 -0.1525
  138OSM    O1115010   5.241   1.470   6.153 -0.3452  0.3725 -0.8435
  138OSM    O1215011   5.186   1.580   5.943 -0.4811 -0.3220 -0.8789
  138OSM    C1S15012   5.228   1.378   6.263  1.0139 -0.2404 -0.0752
  138OSM    H1S15013   5.311   1.304   6.256 -0.3359 -1.9931  1.7597
  138OSM    H1T15014   5.128   1.330   6.261 -0.5314  2.7338  2.1031
  138OSM     NF15015   5.234   1.339   6.499  0.4673  0.4220 -0.0836
  138OSM    HNF15016   5.152   1.342   6.556 -1.5618  0.4352 -2.8563
  138OSM    C2S15017   5.245   1.441   6.401  0.0449 -0.0524 -0.0830
  138OSM    H2S15018   5.349   1.477   6.417 -0.4303  1.4900 -0.3972
  138OSM    C3S15019   5.149   1.565   6.425 -0.4733  0.1246 -0.0479
  138OSM    H3S15020   5.050   1.515   6.421 -0.3332 -0.0294 -2.9344
  138OSM     O315021   5.158   1.664   6.317 -1.0386  0.5269  0.1200
  138OSM    HO315022   5.204   1.619   6.246 -0.7690  1.3000 -0.1987
  138OSM    C4S15023   5.166   1.620   6.565 -0.9977  0.0545  0.3139
  138OSM    H4S15024   5.117   1.567   6.648  1.0855 -0.7957  1.0574
  138OSM    C5S15025   5.229   1.745   6.590 -0.0896  0.2612 -0.5233
  138OSM    H5S15026   5.256   1.809   6.505 -2.2556  1.3863 -0.3960
  138OSM    C6S15027   5.238   1.817   6.722 -0.6388 -0.2263 -0.0527
  138OSM    H6S15028   5.155   1.890   6.725  0.9358  1.5677  0.9066
  138OSM    H6T15029   5.337   1.868   6.729 -1.2631  0.9946  0.0713
  138OSM    C7S15030   5.228   1.736   6.851  0.4435  0.1792  0.0832
  138OSM    H7S15031   5.290   1.646   6.867 -0.0364 -0.0041  0.9618
  138OSM    H7T15032   5.130   1.684   6.844  0.0878  0.7312  0.8769
  138OSM    C8S15033   5.245   1.820   6.974 -0.0793 -0.4491  0.2027
  138OSM    H8S15034   5.169   1.901   6.975  0.4285  0.1769 -3.3723
  138OSM    H8T15035   5.344   1.869   6.969  0.4941 -1.7290 -1.8064
  138OSM    C9S15036   5.232   1.735   7.104 -0.2343  0.0493 -0.3106
  138OSM    H9S15037   5.294   1.643   7.104 -0.5310 -0.1527 -1.0340
  138OSM    H9T15038   5.124   1.710   7.111 -1.1376  3.2725 -1.8503
  138OSM   C10S15039   5.276   1.806   7.234 -0.3001  0.6283  0.0872
  138OSM   H10S15040   5.198   1.883   7.254  0.4410  1.7410 -1.2031
  138OSM   H10T15041   5.371   1.861   7.221 -0.6297  0.8079 -1.7073
  138OSM   C11S15042   5.298   1.710   7.343 -0.2441  0.3177 -0.4049
  138OSM   H11S15043   5.359   1.621   7.315 -1.8383 -1.1691  0.7905
  138OSM   H11T15044   5.199   1.667   7.366 -0.8545  2.3702  0.9446
  138OSM   C12S15045   5.350   1.781   7.465 -0.4663 -0.6141 -0.0362
  138OSM   H12S15046   5.285   1.865   7.496  0.5987  1.2755 -2.7179
  138OSM   H12T15047   5.451   1.823   7.444 -0.9368 -0.6467 -2.4752
  138OSM   C13S15048   5.355   1.700   7.590  0.0185 -0.4850  0.1819
  138OSM   H13S15049   5.430   1.619   7.597 -0.7486 -1.0514  2.4147
  138OSM   H13T15050   5.257   1.649   7.600 -0.3450  0.1266 -0.1712
  138OSM   C14S15051   5.378   1.797   7.705 -0.3754 -0.6599 -0.0628
  138OSM   H14S15052   5.289   1.863   7.713 -1.2129 -1.9803  1.8401
  138OSM   H14T15053   5.466   1.862   7.683 -0.9451  0.3741  0.6650
  138OSM   C15S15054   5.389   1.728   7.845  0.4188 -0.3470 -0.1824
  138OSM   H15S15055   5.494   1.691   7.855  0.3388 -0.5795 -0.2134
  138OSM   H15T15056   5.325   1.637   7.844 -0.3085  0.1527  0.5710
  138OSM   C16S15057   5.360   1.824   7.961 -0.0096 -0.3563 -0.4403
  138OSM   H16S15058   5.281   1.887   7.914  0.1797  1.3542  1.4626
  138OSM   H16T15059   5.449   1.888   7.981 -1.3432  0.5840  2.9854
  138OSM   C17S15060   5.310   1.747   8.081 -0.3426 -0.2840 -0.5326
  138OSM   H17S15061   5.222   1.681   8.061  1.1848 -2.4823 -0.1935
  138OSM   H17T15062   5.298   1.820   8.163  0.2334  0.3630 -1.0220
  138OSM   C18S15063   5.412   1.654   8.135  0.0019 -0.2166 -0.0182
  138OSM   H18S15064   5.375   1.591   8.219  0.3058 -0.7271 -0.2656
  138OSM   H18T15065   5.512   1.697   8.155  0.1912 -0.7520  0.1987
  138OSM   H18U15066   5.422   1.571   8.062 -1.1257 -1.4299  1.1731
  138OSM    C1F15067   5.332   1.246   6.517  0.2763 -0.2917  0.0563
  138OSM     OF15068   5.441   1.244   6.460  0.1429  0.3507 -0.1511
  138OSM    C2F15069   5.313   1.146   6.622 -0.1697 -0.1528  0.1599
  138OSM    H2F15070   5.211   1.103   6.612 -0.0399 -0.1966 -1.1067
  138OSM    H2G15071   5.320   1.195   6.721 -3.2783 -0.9760  0.8243
  138OSM    C3F15072   5.416   1.028   6.620  0.4677  0.1778  0.0731
  138OSM    H3F15073   5.515   1.069   6.649  0.1359  0.3327  1.0051
  138OSM    H3G15074   5.439   0.996   6.516  0.6832 -3.9529  1.3036
  138OSM    C4F15075   5.375   0.904   6.708 -0.8318 -0.0396 -0.5011
  138OSM    H4F15076   5.466   0.846   6.735 -1.8989 -1.1515  0.7461
  138OSM    H4G15077   5.309   0.834   6.653  1.1566 -1.8809 -0.6016
  138OSM    C5F15078   5.293   0.938   6.831 -0.5319  0.5054 -0.1284
  138OSM    H5F15079   5.257   0.841   6.871 -0.2084 -0.4199 -2.0262
  138OSM    H5G15080   5.208   1.006   6.810 -2.1272 -0.2707  3.5908
  138OSM    C6F15081   5.376   1.021   6.939  0.0647  0.1083 -0.5634
  138OSM    H6F15082   5.396   1.118   6.888 -0.7839 -0.1626 -1.4421
  138OSM    H6G15083   5.472   0.966   6.949 -0.8484 -1.5809 -0.8806
  138OSM    C7F15084   5.302   1.045   7.070  0.6950  0.0317 -0.1923
  138OSM    H7F15085   5.207   1.091   7.035  1.2709  1.8555  0.5761
  138OSM    H7G15086   5.354   1.121   7.131  1.3169  0.5425 -1.3473
  138OSM    C8F15087   5.263   0.923   7.163  0.1671  0.3587  0.4756
  138OSM    H8F15088   5.199   0.856   7.101 -0.5493  0.3127  1.2498
  138OSM    H8G15089   5.203   0.959   7.249 -1.6235 -0.4773 -0.3928
  138OSM    C9F15090   5.385   0.852   7.217 -0.1394  0.0489  0.6146
  138OSM    H9F15091   5.474   0.856   7.153 -1.7098 -2.6777 -1.8082
  138OSM   C10F15092   5.401   0.797   7.336  0.0918 -0.5818 -0.6677
  138OSM   H10F15093   5.487   0.734   7.364 -1.7799 -2.8906 -0.0284
  138OSM   C11F15094   5.291   0.802   7.442  0.1869  0.1277  0.4805
  138OSM   H11F15095   5.256   0.699   7.464  1.2203 -0.3061  0.1303
  138OSM   H11G15096   5.204   0.867   7.420  0.5439  0.5617  0.3394
  138OSM   C12F15097   5.347   0.840   7.576 -0.9687 -0.1313  0.0731
  138OSM   H12F15098   5.385   0.945   7.571 -0.0197 -0.3992  1.5510
  138OSM   H12G15099   5.428   0.776   7.617  0.0452  1.1432  0.1004
  138OSM   C13F15100   5.235   0.843   7.680 -0.4213 -0.0283  0.0261
  138OSM   H13F15101   5.184   0.744   7.684  0.0103 -0.2398  0.4289
  138OSM   H13G15102   5.158   0.919   7.657 -1.4122 -1.0691 -0.1697
  138OSM   C14F15103   5.298   0.870   7.811  0.3735  0.0167 -0.6855
  138OSM   H14F15104   5.308   0.979   7.827  0.2775  0.0214 -0.6614
  138OSM   H14G15105   5.399   0.823   7.817 -0.0337 -0.6442  1.0919
  138OSM   C15F15106   5.209   0.816   7.929  0.1305  0.1136 -0.5365
  138OSM   H15F15107   5.264   0.845   8.021 -0.2449 -3.6404  0.9465
  138OSM   H15G15108   5.227   0.706   7.923  0.1915  0.1774 -1.5962
  138OSM   C16F15109   5.064   0.846   7.928  0.4987  0.4261  0.0447
  138OSM   H16F15110   5.018   0.786   7.847  0.2974  0.0371  0.4449
  138OSM   H16G15111   5.049   0.953   7.903  1.3299  0.4378 -0.4208
  138OSM   C17F15112   4.988   0.810   8.057  0.5119  0.3687  0.2966
  138OSM   H17F15113   4.980   0.700   8.071  0.6495 -0.1591 -3.3191
  138OSM   H17G15114   4.879   0.832   8.047  0.8602  1.2691 -1.7351
  138OSM   C18F15115   5.023   0.874   8.193  0.1395  0.4226 -0.0912
  138OSM   H18F15116   5.130   0.853   8.216 -0.4670 -0.6309  1.9021
  138OSM   H18G15117   4.963   0.823   8.272  0.3518  0.6253  0.2028
  138OSM   H18H15118   4.999   0.982   8.196  2.1884  0.8746  2.5706
  139OSM      N15119   4.832   1.725   6.071 -0.2912 -0.1712 -0.1316
  139OSM    C1515120   4.901   1.597   6.110 -0.7533 -0.2265  0.3166
  139OSM   H15A15121   4.822   1.524   6.124 -2.3395  0.9828 -1.9499
  139OSM   H15B15122   4.969   1.615   6.192 -0.9439  0.2898  0.3618
  139OSM   H15C15123   4.959   1.567   6.024  0.1946 -0.6460  1.0935
  139OSM    C1415124   4.940   1.815   6.008  1.0605  0.8586 -0.3917
  139OSM   H14A15125   4.987   1.867   6.090  1.6287 -1.0788  0.5488
  139OSM   H14B15126   4.898   1.892   5.945 -1.3801 -0.9267 -1.0426
  139OSM   H14C15127   5.019   1.762   5.957 -0.0408 -0.2673 -0.9541
  139OSM    C1315128   4.728   1.689   5.968 -0.5632  0.1140 -0.7689
  139OSM   H13A15129   4.657   1.619   6.009 -0.7105  2.3785  3.1338
  139OSM   H13B15130   4.784   1.650   5.884  1.2858 -0.1478  0.5456
  139OSM   H13C15131   4.679   1.780   5.937 -1.2200 -0.0857 -0.3286
  139OSM    C1215132   4.764   1.794   6.188 -0.2952  0.3625  0.5733
  139OSM   H12A15133   4.709   1.717   6.240  0.5073  0.5345  1.7056
  139OSM   H12B15134   4.702   1.874   6.152 -0.4456 -0.7853 -1.8400
  139OSM    C1115135   4.856   1.858   6.294 -0.0187  0.0998 -0.1728
  139OSM   H11A15136   4.933   1.789   6.335 -0.2612 -0.8433 -1.2833
  139OSM   H11B15137   4.790   1.883   6.380 -1.4507 -0.1925 -1.1762
  139OSM      P15138   4.867   2.111   6.228  0.0243  0.5746  0.5005
  139OSM    O1315139   4.966   2.205   6.297  0.1649 -0.1402  0.2516
  139OSM    O1415140   4.845   2.149   6.090  0.2116 -0.2057  0.7532
  139OSM    O1115141   4.730   2.108   6.300  0.0795  0.1520 -0.0933
  139OSM    O1215142   4.925   1.964   6.238  0.2355  0.0062  0.2368
  139OSM    C1S15143   4.682   2.179   6.408 -0.1828 -0.7383 -0.9691
  139OSM    H1S15144   4.682   2.288   6.389 -2.0311 -0.7975 -1.3856
  139OSM    H1T15145   4.745   2.151   6.495 -3.3902  1.0499  2.1006
  139OSM     NF15146   4.500   2.173   6.585 -1.1552 -0.0133 -0.5025
  139OSM    HNF15147   4.521   2.112   6.660 -0.6668  0.9287  0.1268
  139OSM    C2S15148   4.537   2.130   6.450 -0.0094  0.3781  0.7640
  139OSM    H2S15149   4.473   2.178   6.373 -0.9024  1.8603  2.3910
  139OSM    C3S15150   4.521   1.974   6.433  0.6717 -0.3520  0.2665
  139OSM    H3S15151   4.607   1.928   6.486  1.2646  0.4386  0.0095
  139OSM     O315152   4.524   1.930   6.298  0.3391  0.4369 -0.0173
  139OSM    HO315153   4.556   2.012   6.259 -0.9990  0.0503 -2.0421
  139OSM    C4S15154   4.396   1.928   6.503  0.1325 -0.1182  0.0731
  139OSM    H4S15155   4.310   1.944   6.437  0.6150 -0.4298 -0.6359
  139OSM    C5S15156   4.390   1.871   6.623  0.5514  0.8537  0.0799
  139OSM    H5S15157   4.486   1.850   6.671  0.8688  0.8861 -0.5369
  139OSM    C6S15158   4.266   1.826   6.692 -0.7641  0.1661 -0.4857
  139OSM    H6S15159   4.282   1.719   6.715  0.2137  0.8117  1.9941
  139OSM    H6T15160   4.173   1.831   6.631 -0.6200 -2.2961 -0.9682
  139OSM    C7S15161   4.258   1.905   6.824  0.2830 -0.5241  0.1223
  139OSM    H7S15162   4.214   2.000   6.786 -0.5779 -0.4279  1.3257
  139OSM    H7T15163   4.359   1.916   6.868 -0.6167 -1.1996  2.4263
  139OSM    C8S15164   4.151   1.845   6.920  0.2341 -0.4464 -0.0269
  139OSM    H8S15165   4.168   1.743   6.959  0.2745 -0.0917  0.9062
  139OSM    H8T15166   4.062   1.852   6.854  2.5084 -0.7505 -3.2285
  139OSM    C9S15167   4.134   1.934   7.047 -0.3451 -0.4451 -0.6135
  139OSM    H9S15168   4.043   1.898   7.100  0.0363  0.3759  0.6245
  139OSM    H9T15169   4.116   2.038   7.013 -0.6438 -0.6818 -1.1769
  139OSM   C10S15170   4.262   1.926   7.139  0.2947 -0.2923 -0.7488
  139OSM   H10S15171   4.343   1.995   7.108  2.9453 -2.3744  1.3031
  139OSM   H10T15172   4.313   1.828   7.129  1.0412  0.3259 -3.5311
  139OSM   C11S15173   4.236   1.967   7.283  0.1304  0.0553 -0.4384
  139OSM   H11S15174   4.330   1.954   7.341 -0.3466 -1.6015  0.0049
  139OSM   H11T15175   4.182   1.890   7.342 -1.3089  0.6910 -0.9206
  139OSM   C12S15176   4.174   2.106   7.295  0.1025 -0.3497 -0.7050
  139OSM   H12S15177   4.079   2.109   7.237  0.1589  2.9727 -0.7453
  139OSM   H12T15178   4.242   2.182   7.250  2.8107 -2.4949 -0.3166
  139OSM   C13S15179   4.151   2.152   7.438  0.2183 -0.0025 -0.5774
  139OSM   H13S15180   4.108   2.253   7.424  0.6612  0.5724  1.8784
  139OSM   H13T15181   4.244   2.163   7.499 -0.2414  1.6574 -0.1641
  139OSM   C14S15182   4.049   2.062   7.515 -0.0860 -0.0601  0.3298
  139OSM   H14S15183   4.098   1.963   7.528  3.5719  1.3624 -1.7512
  139OSM   H14T15184   3.963   2.049   7.446 -0.9219 -0.2451  1.3908
  139OSM   C15S15185   4.010   2.120   7.658  0.3946 -0.1825 -0.3266
  139OSM   H15S15186   4.095   2.119   7.730  0.8603  1.3051 -0.8287
  139OSM   H15T15187   3.925   2.058   7.693 -0.3681  0.6824 -0.6385
  139OSM   C16S15188   3.940   2.260   7.641  0.4921  0.0769 -0.6799
  139OSM   H16S15189   3.845   2.242   7.586 -1.1301  2.3659  1.2860
  139OSM   H16T15190   3.989   2.330   7.570 -0.0366 -0.0745 -1.2044
  139OSM   C17S15191   3.905   2.325   7.775  0.1823 -0.5710 -0.0602
  139OSM   H17S15192   3.844   2.250   7.830  1.2531 -0.1685  1.7120
  139OSM   H17T15193   3.849   2.420   7.767  2.6674  0.8762 -0.8368
  139OSM   C18S15194   4.018   2.351   7.879  0.1874 -0.1094 -0.2016
  139OSM   H18S15195   3.973   2.385   7.974  2.9850  0.6523  0.9070
  139OSM   H18T15196   4.074   2.436   7.835 -2.5274  0.9661 -1.7411
  139OSM   H18U15197   4.075   2.258   7.902 -0.2753 -0.1303  0.8992
  139OSM    C1F15198   4.476   2.306   6.597  0.3034  0.7803 -0.4287
  139OSM     OF15199   4.449   2.383   6.510  0.4872 -0.1603  0.2957
  139OSM    C2F15200   4.489   2.352   6.734 -0.0767 -0.8531 -0.6663
  139OSM    H2F15201   4.590   2.399   6.732 -1.0810  1.3498 -0.7057
  139OSM    H2G15202   4.489   2.268   6.807 -0.0071 -0.6323 -0.4134
  139OSM    C3F15203   4.374   2.451   6.773  0.8770 -0.2812  0.1995
  139OSM    H3F15204   4.273   2.405   6.763 -0.2526  2.3521 -0.7552
  139OSM    H3G15205   4.376   2.547   6.718  0.7634 -0.8725 -0.8607
  139OSM    C4F15206   4.379   2.481   6.927 -0.5491  0.2462 -0.3734
  139OSM    H4F15207   4.388   2.387   6.986  0.8817 -0.4349 -1.6371
  139OSM    H4G15208   4.286   2.537   6.952  0.6037  1.3690  1.5086
  139OSM    C5F15209   4.505   2.558   6.960 -0.3031 -0.0440 -0.0553
  139OSM    H5F15210   4.519   2.641   6.888 -0.2396 -0.6063 -0.7004
  139OSM    H5G15211   4.594   2.492   6.951  0.3991  0.8562  0.2484
  139OSM    C6F15212   4.503   2.610   7.109  0.0630  0.5695 -0.6113
  139OSM    H6F15213   4.420   2.685   7.106 -0.1266  0.5464  2.6814
  139OSM    H6G15214   4.594   2.674   7.113 -0.1611  0.8765 -0.4169
  139OSM    C7F15215   4.485   2.507   7.211 -0.4833  0.5968  0.0438
  139OSM    H7F15216   4.566   2.431   7.213 -0.4566  0.6136 -0.4772
  139OSM    H7G15217   4.385   2.461   7.194 -0.6875  0.5135  1.4196
  139OSM    C8F15218   4.489   2.567   7.356 -0.8172  0.0017  0.1320
  139OSM    H8F15219   4.581   2.628   7.362 -1.2802  0.8257 -1.0108
  139OSM    H8G15220   4.506   2.484   7.428 -0.4717  0.8394  1.0239
  139OSM    C9F15221   4.369   2.650   7.394  0.3587  0.0493 -0.2508
  139OSM    H9F15222   4.366   2.749   7.346  1.5775 -0.2957 -1.0333
  139OSM   C10F15223   4.280   2.625   7.495 -0.2885 -0.3348  0.0842
  139OSM   H10F15224   4.193   2.688   7.517 -0.1924 -0.4949  0.9271
  139OSM   C11F15225   4.302   2.511   7.591 -0.3214 -0.3497 -0.0670
  139OSM   H11F15226   4.312   2.414   7.538 -0.9359 -0.3502 -0.1888
  139OSM   H11G15227   4.210   2.502   7.652 -1.9508  0.3785 -2.3399
  139OSM   C12F15228   4.419   2.524   7.695 -0.3569 -0.4380 -0.4000
  139OSM   H12F15229   4.394   2.615   7.753 -2.6012 -0.4804 -1.2387
  139OSM   H12G15230   4.522   2.540   7.656 -0.7793  0.4469 -1.1673
  139OSM   C13F15231   4.423   2.390   7.784 -0.2810  1.2983  0.8448
  139OSM   H13F15232   4.431   2.321   7.698 -1.9097  0.7283  1.1218
  139OSM   H13G15233   4.328   2.387   7.843 -1.2764  1.4046 -0.7374
  139OSM   C14F15234   4.542   2.402   7.879  0.1572 -0.0872  0.0116
  139OSM   H14F15235   4.541   2.495   7.939 -1.5423 -0.5554  0.7456
  139OSM   H14G15236   4.635   2.419   7.820 -0.1359 -2.3328 -1.1466
  139OSM   C15F15237   4.539   2.281   7.975 -0.4103 -0.1757  0.8725
  139OSM   H15F15238   4.552   2.194   7.908  2.5716  0.1632  0.9348
  139OSM   H15G15239   4.438   2.266   8.017 -0.8611 -0.7954 -0.4111
  139OSM   C16F15240   4.651   2.305   8.080 -0.1084 -0.5031 -0.3322
  139OSM   H16F15241   4.632   2.406   8.122 -0.8695  0.5074 -2.9796
  139OSM   H16G15242   4.746   2.324   8.024 -0.3186  0.4176 -0.3980
  139OSM   C17F15243   4.663   2.190   8.179 -0.6357  0.1198 -0.2414
  139OSM   H17F15244   4.691   2.106   8.113 -2.1711 -1.5807  1.2335
  139OSM   H17G15245   4.569   2.164   8.232  0.2076 -2.4870  0.0597
  139OSM   C18F15246   4.785   2.201   8.278 -0.0396 -0.2046  0.7923
  139OSM   H18F15247   4.870   2.162   8.218  0.2384  1.1244  0.2904
  139OSM   H18G15248   4.773   2.141   8.370  1.3276 -1.2684  0.2978
  139OSM   H18H15249   4.794   2.312   8.290 -1.2423  0.1085 -1.0454
  140OSM      N15250   4.990   3.922   6.178  0.3810  0.3235 -0.1703
  140OSM    C1515251   4.929   3.815   6.091 -0.0497  0.2879  0.0970
  140OSM   H15A15252   4.823   3.824   6.107 -0.2511 -0.4607 -0.7578
  140OSM   H15B15253   4.961   3.718   6.127  0.6729  0.5792  0.2480
  140OSM   H15C15254   4.953   3.830   5.986 -1.5231 -0.6650 -0.3849
  140OSM    C1415255   4.948   3.911   6.321 -0.3570 -0.1001 -0.1941
  140OSM   H14A15256   4.841   3.923   6.330 -0.1066  0.9483  1.6448
  140OSM   H14B15257   5.000   3.976   6.389  1.6608 -1.5925 -0.2561
  140OSM   H14C15258   4.960   3.810   6.358 -0.6430 -0.4872 -1.1230
  140OSM    C1315259   5.137   3.888   6.165  0.7820  0.4098  0.0379
  140OSM   H13A15260   5.198   3.964   6.214 -0.5235  1.4100  0.1439
  140OSM   H13B15261   5.152   3.901   6.059 -0.6101  0.2808 -0.1810
  140OSM   H13C15262   5.155   3.786   6.193  1.0575  0.6668  0.8201
  140OSM    C1215263   4.961   4.063   6.121  0.4999 -0.0880  0.0159
  140OSM   H12A15264   4.855   4.081   6.117  0.3501 -0.9551  0.0021
  140OSM   H12B15265   5.003   4.066   6.021 -1.8907 -0.9825 -1.0575
  140OSM    C1115266   5.019   4.173   6.210 -0.0511  0.5017 -0.4060
  140OSM   H11A15267   4.970   4.194   6.308  0.2628  0.0444 -0.1491
  140OSM   H11B15268   5.001   4.270   6.160  0.4797  0.5277 -0.5403
  140OSM      P15269   5.247   4.178   6.360  0.0668  0.2129 -0.1836
  140OSM    O1315270   5.363   4.086   6.354 -0.1658 -0.3610 -0.7532
  140OSM    O1415271   5.282   4.321   6.366  0.3510 -0.6465 -0.0349
  140OSM    O1115272   5.151   4.130   6.477 -0.0997 -0.6629 -0.0025
  140OSM    O1215273   5.160   4.157   6.231  0.1712 -0.1772  0.2851
  140OSM    C1S15274   5.211   4.101   6.610 -0.5417 -0.0342 -0.5358
  140OSM    H1S15275   5.315   4.139   6.611 -0.3191 -0.5843 -2.2165
  140OSM    H1T15276   5.210   3.992   6.632  1.4109 -0.0693 -0.5111
  140OSM     NF15277   5.176   4.161   6.846  0.4322  0.3192  0.0302
  140OSM    HNF15278   5.127   4.092   6.897 -0.9302  2.2158  1.3715
  140OSM    C2S15279   5.127   4.179   6.713  0.4640  0.4926  0.1666
  140OSM    H2S15280   5.143   4.287   6.695  0.8619  0.2584 -0.9073
  140OSM    C3S15281   4.978   4.140   6.690  0.4544  0.5507 -0.8117
  140OSM    H3S15282   4.979   4.029   6.686  0.2166  0.4932  0.4413
  140OSM     O315283   4.917   4.187   6.573 -0.5799 -0.0066 -0.8611
  140OSM    HO315284   4.986   4.195   6.507 -0.6197 -0.9907 -1.0237
  140OSM    C4S15285   4.891   4.193   6.800 -0.2862 -0.3340 -0.2928
  140OSM    H4S15286   4.907   4.300   6.821  0.5269 -0.2386 -1.3427
  140OSM    C5S15287   4.797   4.133   6.880 -0.1863  1.0054 -0.1495
  140OSM    H5S15288   4.775   4.025   6.884 -0.8737  1.2281  3.7936
  140OSM    C6S15289   4.723   4.214   6.980 -0.1443  0.6953  0.0688
  140OSM    H6S15290   4.658   4.144   7.035  1.0317 -0.5815 -0.1318
  140OSM    H6T15291   4.649   4.278   6.928 -2.3181 -2.7277 -1.2111
  140OSM    C7S15292   4.806   4.289   7.081  0.2329 -0.6699 -0.2582
  140OSM    H7S15293   4.727   4.343   7.137  0.3013 -2.0867  1.2526
  140OSM    H7T15294   4.869   4.365   7.031 -0.5382  0.2659  0.1856
  140OSM    C8S15295   4.896   4.197   7.163 -0.2711 -1.0809 -0.3960
  140OSM    H8S15296   4.967   4.148   7.093 -0.7981 -2.7626  0.2087
  140OSM    H8T15297   4.835   4.115   7.208 -2.9627  0.6893 -0.7285
  140OSM    C9S15298   4.957   4.258   7.283 -0.0213 -0.2226 -0.6826
  140OSM    H9S15299   5.017   4.346   7.250  0.0672 -0.3325 -0.8165
  140OSM    H9T15300   5.033   4.193   7.332  0.0286  0.7932  0.5822
  140OSM   C10S15301   4.854   4.289   7.387 -0.0667  0.1588 -0.0399
  140OSM   H10S15302   4.762   4.230   7.370  0.7248 -1.0126 -0.3294
  140OSM   H10T15303   4.834   4.399   7.385  2.6095  0.6754 -0.7366
  140OSM   C11S15304   4.918   4.259   7.531  0.2496  0.6661  0.1235
  140OSM   H11S15305   4.987   4.345   7.546  3.4579 -1.8335  0.0876
  140OSM   H11T15306   4.978   4.166   7.536 -2.0405 -0.7369  2.4172
  140OSM   C12S15307   4.797   4.253   7.629  0.2360  1.1602 -0.8934
  140OSM   H12S15308   4.707   4.194   7.602  1.6727 -1.0175 -1.0282
  140OSM   H12T15309   4.767   4.360   7.625  2.1733  1.7045 -1.5005
  140OSM   C13S15310   4.851   4.220   7.768 -0.2372  0.0737 -0.1002
  140OSM   H13S15311   4.939   4.286   7.782  0.1377 -0.5483  0.5238
  140OSM   H13T15312   4.875   4.113   7.785 -0.9747  0.0498  0.8829
  140OSM   C14S15313   4.762   4.277   7.880  0.7327  0.3738  0.1722
  140OSM   H14S15314   4.657   4.255   7.848  0.2344  1.6216  0.9097
  140OSM   H14T15315   4.774   4.387   7.874 -0.7123  0.5401 -0.0174
  140OSM   C15S15316   4.796   4.221   8.022 -0.0034  0.6221 -0.4723
  140OSM   H15S15317   4.775   4.113   8.038  0.4717  0.5604 -0.2322
  140OSM   H15T15318   4.737   4.296   8.079 -0.1075  1.0396 -1.1211
  140OSM   C16S15319   4.947   4.231   8.051 -0.2524  0.2192 -0.1601
  140OSM   H16S15320   4.984   4.330   8.016 -0.5442 -0.7222 -3.2621
  140OSM   H16T15321   5.001   4.152   7.995  0.2845 -0.0910  0.7980
  140OSM   C17S15322   4.990   4.228   8.199 -0.8392  0.6688  0.0727
  140OSM   H17S15323   4.924   4.306   8.245 -3.0288  0.2129 -2.1721
  140OSM   H17T15324   5.096   4.261   8.198 -0.4972 -0.0426  4.3401
  140OSM   C18S15325   4.971   4.094   8.256 -0.1386 -0.0282  0.0311
  140OSM   H18S15326   4.863   4.068   8.256  0.0861 -0.9999  0.8059
  140OSM   H18T15327   5.014   4.085   8.358  0.1730  0.4647 -0.0545
  140OSM   H18U15328   5.020   4.015   8.195 -1.3031  0.0215 -0.9651
  140OSM    C1F15329   5.298   4.210   6.884 -0.9394  0.1986 -0.3830
  140OSM     OF15330   5.351   4.291   6.812 -0.4081 -0.1239 -0.2049
  140OSM    C2F15331   5.359   4.155   7.010 -0.0946  0.1739  0.7533
  140OSM    H2F15332   5.468   4.173   7.017 -0.6778  3.0772  3.2763
  140OSM    H2G15333   5.352   4.044   7.004 -0.2339  0.1490  1.3517
  140OSM    C3F15334   5.312   4.200   7.143  0.3366  0.1469  0.3709
  140OSM    H3F15335   5.207   4.171   7.164  0.4882 -0.5357  0.2122
  140OSM    H3G15336   5.321   4.310   7.139  0.2575  0.1543  0.3976
  140OSM    C4F15337   5.420   4.142   7.242 -0.0377 -0.3782 -0.5882
  140OSM    H4F15338   5.522   4.169   7.208 -0.3580  1.8969  0.1681
  140OSM    H4G15339   5.404   4.033   7.227  2.5119 -0.9351  0.4979
  140OSM    C5F15340   5.393   4.160   7.393 -0.1305 -0.3115 -0.2929
  140OSM    H5F15341   5.307   4.099   7.426  0.0242 -1.5215 -2.0367
  140OSM    H5G15342   5.371   4.268   7.407  0.5937 -0.3564  1.2437
  140OSM    C6F15343   5.515   4.116   7.477  0.2178 -0.5314 -0.2565
  140OSM    H6F15344   5.600   4.178   7.441  1.0802 -0.5899  1.6436
  140OSM    H6G15345   5.543   4.011   7.452  1.7789 -0.0847 -0.4436
  140OSM    C7F15346   5.490   4.148   7.616  0.0063  0.0714 -0.1219
  140OSM    H7F15347   5.484   4.258   7.627  2.1691  0.2210 -0.2493
  140OSM    H7G15348   5.578   4.119   7.678 -0.2355  0.2951  0.3246
  140OSM    C8F15349   5.368   4.079   7.679  0.7453 -0.6133  0.3141
  140OSM    H8F15350   5.275   4.130   7.645  0.8123 -0.9489 -0.3634
  140OSM    H8G15351   5.379   4.099   7.788 -0.0905  0.0747  0.2819
  140OSM    C9F15352   5.363   3.931   7.647 -0.1431 -0.0919  0.2388
  140OSM    H9F15353   5.338   3.909   7.542  0.4386  0.7321 -0.0843
  140OSM   C10F15354   5.370   3.833   7.738 -0.4592  0.8044 -0.8457
  140OSM   H10F15355   5.360   3.733   7.695 -1.5185  0.7518 -0.5099
  140OSM   C11F15356   5.371   3.845   7.887  0.1143  0.0056  0.3190
  140OSM   H11F15357   5.302   3.767   7.926 -0.3457 -0.8053 -2.0155
  140OSM   H11G15358   5.332   3.941   7.928  0.3762 -0.9310  2.8628
  140OSM   C12F15359   5.505   3.817   7.943 -0.3305  0.9715 -0.2274
  140OSM   H12F15360   5.589   3.840   7.874  0.9837 -1.1601  0.5824
  140OSM   H12G15361   5.500   3.707   7.961  1.2818  0.8850 -0.2211
  140OSM   C13F15362   5.527   3.886   8.079  0.1762  0.3744 -0.2396
  140OSM   H13F15363   5.444   3.862   8.148 -0.5824  0.6168 -1.0624
  140OSM   H13G15364   5.524   3.996   8.068 -0.3046  0.6082  2.0663
  140OSM   C14F15365   5.652   3.846   8.152  0.2217  0.7235 -0.3440
  140OSM   H14F15366   5.739   3.843   8.084 -0.2575 -0.4556 -0.9152
  140OSM   H14G15367   5.640   3.741   8.187  0.7017  0.1378 -1.9165
  140OSM   C15F15368   5.681   3.918   8.282 -0.0065 -0.3485  0.0300
  140OSM   H15F15369   5.707   4.025   8.265  0.5003 -0.5075 -0.1954
  140OSM   H15G15370   5.781   3.892   8.323 -0.3978 -1.6049  0.1926
  140OSM   C16F15371   5.581   3.888   8.394  0.1854 -0.1120 -0.8744
  140OSM   H16F15372   5.579   3.779   8.411  0.8538  0.0874  0.5187
  140OSM   H16G15373   5.482   3.930   8.365  0.0386 -0.5559 -1.0230
  140OSM   C17F15374   5.607   3.938   8.536 -0.2053 -0.7474  0.4513
  140OSM   H17F15375   5.708   3.916   8.576  0.7462  1.4851 -0.6050
  140OSM   H17G15376   5.533   3.893   8.606 -0.7077 -1.3363 -0.4526
  140OSM   C18F15377   5.584   4.087   8.541  0.2852  0.6660  0.5583
  140OSM   H18F15378   5.521   4.125   8.458  1.3339 -1.4877 -1.2772
  140OSM   H18G15379   5.688   4.126   8.537 -0.0528  1.4426 -1.0589
  140OSM   H18H15380   5.540   4.104   8.642 -3.6706 -2.0779 -0.6133
  141OSM      N15381   4.408   6.125   5.878 -0.3298  0.2416 -0.4254
  141OSM    C1515382   4.418   6.015   5.774  0.5212  0.1508 -0.6592
  141OSM   H15A15383   4.406   5.918   5.820  2.1066  1.4876  2.7383
  141OSM   H15B15384   4.506   6.017   5.712  0.0922 -2.7682 -1.4435
  141OSM   H15C15385   4.338   6.025   5.702  0.1426  4.1333  0.1859
  141OSM    C1415386   4.525   6.106   5.975  0.1336  0.2131 -0.3071
  141OSM   H14A15387   4.537   6.194   6.037 -1.5669 -0.3133  0.7958
  141OSM   H14B15388   4.615   6.072   5.926  1.6254  0.8048  1.9476
  141OSM   H14C15389   4.500   6.026   6.043 -0.9034  1.3872  0.7144
  141OSM    C1315390   4.433   6.256   5.808 -0.6421  0.0834  0.5448
  141OSM   H13A15391   4.362   6.294   5.736 -1.2914  0.3366  1.3113
  141OSM   H13B15392   4.533   6.261   5.766 -0.4308  2.2298  1.2237
  141OSM   H13C15393   4.441   6.335   5.882  2.2554  1.3477 -1.0067
  141OSM    C1215394   4.277   6.124   5.956 -0.3540  0.4050  0.6704
  141OSM   H12A15395   4.195   6.140   5.888 -0.3712  0.3423  0.6768
  141OSM   H12B15396   4.284   6.201   6.031  1.4371 -1.8146  2.8750
  141OSM    C1115397   4.236   6.002   6.038 -0.2553 -0.3949  0.2064
  141OSM   H11A15398   4.239   5.921   5.962 -0.2472 -1.0187  0.8636
  141OSM   H11B15399   4.128   6.000   6.068 -1.5223  0.4835 -3.9934
  141OSM      P15400   4.302   6.040   6.285  0.3248 -0.0691 -0.1981
  141OSM    O1315401   4.418   6.112   6.337 -0.6474 -0.2355 -0.2560
  141OSM    O1415402   4.165   6.100   6.289  0.3625 -0.3227 -0.1204
  141OSM    O1115403   4.288   5.897   6.354 -0.0355  0.2722 -0.0588
  141OSM    O1215404   4.333   5.976   6.143  0.6878  0.1390 -0.7567
  141OSM    C1S15405   4.283   5.908   6.501  0.3968  0.4184 -0.0077
  141OSM    H1S15406   4.353   5.982   6.545  0.9886 -0.7690  1.0696
  141OSM    H1T15407   4.300   5.807   6.545 -0.2899 -0.3360 -1.4170
  141OSM     NF15408   4.158   5.939   6.710 -0.4308  0.1548 -0.0872
  141OSM    HNF15409   4.119   5.862   6.760  0.5719 -1.0454 -1.1124
  141OSM    C2S15410   4.143   5.941   6.566  0.1060  0.5365 -0.5858
  141OSM    H2S15411   4.114   6.040   6.524  0.5203  0.0196 -2.1490
  141OSM    C3S15412   4.028   5.847   6.507  0.6399  0.8735 -0.0328
  141OSM    H3S15413   4.042   5.740   6.532 -1.1774  0.4235 -0.8538
  141OSM     O315414   4.016   5.846   6.366  0.5444 -0.0402 -0.5202
  141OSM    HO315415   4.090   5.898   6.334  0.8036 -0.5702 -0.7771
  141OSM    C4S15416   3.895   5.888   6.570  0.0652  0.5788  0.5473
  141OSM    H4S15417   3.858   5.987   6.538 -1.8984 -0.0546  0.7442
  141OSM    C5S15418   3.833   5.825   6.673  0.6152  0.8631 -0.1319
  141OSM    H5S15419   3.886   5.742   6.723 -0.9969 -1.1178 -1.6079
  141OSM    C6S15420   3.711   5.880   6.740 -0.6844 -0.4309  0.2709
  141OSM    H6S15421   3.633   5.802   6.756  2.4280 -3.8128 -0.4271
  141OSM    H6T15422   3.654   5.954   6.680 -2.2228 -1.5350  0.3300
  141OSM    C7S15423   3.725   5.930   6.885  0.3698 -0.5219  0.2065
  141OSM    H7S15424   3.805   6.007   6.899 -3.0085  3.3587 -0.8880
  141OSM    H7T15425   3.753   5.839   6.942  0.0139 -1.9111 -1.8066
  141OSM    C8S15426   3.596   5.996   6.937 -0.5372  0.4436 -0.2788
  141OSM    H8S15427   3.516   5.919   6.939 -2.0336  1.8994 -2.1884
  141OSM    H8T15428   3.565   6.079   6.870 -2.2152  0.1902  0.1474
  141OSM    C9S15429   3.615   6.043   7.077 -0.0606 -0.5736  0.3912
  141OSM    H9S15430   3.673   6.137   7.070  2.2483 -1.8218  2.0844
  141OSM    H9T15431   3.679   5.970   7.131 -0.7370 -1.4265  0.0471
  141OSM   C10S15432   3.491   6.063   7.161 -1.0273  0.7965  0.2122
  141OSM   H10S15433   3.451   5.960   7.178  2.7002 -0.2390  3.2334
  141OSM   H10T15434   3.418   6.116   7.095 -1.7698 -1.2707 -0.6973
  141OSM   C11S15435   3.514   6.120   7.299 -0.1417 -0.5533  0.2669
  141OSM   H11S15436   3.439   6.201   7.315  2.2926  1.6297  0.9015
  141OSM   H11T15437   3.609   6.172   7.324 -0.5462 -0.0935  0.8588
  141OSM   C12S15438   3.494   6.015   7.406 -0.4969 -0.5308  0.1277
  141OSM   H12S15439   3.587   5.954   7.411 -0.7671 -0.8210  1.4718
  141OSM   H12T15440   3.405   5.952   7.387 -1.3525  1.0591 -1.3176
  141OSM   C13S15441   3.462   6.076   7.543 -0.1352  0.9550 -0.0844
  141OSM   H13S15442   3.401   6.168   7.530  1.6257  1.6151 -4.2454
  141OSM   H13T15443   3.557   6.112   7.587 -1.0222  2.6590  0.4798
  141OSM   C14S15444   3.401   5.980   7.652 -0.3198 -0.3276  0.0724
  141OSM   H14S15445   3.476   5.898   7.656  0.6398  0.5585  0.8650
  141OSM   H14T15446   3.304   5.934   7.624  1.3787 -3.7190 -0.5088
  141OSM   C15S15447   3.386   6.049   7.787 -0.1308 -0.3661  0.5366
  141OSM   H15S15448   3.316   6.135   7.784 -1.0152 -1.0926 -0.1524
  141OSM   H15T15449   3.477   6.093   7.832  0.0284 -1.2555  1.1027
  141OSM   C16S15450   3.332   5.944   7.889  0.2988  0.5057  0.3007
  141OSM   H16S15451   3.394   5.854   7.904 -1.8592 -0.8969  1.1431
  141OSM   H16T15452   3.233   5.905   7.858  0.9307 -1.0540  0.2454
  141OSM   C17S15453   3.321   6.003   8.033  0.1393  1.5899  0.2315
  141OSM   H17S15454   3.238   5.954   8.088  1.7109  0.4546  1.6505
  141OSM   H17T15455   3.289   6.109   8.024  1.1914  1.8839 -0.1467
  141OSM   C18S15456   3.454   5.999   8.106 -0.3145  0.6204 -0.1051
  141OSM   H18S15457   3.475   5.899   8.148  1.2970  0.1244 -2.0268
  141OSM   H18T15458   3.454   6.067   8.193 -1.5350  0.1983  0.2293
  141OSM   H18U15459   3.540   6.026   8.040 -0.1969 -3.0739 -1.5815
  141OSM    C1F15460   4.214   6.043   6.771  0.0603  0.5824 -1.4349
  141OSM     OF15461   4.237   6.149   6.720  0.2456 -0.2609  0.0562
  141OSM    C2F15462   4.244   6.021   6.917  0.3762 -0.3312  0.6824
  141OSM    H2F15463   4.354   6.017   6.925  0.4996 -2.2096 -1.4888
  141OSM    H2G15464   4.208   5.920   6.946  0.6695 -1.4389 -2.5667
  141OSM    C3F15465   4.186   6.132   7.013  0.6687  0.1647  0.1654
  141OSM    H3F15466   4.084   6.146   6.973  0.7736 -1.1193 -0.5716
  141OSM    H3G15467   4.252   6.221   7.004  1.1190 -0.3405 -1.6246
  141OSM    C4F15468   4.157   6.083   7.162  0.2802 -0.4106  0.1814
  141OSM    H4F15469   4.100   5.987   7.164 -0.5170  0.0729  1.5352
  141OSM    H4G15470   4.091   6.165   7.196 -0.5216 -0.0106 -2.2379
  141OSM    C5F15471   4.273   6.068   7.250  0.6683  0.1229  0.1680
  141OSM    H5F15472   4.323   6.166   7.240  0.6949  0.4102  2.8008
  141OSM    H5G15473   4.342   5.986   7.220  0.3788  0.3230 -1.0662
  141OSM    C6F15474   4.220   6.044   7.390  0.2924 -0.2467 -0.0603
  141OSM    H6F15475   4.178   5.941   7.379  1.1359 -0.6090  0.0518
  141OSM    H6G15476   4.136   6.112   7.416  1.7195  0.6864  2.2195
  141OSM    C7F15477   4.316   6.047   7.512  0.2825 -0.0130  1.0968
  141OSM    H7F15478   4.377   6.139   7.499 -1.5581  0.8401 -1.9037
  141OSM    H7G15479   4.375   5.952   7.507  1.0370  0.5358 -1.8349
  141OSM    C8F15480   4.232   6.036   7.638 -0.1084  0.8407  0.1934
  141OSM    H8F15481   4.258   5.942   7.692 -1.4486  0.5472  0.3541
  141OSM    H8G15482   4.126   6.026   7.608 -0.5434  0.4083  1.8227
  141OSM    C9F15483   4.251   6.163   7.724 -0.2011 -0.2873  0.1499
  141OSM    H9F15484   4.213   6.256   7.680  0.1300  0.0802  0.6427
  141OSM   C10F15485   4.305   6.174   7.852 -0.0841 -0.1498 -0.2776
  141OSM   H10F15486   4.305   6.275   7.895  1.0630 -0.1742 -0.2185
  141OSM   C11F15487   4.366   6.059   7.932 -0.0914 -0.2953  0.9848
  141OSM   H11F15488   4.460   6.091   7.983 -0.9055  1.1312  1.6228
  141OSM   H11G15489   4.378   5.969   7.867 -0.2874 -0.0572  0.6189
  141OSM   C12F15490   4.277   6.011   8.054 -0.0643  0.0673 -0.0949
  141OSM   H12F15491   4.320   5.917   8.094 -0.8684 -0.5047 -0.5753
  141OSM   H12G15492   4.175   5.979   8.024 -0.5102 -0.3883  1.8185
  141OSM   C13F15493   4.280   6.111   8.163  0.5100 -0.2053 -0.2826
  141OSM   H13F15494   4.288   6.213   8.120  1.5939 -0.5265 -0.8520
  141OSM   H13G15495   4.372   6.098   8.225 -0.8311  1.5346  2.1629
  141OSM   C14F15496   4.159   6.082   8.253 -0.6195 -0.8615 -0.8582
  141OSM   H14F15497   4.162   5.972   8.269 -2.8544 -0.9887 -1.1714
  141OSM   H14G15498   4.066   6.105   8.197  1.0008  2.2285 -2.4237
  141OSM   C15F15499   4.176   6.163   8.380  0.1667 -0.7290 -0.4543
  141OSM   H15F15500   4.282   6.169   8.413 -0.2160 -0.8398  0.8012
  141OSM   H15G15501   4.142   6.092   8.458  0.9197  0.3986  0.9051
  141OSM   C16F15502   4.109   6.295   8.401 -0.3564 -0.4593  0.5173
  141OSM   H16F15503   4.002   6.284   8.372  0.0669 -2.8763 -0.2799
  141OSM   H16G15504   4.147   6.373   8.332 -0.3104 -0.7408  0.2221
  141OSM   C17F15505   4.122   6.351   8.549  0.2395  0.1983  0.0637
  141OSM   H17F15506   4.220   6.330   8.597 -1.0969 -0.3148  2.6183
  141OSM   H17G15507   4.055   6.295   8.617 -0.5504 -0.2030 -1.0389
  141OSM   C18F15508   4.084   6.501   8.550  0.0708  0.5671  0.9887
  141OSM   H18F15509   4.082   6.541   8.654  0.5027 -2.4273  2.2017
  141OSM   H18G15510   3.981   6.511   8.510  0.6821  0.7063 -0.5798
  141OSM   H18H15511   4.141   6.571   8.485  1.0277 -1.1954 -0.1245
  142OSM      N15512   4.445   0.235   6.202  0.3575  0.3788  0.1310
  142OSM    C1515513   4.594   0.238   6.238 -0.1469 -0.0214  0.5354
  142OSM   H15A15514   4.620   0.337   6.273  2.0900 -0.7932  1.1158
  142OSM   H15B15515   4.659   0.221   6.153 -1.3930 -1.0147 -0.2376
  142OSM   H15C15516   4.612   0.169   6.319  1.0451  0.2292  0.4883
  142OSM    C1415517   4.406   0.348   6.114 -0.1159  0.1388  0.0497
  142OSM   H14A15518   4.415   0.443   6.164 -2.0850 -0.7236  2.1566
  142OSM   H14B15519   4.303   0.340   6.080 -0.3830 -0.8881  1.0968
  142OSM   H14C15520   4.468   0.350   6.026  1.1013  2.0891  0.9097
  142OSM    C1315521   4.419   0.104   6.138 -0.3577 -0.6193  0.2876
  142OSM   H13A15522   4.329   0.103   6.079  0.5883  0.7440 -1.2176
  142OSM   H13B15523   4.434   0.027   6.212  1.6749 -0.2498  0.2783
  142OSM   H13C15524   4.508   0.100   6.077  0.7899 -0.2459  1.9007
  142OSM    C1215525   4.359   0.239   6.327  0.3017  0.5361  0.3472
  142OSM   H12A15526   4.389   0.155   6.387 -0.3434 -0.9143 -1.3004
  142OSM   H12B15527   4.251   0.233   6.322  0.3160  1.0078 -0.6748
  142OSM    C1115528   4.381   0.365   6.417  0.1580 -0.0028  0.0422
  142OSM   H11A15529   4.489   0.372   6.441 -0.1877 -1.4802  2.1362
  142OSM   H11B15530   4.338   0.347   6.518  0.7455 -2.1721 -0.0844
  142OSM      P15531   4.178   0.524   6.379  0.2373 -0.1954  0.0397
  142OSM    O1315532   4.146   0.654   6.317  0.6365  0.0041 -0.7355
  142OSM    O1415533   4.083   0.409   6.361 -0.2418 -0.5836 -0.2464
  142OSM    O1115534   4.192   0.560   6.531  0.2883  0.7747 -0.2790
  142OSM    O1215535   4.329   0.482   6.358 -0.3449 -0.4441  0.2042
  142OSM    C1S15536   4.289   0.640   6.591  0.0803  0.0281 -0.1854
  142OSM    H1S15537   4.315   0.730   6.531 -1.2609  1.3645  1.1710
  142OSM    H1T15538   4.379   0.576   6.599 -0.2837 -0.5113 -0.4443
  142OSM     NF15539   4.344   0.774   6.800  0.1182 -0.0504 -0.0225
  142OSM    HNF15540   4.423   0.741   6.851  0.9518 -1.8566 -2.3422
  142OSM    C2S15541   4.261   0.666   6.743 -0.4912  0.3703 -0.1649
  142OSM    H2S15542   4.161   0.714   6.746  0.2251  1.9954 -1.6013
  142OSM    C3S15543   4.260   0.534   6.830  0.3275 -0.1012 -0.6516
  142OSM    H3S15544   4.361   0.491   6.814  0.4086 -0.5641  1.0583
  142OSM     O315545   4.168   0.435   6.786 -0.1929  0.1003 -0.5498
  142OSM    HO315546   4.147   0.467   6.698  0.4810  3.2675  0.3854
  142OSM    C4S15547   4.246   0.562   6.980  0.6512  0.0476 -0.3372
  142OSM    H4S15548   4.345   0.580   7.024 -0.0760 -0.4125  1.5189
  142OSM    C5S15549   4.128   0.575   7.053  0.6430 -0.1253 -0.0819
  142OSM    H5S15550   4.034   0.551   7.002  0.9372  1.1277 -1.2573
  142OSM    C6S15551   4.120   0.612   7.201  0.2984 -0.9503 -0.1769
  142OSM    H6S15552   4.056   0.539   7.254 -0.7134 -0.2336 -0.4030
  142OSM    H6T15553   4.069   0.711   7.209 -1.2807 -1.7774  0.1937
  142OSM    C7S15554   4.252   0.614   7.284 -0.0667  0.0515 -0.1583
  142OSM    H7S15555   4.324   0.680   7.232 -0.7302  0.5834 -0.4101
  142OSM    H7T15556   4.297   0.513   7.279 -0.8260 -0.2694 -0.5758
  142OSM    C8S15557   4.241   0.662   7.429  0.5398 -0.3739 -0.2462
  142OSM    H8S15558   4.210   0.769   7.421  2.2607  0.2810  1.3451
  142OSM    H8T15559   4.345   0.678   7.467  0.2136  4.2974 -0.9658
  142OSM    C9S15560   4.146   0.578   7.511  0.1471 -0.1818  0.0099
  142OSM    H9S15561   4.171   0.473   7.488  0.2905  0.3569 -2.4523
  142OSM    H9T15562   4.053   0.612   7.459 -0.6827  0.7150  2.0072
  142OSM   C10S15563   4.158   0.606   7.659 -0.4392  0.3672  0.6922
  142OSM   H10S15564   4.257   0.569   7.695  0.7167  0.4499 -2.2339
  142OSM   H10T15565   4.076   0.553   7.712  0.3619 -0.2410  1.3312
  142OSM   C11S15566   4.141   0.749   7.693  0.2238  0.5350  0.6576
  142OSM   H11S15567   4.044   0.794   7.662  0.7211  0.7766 -0.5807
  142OSM   H11T15568   4.225   0.806   7.648  0.9877 -0.7674  0.4007
  142OSM   C12S15569   4.148   0.779   7.841  0.6339  0.8435 -0.1707
  142OSM   H12S15570   4.146   0.887   7.869 -0.0087  1.6892 -3.2955
  142OSM   H12T15571   4.250   0.747   7.870  1.3532  1.3710 -2.0411
  142OSM   C13S15572   4.044   0.692   7.923 -0.1471 -0.4755  0.1423
  142OSM   H13S15573   4.062   0.585   7.899  2.1065  0.4644 -2.6014
  142OSM   H13T15574   3.940   0.714   7.889  1.1009  0.3494 -3.3851
  142OSM   C14S15575   4.045   0.711   8.070  0.4913 -0.1406 -0.3751
  142OSM   H14S15576   3.965   0.647   8.111  0.7996 -1.2169 -1.4140
  142OSM   H14T15577   4.036   0.819   8.094 -1.1214 -0.4271  0.3796
  142OSM   C15S15578   4.178   0.659   8.128 -0.0111 -0.5557  0.2483
  142OSM   H15S15579   4.253   0.733   8.093 -1.5623  1.3014  0.7866
  142OSM   H15T15580   4.195   0.560   8.081 -3.2956 -1.1557  0.1458
  142OSM   C16S15581   4.162   0.668   8.282  0.9056  0.1051 -0.1621
  142OSM   H16S15582   4.076   0.605   8.313  2.1094 -1.2494  0.4694
  142OSM   H16T15583   4.148   0.774   8.310  0.6436  0.2470 -0.8110
  142OSM   C17S15584   4.296   0.614   8.337 -0.2015  0.4316  0.0312
  142OSM   H17S15585   4.387   0.651   8.286 -1.2535  0.6979 -1.7153
  142OSM   H17T15586   4.300   0.504   8.322 -0.4915  0.0712  2.4307
  142OSM   C18S15587   4.311   0.629   8.486  0.3964  0.4565  0.1561
  142OSM   H18S15588   4.421   0.615   8.497  0.5294 -1.4563 -3.1117
  142OSM   H18T15589   4.260   0.554   8.549  2.3161 -1.9275 -1.0330
  142OSM   H18U15590   4.284   0.734   8.507  0.7221  1.0630 -2.2933
  142OSM    C1F15591   4.346   0.893   6.748 -0.5014 -0.9737 -0.0948
  142OSM     OF15592   4.271   0.922   6.656  0.6911 -0.2769 -0.3094
  142OSM    C2F15593   4.455   0.988   6.801  0.7421  0.2429 -0.3399
  142OSM    H2F15594   4.521   1.028   6.721 -0.8234  2.4861 -0.5464
  142OSM    H2G15595   4.532   0.927   6.853 -1.7970 -2.6576  0.1993
  142OSM    C3F15596   4.387   1.098   6.882  0.0304  0.1122  0.1022
  142OSM    H3F15597   4.305   1.146   6.825  0.1131 -0.8421 -0.8393
  142OSM    H3G15598   4.456   1.185   6.886 -0.0524  0.0947  2.6866
  142OSM    C4F15599   4.344   1.050   7.020 -0.3070 -0.2986  0.7033
  142OSM    H4F15600   4.283   0.958   7.014  0.2950 -0.5596 -2.3980
  142OSM    H4G15601   4.283   1.134   7.060 -0.7226 -0.1343 -0.2466
  142OSM    C5F15602   4.460   1.028   7.116 -0.4536 -0.3431  0.1382
  142OSM    H5F15603   4.527   1.117   7.114  0.0117 -0.6809  0.5468
  142OSM    H5G15604   4.504   0.930   7.089 -0.3413  0.8479 -4.3410
  142OSM    C6F15605   4.394   1.008   7.249  0.0947 -0.4439  1.0761
  142OSM    H6F15606   4.343   0.910   7.244 -2.8072  1.0911 -1.0316
  142OSM    H6G15607   4.322   1.089   7.272  0.3432  0.4716 -1.1996
  142OSM    C7F15608   4.497   1.001   7.366 -0.2471  0.2480  0.5018
  142OSM    H7F15609   4.587   1.066   7.355  1.1596 -1.7259  0.0433
  142OSM    H7G15610   4.541   0.898   7.363 -0.8186 -0.0023  0.7271
  142OSM    C8F15611   4.429   1.007   7.505 -0.0278 -0.0677 -0.4547
  142OSM    H8F15612   4.475   0.924   7.562 -0.2555 -0.4209 -0.7817
  142OSM    H8G15613   4.323   0.982   7.481  0.1594 -0.6604 -0.6705
  142OSM    C9F15614   4.444   1.138   7.585 -0.1289 -0.4862 -0.4067
  142OSM    H9F15615   4.446   1.229   7.524  1.7099  0.8050  1.5247
  142OSM   C10F15616   4.440   1.148   7.720 -0.0033 -0.0845 -0.1975
  142OSM   H10F15617   4.447   1.249   7.762 -0.3862  0.4591 -1.4045
  142OSM   C11F15618   4.426   1.040   7.824  0.3185 -0.4219  0.0560
  142OSM   H11F15619   4.515   0.975   7.815  0.4281 -0.2499 -0.1253
  142OSM   H11G15620   4.333   0.985   7.796  0.8370 -0.9760 -0.5834
  142OSM   C12F15621   4.420   1.082   7.967 -0.1722 -0.5359 -0.1402
  142OSM   H12F15622   4.381   0.989   8.013 -1.2605 -1.3845 -2.7000
  142OSM   H12G15623   4.340   1.157   7.984 -0.1304 -0.6708  0.6546
  142OSM   C13F15624   4.551   1.121   8.019  0.1060 -0.1232 -0.0203
  142OSM   H13F15625   4.589   1.207   7.960  0.4799 -0.5331 -0.3800
  142OSM   H13G15626   4.623   1.036   8.015 -0.4368 -0.5310 -2.8483
  142OSM   C14F15627   4.555   1.151   8.175  0.5284 -0.2068 -0.4564
  142OSM   H14F15628   4.498   1.242   8.203  1.5382 -0.5698  2.9044
  142OSM   H14G15629   4.656   1.168   8.216 -0.0552 -1.3364  1.4716
  142OSM   C15F15630   4.499   1.031   8.258 -0.5630 -0.3226  0.1716
  142OSM   H15F15631   4.528   0.932   8.217 -3.2846  0.1312 -3.1092
  142OSM   H15G15632   4.389   1.046   8.262 -0.5381  0.0417 -0.3700
  142OSM   C16F15633   4.552   1.031   8.401 -0.4839  0.5895  0.3735
  142OSM   H16F15634   4.477   0.985   8.469 -1.3685 -1.0779 -1.6567
  142OSM   H16G15635   4.569   1.137   8.427 -0.9315  0.8487 -0.3729
  142OSM   C17F15636   4.690   0.955   8.410 -0.2679 -0.8704  0.2699
  142OSM   H17F15637   4.764   1.014   8.468 -0.3405  0.3943 -0.8969
  142OSM   H17G15638   4.745   0.960   8.313 -0.6715 -0.1918  0.0753
  142OSM   C18F15639   4.676   0.811   8.458  0.1978 -0.4825 -0.4461
  142OSM   H18F15640   4.658   0.817   8.567 -0.1087 -2.5104 -0.3727
  142OSM   H18G15641   4.771   0.755   8.452  0.4053 -0.0363 -1.3515
  142OSM   H18H15642   4.596   0.751   8.411  0.7488 -0.5266 -1.3319
  143OSM      N15643   5.686   2.627   6.205 -0.3401 -0.6422 -0.0583
  143OSM    C1515644   5.752   2.715   6.113  0.3587 -0.6482 -0.1389
  143OSM   H15A15645   5.748   2.814   6.156 -0.2290 -0.5716 -0.3556
  143OSM   H15B15646   5.709   2.721   6.014  0.7428  2.7212 -0.1537
  143OSM   H15C15647   5.857   2.694   6.103  0.6453  1.4938 -2.0636
  143OSM    C1415648   5.539   2.652   6.193 -0.3919 -0.3254  0.6340
  143OSM   H14A15649   5.481   2.581   6.250 -1.2942  0.5410  0.8044
  143OSM   H14B15650   5.515   2.651   6.088 -2.1280  2.9214  0.9438
  143OSM   H14C15651   5.509   2.750   6.227 -1.0763  0.0544 -1.0142
  143OSM    C1315652   5.720   2.492   6.164  0.0853  0.0097 -0.7692
  143OSM   H13A15653   5.670   2.477   6.070 -0.7792  1.7455 -0.6004
  143OSM   H13B15654   5.694   2.425   6.245  1.6313 -1.0665 -1.1296
  143OSM   H13C15655   5.825   2.468   6.153  0.6046  1.7030  0.3104
  143OSM    C1215656   5.746   2.653   6.344 -0.3468 -0.3724  0.1061
  143OSM   H12A15657   5.850   2.625   6.333 -0.0663  1.2988 -1.6726
  143OSM   H12B15658   5.708   2.576   6.409 -0.6562  0.4018  0.8631
  143OSM    C1115659   5.750   2.793   6.422 -0.4427  0.7574  1.2760
  143OSM   H11A15660   5.805   2.791   6.519  2.1687 -0.8599 -0.1805
  143OSM   H11B15661   5.643   2.802   6.450 -0.3745  1.6720  1.2716
  143OSM      P15662   5.714   3.035   6.351 -0.6260 -0.0037  0.1862
  143OSM    O1315663   5.793   3.146   6.293 -0.0431 -0.1567 -0.3539
  143OSM    O1415664   5.582   3.017   6.287 -0.4175 -0.1009 -0.5022
  143OSM    O1115665   5.691   3.055   6.504 -0.1094  0.0224 -0.0888
  143OSM    O1215666   5.793   2.899   6.339 -1.2364 -0.1693  0.3831
  143OSM    C1S15667   5.804   3.072   6.596 -0.5044  0.5957  0.3126
  143OSM    H1S15668   5.851   3.170   6.573 -2.7026  1.6943  0.3831
  143OSM    H1T15669   5.882   2.993   6.590 -1.4197 -0.2187 -1.2561
  143OSM     NF15670   5.872   3.111   6.832 -0.1565 -0.0949 -0.0756
  143OSM    HNF15671   5.898   3.048   6.905  2.0347  0.4420 -0.3765
  143OSM    C2S15672   5.757   3.073   6.745 -0.2955 -0.2121  0.5348
  143OSM    H2S15673   5.679   3.149   6.767 -0.7219 -0.6212  0.4411
  143OSM    C3S15674   5.691   2.937   6.777 -0.0134 -0.3490  0.4502
  143OSM    H3S15675   5.756   2.847   6.770 -0.3147 -0.5255 -0.1138
  143OSM     O315676   5.575   2.920   6.699  0.1227 -0.2581 -0.6685
  143OSM    HO315677   5.607   2.947   6.613  1.3753 -0.6499 -0.3370
  143OSM    C4S15678   5.639   2.933   6.921 -0.3255 -0.7893 -1.5897
  143OSM    H4S15679   5.548   2.994   6.925  1.8767  2.5897 -0.6909
  143OSM    C5S15680   5.685   2.862   7.026 -0.1147  0.0716 -0.0229
  143OSM    H5S15681   5.773   2.797   7.014  0.5787  0.9238  0.3874
  143OSM    C6S15682   5.625   2.858   7.162  0.6297 -0.2651  0.6559
  143OSM    H6S15683   5.580   2.760   7.188 -0.7114  0.0144 -0.4880
  143OSM    H6T15684   5.549   2.937   7.177 -0.4146 -1.3856  1.3614
  143OSM    C7S15685   5.732   2.875   7.267  0.4223  0.2937  0.4910
  143OSM    H7S15686   5.782   2.974   7.257 -1.9898  1.6766  1.7009
  143OSM    H7T15687   5.813   2.801   7.252  0.0899  0.1401 -0.6165
  143OSM    C8S15688   5.675   2.860   7.401  0.0348 -0.0346 -0.4740
  143OSM    H8S15689   5.661   2.749   7.405  0.5763 -0.0924 -0.0742
  143OSM    H8T15690   5.581   2.918   7.404 -2.0169 -3.0305 -3.0564
  143OSM    C9S15691   5.764   2.896   7.524 -0.0745  0.8037 -0.2470
  143OSM    H9S15692   5.871   2.882   7.497  0.7966  2.6958  2.0360
  143OSM    H9T15693   5.741   2.828   7.608  1.8783  3.2672  2.3954
  143OSM   C10S15694   5.743   3.047   7.556 -0.1281 -0.0192 -0.1530
  143OSM   H10S15695   5.742   3.119   7.471 -0.6228  0.6199  0.3950
  143OSM   H10T15696   5.833   3.075   7.614 -0.8789 -1.6248  1.8231
  143OSM   C11S15697   5.632   3.080   7.654 -0.3725 -0.1106 -0.6168
  143OSM   H11S15698   5.535   3.070   7.601 -0.7242 -1.3700  0.2602
  143OSM   H11T15699   5.637   3.188   7.680 -2.1347 -0.6003  1.9987
  143OSM   C12S15700   5.640   3.010   7.794  0.1064 -0.0108 -0.2872
  143OSM   H12S15701   5.744   3.015   7.834 -0.7895  1.3259  1.9710
  143OSM   H12T15702   5.617   2.908   7.758  1.0626 -0.2943 -0.1071
  143OSM   C13S15703   5.546   3.079   7.902 -0.3829 -0.0995 -0.1720
  143OSM   H13S15704   5.457   3.125   7.854  0.2837 -0.1985 -1.5457
  143OSM   H13T15705   5.593   3.167   7.950 -0.2247 -0.0633 -0.3907
  143OSM   C14S15706   5.498   2.970   8.001 -0.1441  0.5456 -0.0684
  143OSM   H14S15707   5.437   3.020   8.080  0.3938 -0.5919  1.0945
  143OSM   H14T15708   5.593   2.925   8.038  0.7153  2.1920 -0.2402
  143OSM   C15S15709   5.418   2.857   7.941 -0.2653 -1.1299  0.0937
  143OSM   H15S15710   5.467   2.816   7.851  3.3015  0.8795  1.0366
  143OSM   H15T15711   5.313   2.878   7.911  0.4034  0.2570 -1.3098
  143OSM   C16S15712   5.399   2.737   8.031 -0.2817  0.2364  0.3568
  143OSM   H16S15713   5.493   2.727   8.089  2.0222  2.3424 -2.8819
  143OSM   H16T15714   5.384   2.646   7.968 -2.0655  0.6008  0.2382
  143OSM   C17S15715   5.285   2.750   8.135  0.4423  0.0890  0.0057
  143OSM   H17S15716   5.188   2.787   8.096 -0.6373 -1.8199  0.8392
  143OSM   H17T15717   5.320   2.826   8.209  0.6345 -0.7678  0.7988
  143OSM   C18S15718   5.251   2.617   8.198  0.5667 -0.8124  0.1075
  143OSM   H18S15719   5.159   2.615   8.260  1.9385 -0.6878  2.1957
  143OSM   H18T15720   5.331   2.578   8.264  0.0378  0.7197  1.6730
  143OSM   H18U15721   5.229   2.532   8.130  0.4178 -0.2742 -0.5205
  143OSM    C1F15722   5.898   3.237   6.831  0.0285 -0.3994  0.0901
  143OSM     OF15723   5.835   3.322   6.758 -0.1205 -0.4077  1.1032
  143OSM    C2F15724   6.009   3.282   6.925 -0.1425  0.5002 -0.1346
  143OSM    H2F15725   6.046   3.380   6.889 -0.1449  1.0876  1.4112
  143OSM    H2G15726   6.094   3.210   6.916  0.7646  1.5162  0.1286
  143OSM    C3F15727   5.963   3.285   7.075  0.3206  0.1158  0.2639
  143OSM    H3F15728   5.943   3.177   7.092 -2.6686  0.2878 -1.7814
  143OSM    H3G15729   5.875   3.352   7.078  1.2169  1.2759  0.9528
  143OSM    C4F15730   6.074   3.336   7.167  0.8940 -0.1386 -0.3101
  143OSM    H4F15731   6.037   3.345   7.271 -2.7259  1.9339 -1.6769
  143OSM    H4G15732   6.104   3.438   7.134 -2.6519  0.3783 -2.1763
  143OSM    C5F15733   6.202   3.241   7.168 -0.1856 -0.1899 -0.5460
  143OSM    H5F15734   6.281   3.273   7.097  0.2540 -0.1052 -0.0137
  143OSM    H5G15735   6.190   3.136   7.133 -1.2506  0.3482 -1.8505
  143OSM    C6F15736   6.279   3.235   7.298  0.2953  0.2257 -0.5792
  143OSM    H6F15737   6.285   3.341   7.331  1.9568  0.2015 -0.7327
  143OSM    H6G15738   6.385   3.203   7.284  0.4631 -0.1987  1.5202
  143OSM    C7F15739   6.214   3.147   7.410 -0.2027  0.0750  0.2000
  143OSM    H7F15740   6.239   3.038   7.410  0.3887  0.2040  1.0168
  143OSM    H7G15741   6.105   3.149   7.389 -0.1017  1.0163 -0.2451
  143OSM    C8F15742   6.262   3.190   7.552  0.1430 -0.0940  0.2449
  143OSM    H8F15743   6.232   3.294   7.575  2.1699  0.7778 -0.9321
  143OSM    H8G15744   6.373   3.184   7.549  0.1345 -0.2052  0.1119
  143OSM    C9F15745   6.189   3.106   7.658 -0.2952  0.4167  0.6719
  143OSM    H9F15746   6.088   3.075   7.626 -0.2562  2.4754 -1.5150
  143OSM   C10F15747   6.235   3.052   7.773  0.6168  0.2158 -0.0616
  143OSM   H10F15748   6.174   2.998   7.846  1.7611  1.4266  1.8158
  143OSM   C11F15749   6.379   3.073   7.815  0.3764 -0.4102  0.4358
  143OSM   H11F15750   6.412   3.168   7.768  1.8697 -0.7773  0.7335
  143OSM   H11G15751   6.443   2.987   7.787  1.2451 -0.3350  2.0723
  143OSM   C12F15752   6.415   3.099   7.958  0.0883  0.1746  0.6357
  143OSM   H12F15753   6.524   3.123   7.954  0.2809 -0.7048  0.6478
  143OSM   H12G15754   6.391   3.011   8.022  0.2471  1.0999  1.9994
  143OSM   C13F15755   6.341   3.223   8.019 -0.7955  0.2375  0.1201
  143OSM   H13F15756   6.231   3.219   8.004 -0.8323  1.2023  0.1113
  143OSM   H13G15757   6.378   3.317   7.973 -1.7528  0.6417  0.1690
  143OSM   C14F15758   6.363   3.215   8.175 -0.5541 -0.1445  0.2104
  143OSM   H14F15759   6.472   3.234   8.187 -0.4540 -0.2164 -0.5311
  143OSM   H14G15760   6.340   3.114   8.215 -0.9542 -0.4921 -0.8664
  143OSM   C15F15761   6.286   3.319   8.254  0.1388 -0.6916  0.0545
  143OSM   H15F15762   6.177   3.312   8.236  0.1336 -0.7592  0.1057
  143OSM   H15G15763   6.317   3.420   8.222 -4.0520 -0.2034 -2.8881
  143OSM   C16F15764   6.306   3.306   8.408 -0.0010 -0.5940  0.5548
  143OSM   H16F15765   6.236   3.385   8.445 -0.1181 -1.3049  1.8846
  143OSM   H16G15766   6.412   3.318   8.438  0.0397 -0.3400  0.3088
  143OSM   C17F15767   6.264   3.165   8.468 -0.2219  0.7930  0.3010
  143OSM   H17F15768   6.356   3.109   8.497 -0.6962  1.6664  3.6040
  143OSM   H17G15769   6.201   3.103   8.400 -1.2636  1.3813  0.7342
  143OSM   C18F15770   6.191   3.189   8.599 -0.0124  0.4320  0.6623
  143OSM   H18F15771   6.164   3.091   8.644  1.6794 -0.1641  0.4004
  143OSM   H18G15772   6.096   3.245   8.586 -0.3229  0.4545  2.8537
  143OSM   H18H15773   6.250   3.241   8.678  0.7791  0.1492  0.2632
  144OSM      N15774   4.795   2.757   5.885 -0.4008  0.1048 -0.2317
  144OSM    C1515775   4.939   2.746   5.911  0.3906  0.3811  0.4785
  144OSM   H15A15776   4.996   2.836   5.923  1.1094 -0.0928  0.6445
  144OSM   H15B15777   4.990   2.675   5.847 -1.4013 -0.0713 -0.4832
  144OSM   H15C15778   4.957   2.715   6.013  1.6899  0.8761  0.3973
  144OSM    C1415779   4.746   2.877   5.949 -0.2164 -0.3785 -1.1019
  144OSM   H14A15780   4.792   2.964   5.905 -2.9171  0.9048 -1.5197
  144OSM   H14B15781   4.766   2.882   6.055 -0.7947 -0.3986 -0.9916
  144OSM   H14C15782   4.640   2.887   5.933 -0.6203 -0.4618  1.3966
  144OSM    C1315783   4.774   2.780   5.737  1.2654  0.0093  0.5125
  144OSM   H13A15784   4.794   2.685   5.690  0.1992  0.4388 -0.8258
  144OSM   H13B15785   4.836   2.861   5.704  0.3259  0.3544 -0.4350
  144OSM   H13C15786   4.671   2.805   5.715  1.4095  0.1426  0.0021
  144OSM    C1215787   4.719   2.631   5.940  0.4257  0.4246  0.3765
  144OSM   H12A15788   4.732   2.638   6.047 -1.4961 -2.5181  0.8697
  144OSM   H12B15789   4.769   2.543   5.903 -1.1207 -0.4820  0.4110
  144OSM    C1115790   4.569   2.622   5.911  0.1592 -0.4448  0.0421
  144OSM   H11A15791   4.543   2.532   5.970  0.5782 -1.3817 -1.1794
  144OSM   H11B15792   4.556   2.600   5.803 -0.0129  0.0290 -0.0349
  144OSM      P15793   4.420   2.756   6.087 -0.7526 -0.2876 -0.0455
  144OSM    O1315794   4.326   2.865   6.089 -0.1615  0.1754 -0.2106
  144OSM    O1415795   4.356   2.637   6.157 -0.6971 -0.0354  0.3587
  144OSM    O1115796   4.546   2.801   6.169  0.4766  0.2941  0.4250
  144OSM    O1215797   4.476   2.737   5.941 -0.0013 -0.3611  0.0747
  144OSM    C1S15798   4.533   2.850   6.300 -0.8305 -0.3859 -0.7530
  144OSM    H1S15799   4.437   2.900   6.324  0.4188  3.5110 -3.4080
  144OSM    H1T15800   4.599   2.937   6.321 -1.6827  0.3433 -1.0669
  144OSM     NF15801   4.515   2.779   6.540 -0.0028 -0.4573 -0.5560
  144OSM    HNF15802   4.590   2.796   6.604 -0.4264  0.5110 -0.3238
  144OSM    C2S15803   4.559   2.738   6.408 -0.0379 -0.0575 -0.5697
  144OSM    H2S15804   4.501   2.652   6.369 -1.0291 -0.3634  1.5340
  144OSM    C3S15805   4.707   2.697   6.397 -0.0060 -0.0408  0.1593
  144OSM    H3S15806   4.754   2.788   6.441 -0.7031  0.4536 -0.1224
  144OSM     O315807   4.754   2.677   6.267 -0.0888  0.3335 -0.3123
  144OSM    HO315808   4.686   2.722   6.216 -1.0065 -2.5328 -1.7813
  144OSM    C4S15809   4.745   2.582   6.488  0.2587 -0.2714  0.5020
  144OSM    H4S15810   4.673   2.499   6.480 -2.3252  1.8511  1.1058
  144OSM    C5S15811   4.856   2.587   6.569 -1.0327 -0.7266 -0.4701
  144OSM    H5S15812   4.920   2.676   6.577 -1.4251 -0.4147 -0.7953
  144OSM    C6S15813   4.905   2.472   6.660  0.2657 -0.1590  0.0179
  144OSM    H6S15814   5.011   2.449   6.637 -0.3410 -3.7862  0.5313
  144OSM    H6T15815   4.842   2.382   6.645 -0.1211  0.0919  0.1382
  144OSM    C7S15816   4.890   2.530   6.800 -0.8785 -0.6440  0.4529
  144OSM    H7S15817   4.787   2.569   6.817 -0.4324  0.5777  0.4101
  144OSM    H7T15818   4.957   2.617   6.820 -1.1038  0.0342 -1.6290
  144OSM    C8S15819   4.908   2.428   6.917  0.4294  0.4856  0.2892
  144OSM    H8S15820   5.014   2.397   6.902 -0.2364 -0.6115 -2.5589
  144OSM    H8T15821   4.837   2.346   6.893 -0.6918  1.6465 -0.3949
  144OSM    C9S15822   4.885   2.498   7.051 -0.0942 -0.3034 -0.2865
  144OSM    H9S15823   4.781   2.537   7.053 -0.3805 -1.0956  1.0678
  144OSM    H9T15824   4.962   2.578   7.044 -1.4392  0.8720 -1.8521
  144OSM   C10S15825   4.897   2.416   7.175  0.3360  0.2915  0.2180
  144OSM   H10S15826   4.996   2.365   7.174  0.6388  0.8898 -0.6471
  144OSM   H10T15827   4.818   2.338   7.172 -1.9934  2.6569 -4.4889
  144OSM   C11S15828   4.897   2.493   7.308 -0.3738 -0.7039 -0.9808
  144OSM   H11S15829   4.809   2.560   7.296  0.8427  0.7863 -1.7594
  144OSM   H11T15830   4.990   2.553   7.308 -1.2391  0.7972  2.7186
  144OSM   C12S15831   4.882   2.405   7.439 -0.7983  0.2595  0.2457
  144OSM   H12S15832   4.964   2.330   7.449 -0.0081  0.7804 -2.1372
  144OSM   H12T15833   4.784   2.355   7.428 -0.3646 -0.2746 -1.3019
  144OSM   C13S15834   4.875   2.484   7.563  0.2117 -0.3716  0.3967
  144OSM   H13S15835   4.834   2.426   7.649  0.4574  0.6366  1.2033
  144OSM   H13T15836   4.804   2.569   7.569  0.1881 -0.5129  2.9328
  144OSM   C14S15837   5.013   2.547   7.606  0.2916 -0.0810  0.4005
  144OSM   H14S15838   5.041   2.639   7.551  2.5645  0.4491  2.3707
  144OSM   H14T15839   5.085   2.463   7.596  0.0240 -0.4599  1.5054
  144OSM   C15S15840   5.027   2.596   7.753 -0.4917 -0.4071 -0.8768
  144OSM   H15S15841   5.118   2.660   7.752 -2.1253  1.9842 -1.4292
  144OSM   H15T15842   5.039   2.500   7.808 -2.7329 -0.7112 -0.8723
  144OSM   C16S15843   4.915   2.685   7.792 -0.7408 -0.4328 -0.0571
  144OSM   H16S15844   4.821   2.627   7.779  0.2619 -2.1948  0.4142
  144OSM   H16T15845   4.901   2.762   7.712 -1.5652  0.0775  0.5727
  144OSM   C17S15846   4.939   2.750   7.926  0.6243 -0.0030 -0.4743
  144OSM   H17S15847   4.889   2.848   7.933  1.5235  0.2563  4.7543
  144OSM   H17T15848   5.047   2.769   7.941  0.0648  2.1128  1.1118
  144OSM   C18S15849   4.884   2.663   8.054 -0.7121  0.5611  0.4168
  144OSM   H18S15850   4.774   2.654   8.046 -0.8323  3.0654 -1.6572
  144OSM   H18T15851   4.912   2.735   8.134 -0.8029  0.6222  0.3931
  144OSM   H18U15852   4.933   2.564   8.059 -0.0116  0.7898 -1.5337
  144OSM    C1F15853   4.390   2.795   6.575  0.3432  0.1029  0.0565
  144OSM     OF15854   4.304   2.746   6.501  0.0222  0.0534 -0.3067
  144OSM    C2F15855   4.374   2.852   6.715 -0.0887  0.4168 -0.2311
  144OSM    H2F15856   4.428   2.949   6.719  0.3162  0.2023 -0.5033
  144OSM    H2G15857   4.420   2.777   6.783 -0.9263 -1.7510 -1.9971
  144OSM    C3F15858   4.230   2.890   6.756  0.2529 -0.0180 -0.7772
  144OSM    H3F15859   4.172   2.796   6.745 -2.7417  1.4169  1.9384
  144OSM    H3G15860   4.177   2.965   6.693 -1.6398 -0.4716  0.2701
  144OSM    C4F15861   4.219   2.940   6.900 -0.0814  0.9340 -0.3426
  144OSM    H4F15862   4.256   2.857   6.963 -1.3072 -0.7867 -1.8327
  144OSM    H4G15863   4.113   2.956   6.932 -0.1512 -1.3259  0.6540
  144OSM    C5F15864   4.295   3.070   6.944 -0.2970  0.3984  0.2381
  144OSM    H5F15865   4.265   3.157   6.882  0.2115  0.9779  0.7961
  144OSM    H5G15866   4.403   3.052   6.922 -0.2572  0.4214  0.4115
  144OSM    C6F15867   4.280   3.101   7.092  0.9019 -0.0643  0.7908
  144OSM    H6F15868   4.278   3.001   7.140  0.9929 -0.5853 -0.2702
  144OSM    H6G15869   4.181   3.148   7.109  0.9817  0.8093 -1.0042
  144OSM    C7F15870   4.399   3.173   7.154  0.2678 -0.0912 -0.3429
  144OSM    H7F15871   4.401   3.276   7.112 -0.7065 -0.0449 -0.2907
  144OSM    H7G15872   4.492   3.118   7.129  0.4775  0.0767  0.0672
  144OSM    C8F15873   4.395   3.185   7.308 -0.1061  0.3476 -0.0441
  144OSM    H8F15874   4.498   3.202   7.345  0.3559 -0.7463 -0.8196
  144OSM    H8G15875   4.349   3.097   7.357 -0.3217 -0.4028 -1.5636
  144OSM    C9F15876   4.312   3.303   7.347  0.8679  0.4844 -0.3856
  144OSM    H9F15877   4.219   3.309   7.288  0.6046  1.0036  0.0774
  144OSM   C10F15878   4.340   3.405   7.436  0.1248 -0.1711 -0.2520
  144OSM   H10F15879   4.268   3.488   7.432  0.3621  0.0736  0.6542
  144OSM   C11F15880   4.461   3.420   7.527  0.0452 -0.3602 -0.9401
  144OSM   H11F15881   4.506   3.512   7.483 -4.0900  1.7794 -1.0014
  144OSM   H11G15882   4.534   3.337   7.516  0.5728  0.0195 -0.3380
  144OSM   C12F15883   4.419   3.430   7.668 -0.2030  0.1660 -0.8269
  144OSM   H12F15884   4.369   3.338   7.704  0.8138 -0.0489  0.0785
  144OSM   H12G15885   4.360   3.522   7.687  0.5545  0.8946 -1.9231
  144OSM   C13F15886   4.540   3.453   7.760 -0.4233  0.6738 -0.0190
  144OSM   H13F15887   4.581   3.553   7.730  1.0256  0.8186  2.2961
  144OSM   H13G15888   4.625   3.381   7.755 -0.6397  0.3965  0.3065
  144OSM   C14F15889   4.504   3.456   7.909 -0.7757 -0.3517 -0.3236
  144OSM   H14F15890   4.456   3.363   7.945  1.9570 -0.4956  3.3163
  144OSM   H14G15891   4.421   3.529   7.922 -0.1528  0.0570  1.4875
  144OSM   C15F15892   4.622   3.499   8.000  0.4687  0.3290  0.0918
  144OSM   H15F15893   4.648   3.607   7.988  2.1469 -0.1384 -0.6547
  144OSM   H15G15894   4.703   3.427   7.975 -0.0789  0.0181 -0.7929
  144OSM   C16F15895   4.589   3.486   8.155  0.3207 -0.0240  0.6285
  144OSM   H16F15896   4.561   3.381   8.181 -0.0037 -0.2244 -0.5237
  144OSM   H16G15897   4.497   3.541   8.182 -0.0392 -0.8713  1.1511
  144OSM   C17F15898   4.705   3.532   8.248 -0.4064  0.2958 -0.1334
  144OSM   H17F15899   4.726   3.638   8.224  3.9287 -0.1461  1.2775
  144OSM   H17G15900   4.794   3.465   8.240  0.2659  1.1189  0.3627
  144OSM   C18F15901   4.663   3.530   8.398  0.0284  0.4866  0.2461
  144OSM   H18F15902   4.560   3.570   8.406  0.1743  0.9084  0.0259
  144OSM   H18G15903   4.719   3.593   8.470 -0.8353  0.3236  1.0766
  144OSM   H18H15904   4.651   3.429   8.442  0.3269  0.1638 -0.4050
  145SAPE     N15905   3.416   3.103  10.989 -0.1197 -0.1600  0.7072
  145SAPE   HN115906   3.473   3.061  11.065  0.0394  0.0368  0.6965
  145SAPE   HN215907   3.470   3.183  10.951 -1.3412 -0.5342 -1.9015
  145SAPE   HN315908   3.326   3.129  11.035 -0.5632 -1.6049  0.6935
  145SAPE   C1215909   3.393   3.001  10.882 -0.4853 -0.2719 -0.5376
  145SAPE  H12A15910   3.312   2.933  10.914 -1.2801  1.9736  2.4534
  145SAPE  H12B15911   3.490   2.947  10.876 -1.0087 -1.1335 -1.2003
  145SAPE   C1115912   3.363   3.076  10.750  0.4095 -0.3490 -0.6982
  145SAPE  H11A15913   3.259   3.115  10.751  0.9986  1.2351 -0.3933
  145SAPE  H11B15914   3.358   3.012  10.660 -2.0715  1.3874 -1.8303
  145SAPE     P15915   3.569   3.196  10.652 -0.4956  0.2963  0.6010
  145SAPE   O1315916   3.602   3.334  10.611 -0.5093 -0.9396 -0.0119
  145SAPE   O1415917   3.668   3.118  10.733  0.1823 -0.2631 -0.5576
  145SAPE   O1215918   3.438   3.195  10.734 -0.1101  0.4810  0.1466
  145SAPE   O1115919   3.528   3.114  10.532  0.2318 -0.5687 -0.2509
  145SAPE    C115920   3.430   3.153  10.432 -0.5947  0.4431 -0.9331
  145SAPE    HA15921   3.368   3.065  10.405  0.8381 -0.7808 -0.2897
  145SAPE    HB15922   3.366   3.236  10.471  1.0045  1.7891 -1.1078
  145SAPE    C215923   3.496   3.215  10.308 -0.3593 -0.3591 -0.0017
  145SAPE    HS15924   3.584   3.151  10.286 -1.1693 -1.3204 -0.4485
  145SAPE   O2115925   3.544   3.353  10.326 -0.1022  0.2427 -0.0354
  145SAPE   C2115926   3.660   3.382  10.261 -0.2387  0.3680 -0.4902
  145SAPE   O2215927   3.734   3.299  10.206 -0.0095  0.1203  0.2425
  145SAPE   C2215928   3.681   3.539  10.258 -0.4388 -0.0401 -0.4595
  145SAPE   H2R15929   3.600   3.586  10.198 -1.6920 -0.7489  0.6261
  145SAPE   H2S15930   3.670   3.571  10.364  0.8868 -0.6311 -0.1417
  145SAPE    C315931   3.403   3.213  10.184 -0.1188  0.3164 -0.1950
  145SAPE    HX15932   3.314   3.278  10.196  0.2895  0.6741  0.9398
  145SAPE    HY15933   3.362   3.110  10.179  0.8708 -0.1449  0.9708
  145SAPE   O3115934   3.470   3.240  10.065 -0.4918  0.3373 -0.2516
  145SAPE   C3115935   3.399   3.252   9.952 -0.1358 -0.7725 -0.1653
  145SAPE   O3215936   3.278   3.244   9.951  0.2561  0.5641  0.0012
  145SAPE   C3215937   3.489   3.281   9.826 -0.2069 -0.4160 -0.5642
  145SAPE   H2X15938   3.518   3.180   9.789  0.3464 -0.2594 -0.5702
  145SAPE   H2Y15939   3.584   3.327   9.860 -0.7638 -0.1845  0.7103
  145SAPE   C2315940   3.809   3.583  10.189  0.5900 -0.4119  0.5984
  145SAPE   H3R15941   3.901   3.532  10.226  1.2887 -0.0163 -0.5749
  145SAPE   H3S15942   3.824   3.693  10.196 -0.8487 -0.2281  1.0387
  145SAPE   C2415943   3.797   3.570  10.037  0.0380 -0.7676  0.1067
  145SAPE   H4R15944   3.698   3.611  10.008  0.9817  1.8492  0.4945
  145SAPE   H4S15945   3.798   3.460  10.024 -0.0101 -0.7746  0.1600
  145SAPE   C2515946   3.918   3.630   9.965  0.4114  0.2283  0.3506
  145SAPE   H5R15947   4.002   3.656  10.031 -1.3926  1.5489  2.1900
  145SAPE   C2615948   3.912   3.680   9.839 -0.5698 -0.1571 -0.0355
  145SAPE   H6R15949   4.000   3.723   9.790 -1.7184  0.2835 -1.7471
  145SAPE   C2715950   3.792   3.691   9.750  0.1969  0.0929  0.1879
  145SAPE   H7R15951   3.714   3.613   9.769  2.0078 -1.2316  2.4205
  145SAPE   H7S15952   3.819   3.658   9.647 -0.4773  0.8947 -0.2535
  145SAPE   C2815953   3.730   3.827   9.750  0.0160  0.3908  0.0079
  145SAPE   H8R15954   3.701   3.871   9.846  1.0297  1.4702 -0.1825
  145SAPE   C2915955   3.702   3.900   9.636  0.6237  0.6815 -0.0878
  145SAPE   H9R15956   3.646   3.992   9.655 -0.1389  0.3275 -0.5755
  145SAPE  C21015957   3.720   3.867   9.494 -0.2537  0.0142  0.4406
  145SAPE  H10R15958   3.628   3.822   9.452 -0.2136  0.1979  0.1549
  145SAPE  H10S15959   3.790   3.781   9.482 -0.2828  0.2584 -1.8345
  145SAPE  C21115960   3.762   3.997   9.419  0.2145 -0.1162 -0.0294
  145SAPE  H11R15961   3.753   4.087   9.483  1.8098 -0.4023  0.6203
  145SAPE  C21215962   3.791   3.999   9.288 -0.1591 -0.5867  0.2099
  145SAPE  H12R15963   3.825   4.096   9.248 -1.4001  0.2023  1.0422
  145SAPE  C21315964   3.777   3.879   9.196 -0.3882  0.4072  0.2187
  145SAPE  H13R15965   3.770   3.784   9.254 -1.9192  0.3716 -0.0257
  145SAPE  H13S15966   3.862   3.860   9.126 -2.4062 -1.2949 -1.8166
  145SAPE  C21415967   3.654   3.882   9.110 -0.6308  0.8208  0.5382
  145SAPE  H14R15968   3.556   3.890   9.159 -0.5912  1.3280  0.5407
  145SAPE  C21515969   3.651   3.869   8.982 -0.1725  0.8401  0.0761
  145SAPE  H15R15970   3.553   3.852   8.935  1.4633 -2.7428 -2.2471
  145SAPE  C21615971   3.761   3.858   8.879 -0.2041 -0.1454 -0.1474
  145SAPE  H16R15972   3.860   3.859   8.930  0.0738 -0.6270 -0.6806
  145SAPE  H16S15973   3.762   3.935   8.799 -2.2589 -1.4978 -1.5083
  145SAPE  C21715974   3.745   3.724   8.809 -0.2510  0.5511  0.1316
  145SAPE  H17R15975   3.640   3.701   8.782  0.7137  0.3718 -3.8155
  145SAPE  H17S15976   3.787   3.647   8.876  2.7979 -1.0485 -3.4060
  145SAPE  C21815977   3.831   3.712   8.683  0.6089  0.0806 -0.5530
  145SAPE  H18R15978   3.937   3.729   8.711  0.5400 -1.6863  0.8939
  145SAPE  H18S15979   3.799   3.786   8.607  0.6853 -1.0479 -1.6960
  145SAPE  C21915980   3.834   3.570   8.612 -0.3053 -0.0370 -0.1423
  145SAPE  H19R15981   3.886   3.499   8.680 -0.5696 -1.6491 -1.5683
  145SAPE  H19S15982   3.898   3.573   8.522  0.3052  0.6777  0.3131
  145SAPE  C22015983   3.688   3.519   8.594  0.7884 -0.0789 -0.0561
  145SAPE  H20R15984   3.643   3.499   8.693  0.6806 -1.2115 -0.3331
  145SAPE  H20S15985   3.681   3.422   8.541  0.2370  0.0762 -0.2752
  145SAPE  H20T15986   3.623   3.598   8.550 -0.0415  0.8715  2.7342
  145SAPE   C3315987   3.413   3.364   9.722  0.4966  0.3069 -0.8027
  145SAPE   H3X15988   3.365   3.455   9.765  0.1555  0.1944 -0.9451
  145SAPE   H3Y15989   3.327   3.306   9.683 -1.9242  4.0557 -1.2811
  145SAPE   C3415990   3.493   3.399   9.597 -0.7030 -0.7795 -0.1757
  145SAPE   H4X15991   3.576   3.325   9.583 -0.7271 -0.8422  0.0101
  145SAPE   H4Y15992   3.545   3.497   9.590 -2.2410 -0.0087 -0.9242
  145SAPE   C3515993   3.406   3.382   9.477  0.4220 -0.1995  0.1229
  145SAPE   H5X15994   3.310   3.438   9.475  0.8296  0.4898 -0.3958
  145SAPE   H5Y15995   3.368   3.279   9.462  0.8294 -0.4513  0.7611
  145SAPE   C3615996   3.464   3.427   9.346 -0.8706 -0.4756  0.1548
  145SAPE   H6X15997   3.569   3.453   9.372 -1.8016  2.0668  1.5070
  145SAPE   H6Y15998   3.419   3.525   9.319 -1.0756 -1.0946 -1.8329
  145SAPE   C3715999   3.447   3.335   9.219  0.1532 -0.1249  0.1447
  145SAPE   H7X16000   3.340   3.342   9.190  0.0083 -2.7630 -0.1229
  145SAPE   H7Y16001   3.474   3.231   9.249 -2.4849 -2.0490 -3.6568
  145SAPE   C3816002   3.550   3.369   9.102 -0.5939 -0.0950  0.1221
  145SAPE   H8X16003   3.533   3.308   9.011  1.9085 -0.2489 -0.2882
  145SAPE   H8Y16004   3.652   3.352   9.142  1.0930  1.5862 -3.2768
  145SAPE   C3916005   3.537   3.521   9.059  0.2113 -0.5357  0.0079
  145SAPE   H9X16006   3.611   3.534   8.977 -2.8127 -0.6114 -2.8834
  145SAPE   H9Y16007   3.566   3.588   9.143 -2.3906 -0.5176  0.9474
  145SAPE  C31016008   3.400   3.568   9.011  0.0241 -0.2732 -0.5752
  145SAPE  H10X16009   3.386   3.679   9.009  0.8568 -0.1661 -0.5982
  145SAPE  H10Y16010   3.325   3.542   9.089  0.9741 -0.1041  0.4080
  145SAPE  C31116011   3.356   3.517   8.873 -0.3872  0.4156  0.1650
  145SAPE  H11X16012   3.353   3.406   8.880 -0.2920  0.5527  3.0470
  145SAPE  H11Y16013   3.437   3.535   8.799  0.8439 -3.0102  0.5998
  145SAPE  C31216014   3.228   3.580   8.820 -0.2989  0.2626 -0.4207
  145SAPE  H12X16015   3.250   3.687   8.842  0.4090  0.1918 -0.7851
  145SAPE  H12Y16016   3.145   3.549   8.886 -0.3218 -2.1103 -1.5274
  145SAPE  C31316017   3.199   3.571   8.668 -0.2778  0.4428  0.5520
  145SAPE  H13X16018   3.249   3.650   8.609  0.3860  0.4697  1.1465
  145SAPE  H13Y16019   3.090   3.568   8.644 -0.6333  2.6391  1.7721
  145SAPE  C31416020   3.267   3.448   8.606  0.3407 -0.2980  0.7661
  145SAPE  H14X16021   3.255   3.356   8.667 -0.4419 -0.7662 -0.0859
  145SAPE  H14Y16022   3.376   3.464   8.598 -0.1794  1.6688 -4.9935
  145SAPE  C31516023   3.223   3.434   8.457 -0.2961 -0.6061  0.2108
  145SAPE  H15X16024   3.115   3.460   8.452  0.0592  0.8292 -0.0898
  145SAPE  H15Y16025   3.220   3.327   8.427 -0.5375 -0.7372  0.6865
  145SAPE  C31616026   3.315   3.507   8.358 -0.0301 -0.5249  0.0073
  145SAPE  H16X16027   3.418   3.467   8.367  0.6840  1.2031 -0.2743
  145SAPE  H16Y16028   3.325   3.612   8.394 -1.0433  0.2910 -2.0303
  145SAPE  C31716029   3.270   3.510   8.209 -0.1873 -0.0971  0.0661
  145SAPE  H17X16030   3.188   3.581   8.183 -2.3365 -1.7662  2.0432
  145SAPE  H17Y16031   3.229   3.408   8.195 -0.6472  0.2492 -1.1277
  145SAPE  C31816032   3.383   3.541   8.104  0.4078  0.2073  0.3410
  145SAPE  H18X16033   3.438   3.637   8.112 -3.3769  2.6916 -2.1430
  145SAPE  H18Y16034   3.354   3.529   7.997 -0.0934  1.2421  0.3630
  145SAPE  H18Z16035   3.460   3.463   8.121 -2.0831 -2.4687 -0.2914
  146SAPE     N16036   3.190   4.310  10.644  0.3228 -0.8507  0.1764
  146SAPE   HN116037   3.248   4.224  10.640  0.5200 -0.6540 -3.9734
  146SAPE   HN216038   3.179   4.340  10.544 -0.1085  0.0050  0.4677
  146SAPE   HN316039   3.240   4.381  10.701 -0.1138 -0.3649 -0.0365
  146SAPE   C1216040   3.054   4.275  10.682  0.9660  0.1901  0.5961
  146SAPE  H12A16041   3.050   4.281  10.792 -0.7003 -1.8904  0.6763
  146SAPE  H12B16042   3.033   4.172  10.646  0.2797  0.7875 -0.7807
  146SAPE   C1116043   2.965   4.383  10.619 -0.6241 -0.2349 -0.4472
  146SAPE  H11A16044   2.965   4.367  10.509 -1.2752  1.0723 -0.6532
  146SAPE  H11B16045   3.004   4.484  10.644 -3.5776 -0.0320  3.7553
  146SAPE     P16046   2.722   4.286  10.603  0.0988 -0.1404  0.1508
  146SAPE   O1316047   2.769   4.157  10.548 -0.1556  0.2927  0.6059
  146SAPE   O1416048   2.615   4.285  10.704 -0.3240 -0.1401  0.4638
  146SAPE   O1216049   2.837   4.356  10.674 -0.6254 -0.9461  0.1786
  146SAPE   O1116050   2.683   4.384  10.485 -0.6633  0.5324  0.2969
  146SAPE    C116051   2.633   4.512  10.500  0.2912 -0.4665  0.0417
  146SAPE    HA16052   2.522   4.504  10.490 -0.0071  1.8626  1.0973
  146SAPE    HB16053   2.658   4.555  10.600 -1.0598  2.4306 -0.7932
  146SAPE    C216054   2.685   4.598  10.383  0.9126 -0.0031 -0.1852
  146SAPE    HS16055   2.615   4.684  10.394  0.2524 -0.4002 -1.2123
  146SAPE   O2116056   2.676   4.530  10.262  0.0392  0.6503  0.5216
  146SAPE   C2116057   2.558   4.491  10.213 -0.0286 -0.3743  0.0811
  146SAPE   O2216058   2.446   4.515  10.261  0.6410  0.3962 -0.0244
  146SAPE   C2216059   2.569   4.389  10.099 -0.0453  0.7715  0.7424
  146SAPE   H2R16060   2.595   4.285  10.129 -0.4401  0.0970 -1.1622
  146SAPE   H2S16061   2.467   4.372  10.060  0.6218 -2.4319  0.2947
  146SAPE    C316062   2.829   4.642  10.401 -0.6767  0.8913 -0.2963
  146SAPE    HX16063   2.907   4.565  10.386 -0.8857  1.0952 -2.5770
  146SAPE    HY16064   2.845   4.686  10.502 -0.4307 -0.5990  0.3199
  146SAPE   O3116065   2.851   4.735  10.298 -0.4224 -0.5692 -0.0157
  146SAPE   C3116066   2.925   4.703  10.194  0.3101  0.3426 -0.7666
  146SAPE   O3216067   3.001   4.606  10.182  0.4701 -0.4012 -0.1457
  146SAPE   C3216068   2.895   4.798  10.078  0.0630 -0.1140  0.0631
  146SAPE   H2X16069   2.932   4.898  10.106 -0.3678  0.4014 -1.1578
  146SAPE   H2Y16070   2.784   4.805  10.079  0.1431  1.4991  3.1884
  146SAPE   C2316071   2.660   4.433   9.984  0.4502  0.3896 -0.5132
  146SAPE   H3R16072   2.677   4.348   9.913 -1.2490 -0.7718  0.4448
  146SAPE   H3S16073   2.755   4.463  10.033 -1.5158  0.6277  3.2516
  146SAPE   C2416074   2.608   4.553   9.903  0.1406 -0.5832  0.1111
  146SAPE   H4R16075   2.673   4.595   9.822 -2.6519  2.0376 -0.8737
  146SAPE   H4S16076   2.610   4.640   9.973  1.6823 -0.1424 -0.4466
  146SAPE   C2516077   2.471   4.523   9.845 -0.2375 -0.2045  0.1981
  146SAPE   H5R16078   2.464   4.419   9.810  1.0463 -0.2548  0.0411
  146SAPE   C2616079   2.373   4.613   9.847 -0.1470  1.0320  0.2510
  146SAPE   H6R16080   2.273   4.585   9.811 -0.2375 -2.8517  3.1848
  146SAPE   C2716081   2.368   4.749   9.908  0.0558 -0.6255 -0.4234
  146SAPE   H7R16082   2.311   4.821   9.845 -0.2341 -0.5198 -0.0393
  146SAPE   H7S16083   2.467   4.798   9.905 -0.7822  1.1888  0.6683
  146SAPE   C2816084   2.308   4.749  10.045  0.1260 -0.5179  0.2896
  146SAPE   H8R16085   2.372   4.739  10.134  0.3056 -0.6837  0.1394
  146SAPE   C2916086   2.178   4.776  10.054  0.3786  0.1670  0.0671
  146SAPE   H9R16087   2.130   4.761  10.152 -0.9579  0.8532 -0.4747
  146SAPE  C21016088   2.082   4.790   9.936  0.3161 -0.1088  0.7120
  146SAPE  H10R16089   2.100   4.704   9.869 -2.9420  0.6953 -1.2960
  146SAPE  H10S16090   2.119   4.882   9.886 -0.7735 -1.0191 -1.8102
  146SAPE  C21116091   1.931   4.803   9.955 -0.1293  0.5726 -0.2027
  146SAPE  H11R16092   1.905   4.871  10.038 -0.4195 -0.4700  0.5740
  146SAPE  C21216093   1.835   4.762   9.870  0.2432  0.3260  0.1892
  146SAPE  H12R16094   1.732   4.789   9.897 -0.2584  0.1862 -1.5039
  146SAPE  C21316095   1.836   4.690   9.733 -0.2610  0.6165  0.7115
  146SAPE  H13R16096   1.767   4.604   9.744  0.9999 -0.2381  2.1897
  146SAPE  H13S16097   1.935   4.650   9.700 -0.9284 -0.0952 -0.4567
  146SAPE  C21416098   1.780   4.787   9.635 -0.5444  0.5031  0.3020
  146SAPE  H14R16099   1.780   4.886   9.681  2.5326  0.6600  0.0726
  146SAPE  C21516100   1.743   4.751   9.512 -0.0877 -0.1221  0.3006
  146SAPE  H15R16101   1.711   4.817   9.429 -1.6444 -0.7771  0.3532
  146SAPE  C21616102   1.751   4.605   9.475  0.2511 -0.1461  0.7388
  146SAPE  H16R16103   1.674   4.544   9.526 -0.8518 -0.4192 -1.1830
  146SAPE  H16S16104   1.844   4.554   9.508  0.5442  0.6552  1.1622
  146SAPE  C21716105   1.732   4.592   9.326 -0.3316 -0.0578  0.3332
  146SAPE  H17R16106   1.646   4.647   9.284  0.1661 -0.3536 -1.1154
  146SAPE  H17S16107   1.709   4.484   9.313 -1.1403  0.1814 -0.2207
  146SAPE  C21816108   1.849   4.641   9.237 -0.4377 -0.3313 -0.7951
  146SAPE  H18R16109   1.917   4.554   9.224  1.1784  1.0631 -1.9342
  146SAPE  H18S16110   1.892   4.725   9.296 -0.5606 -0.2020 -0.8899
  146SAPE  C21916111   1.811   4.679   9.097  0.6131  0.3995  0.0413
  146SAPE  H19R16112   1.731   4.756   9.098 -0.6390 -0.7493 -3.1716
  146SAPE  H19S16113   1.766   4.591   9.046 -0.2272  0.7157  0.2232
  146SAPE  C22016114   1.935   4.736   9.023 -0.0073  0.0619  0.1910
  146SAPE  H20R16115   1.955   4.844   9.041  0.0225  0.0698  0.1130
  146SAPE  H20S16116   1.923   4.721   8.913 -1.2309  0.8463  0.1997
  146SAPE  H20T16117   2.029   4.689   9.056 -2.1097 -2.6232  2.5950
  146SAPE   C3316118   2.954   4.750   9.946 -0.7636  0.5905  0.1101
  146SAPE   H3X16119   2.922   4.645   9.925 -1.7187  0.9129 -0.0906
  146SAPE   H3Y16120   3.063   4.760   9.930 -0.9434 -0.2564 -1.8260
  146SAPE   C3416121   2.901   4.827   9.821  0.2048  0.7601  0.2781
  146SAPE   H4X16122   2.959   4.922   9.821  3.0175 -0.8651  2.5975
  146SAPE   H4Y16123   2.792   4.848   9.827  0.5175  2.3880  0.5316
  146SAPE   C3516124   2.932   4.746   9.697  0.8110 -0.9376  0.2569
  146SAPE   H5X16125   2.884   4.646   9.707 -0.7576 -0.0183  2.1806
  146SAPE   H5Y16126   3.040   4.720   9.694  0.8700 -0.6395 -0.2200
  146SAPE   C3616127   2.870   4.813   9.575  0.3850 -0.3282  0.9016
  146SAPE   H6X16128   2.904   4.917   9.554 -1.9683  0.3578  0.3155
  146SAPE   H6Y16129   2.759   4.814   9.581  0.4333  0.8368  1.7708
  146SAPE   C3716130   2.902   4.748   9.438 -0.0491  0.5311 -0.2151
  146SAPE   H7X16131   2.847   4.652   9.422  0.2745  0.5400 -1.4063
  146SAPE   H7Y16132   3.008   4.716   9.434  0.2304  1.3856  0.2795
  146SAPE   C3816133   2.872   4.840   9.317 -0.3119  0.0174 -0.4233
  146SAPE   H8X16134   2.962   4.903   9.301 -0.5626  0.8471  1.3876
  146SAPE   H8Y16135   2.782   4.899   9.342 -0.1519 -0.7717  2.1976
  146SAPE   C3916136   2.855   4.767   9.181 -0.1563 -0.3409 -0.2631
  146SAPE   H9X16137   2.938   4.698   9.155  0.5080  0.4016 -0.1220
  146SAPE   H9Y16138   2.850   4.850   9.107 -0.1981 -0.8914 -0.8817
  146SAPE  C31016139   2.731   4.680   9.167  0.3419 -0.1126 -0.1789
  146SAPE  H10X16140   2.643   4.725   9.219  0.9423 -0.9686  1.6016
  146SAPE  H10Y16141   2.754   4.584   9.218 -1.4469 -2.0188 -2.7839
  146SAPE  C31116142   2.704   4.665   9.014  0.7426 -0.4001 -0.5420
  146SAPE  H11X16143   2.794   4.614   8.973  2.9132  2.8376  0.0049
  146SAPE  H11Y16144   2.693   4.771   8.982  0.1120  0.3080  1.9152
  146SAPE  C31216145   2.571   4.589   8.981  0.7541 -0.0714 -0.2354
  146SAPE  H12X16146   2.578   4.482   9.012  0.8241  0.3453  1.2231
  146SAPE  H12Y16147   2.560   4.592   8.871  0.5435  2.5906 -0.1632
  146SAPE  C31316148   2.455   4.653   9.042  0.2104  0.6744 -0.1347
  146SAPE  H13X16149   2.466   4.763   9.035 -0.7736  0.8754  1.2163
  146SAPE  H13Y16150   2.444   4.620   9.148 -0.6207 -0.2318 -0.4998
  146SAPE  C31416151   2.318   4.628   8.973  0.0288  0.2992 -0.8496
  146SAPE  H14X16152   2.330   4.654   8.866  1.7502  1.1068 -0.4769
  146SAPE  H14Y16153   2.242   4.694   9.019  0.0538  0.3400 -0.8661
  146SAPE  C31516154   2.274   4.478   8.977 -0.7962 -0.5215 -0.1286
  146SAPE  H15X16155   2.175   4.475   9.027 -1.8548 -2.4947 -2.2714
  146SAPE  H15Y16156   2.343   4.412   9.033 -1.4280  1.7282  3.4473
  146SAPE  C31616157   2.239   4.407   8.843 -0.1677 -0.1937  0.0365
  146SAPE  H16X16158   2.146   4.458   8.809  0.1294 -0.3032 -0.9607
  146SAPE  H16Y16159   2.223   4.299   8.864 -2.0016 -0.3387 -1.9230
  146SAPE  C31716160   2.348   4.404   8.736 -0.1027 -0.5093 -0.5671
  146SAPE  H17X16161   2.440   4.355   8.775  2.0656  1.7841 -2.6246
  146SAPE  H17Y16162   2.386   4.504   8.708  0.0586 -0.5449 -0.4785
  146SAPE  C31816163   2.311   4.339   8.601 -0.1660 -1.0350 -0.3847
  146SAPE  H18X16164   2.257   4.419   8.547  1.5313  0.0357 -0.5256
  146SAPE  H18Y16165   2.247   4.250   8.619 -1.9681  0.8302  2.7936
  146SAPE  H18Z16166   2.407   4.317   8.549  2.3953  0.2350  3.5774
  147SAPE     N16167   3.258   0.968  10.906 -0.3088 -0.5195  0.2707
  147SAPE   HN116168   3.311   0.923  10.983 -1.0465 -1.5685  0.1744
  147SAPE   HN216169   3.164   1.005  10.930 -1.2013 -0.4345 -3.0852
  147SAPE   HN316170   3.247   0.898  10.830 -0.4850 -0.9313  0.6717
  147SAPE   C1216171   3.350   1.075  10.846  0.3489 -0.6266  0.7128
  147SAPE  H12A16172   3.376   1.144  10.929 -0.8680  0.8627 -0.1184
  147SAPE  H12B16173   3.288   1.137  10.777 -1.8125 -2.2428  1.1476
  147SAPE   C1116174   3.466   1.007  10.775  0.7681  0.7812 -0.4168
  147SAPE  H11A16175   3.542   1.078  10.735  0.5347  1.4185  0.2580
  147SAPE  H11B16176   3.436   0.944  10.688  0.0003  0.3306  0.1644
  147SAPE     P16177   3.639   0.987  10.954 -0.1425 -0.4359 -0.0190
  147SAPE   O1316178   3.710   1.082  10.872 -0.1898  0.1054 -0.3584
  147SAPE   O1416179   3.582   1.031  11.089  0.2332  0.6763  0.2873
  147SAPE   O1216180   3.534   0.913  10.866 -0.1424 -0.6498 -0.5369
  147SAPE   O1116181   3.747   0.878  10.985  0.3816 -0.1177 -0.5061
  147SAPE    C116182   3.717   0.741  11.005 -0.2836 -0.0494 -0.1498
  147SAPE    HA16183   3.740   0.712  11.110 -0.1800 -0.5319 -0.3078
  147SAPE    HB16184   3.608   0.721  10.995  0.0550 -2.3344  0.5484
  147SAPE    C216185   3.805   0.652  10.914 -0.1368 -0.0447  0.4051
  147SAPE    HS16186   3.912   0.645  10.942  0.0325 -3.5878 -0.9132
  147SAPE   O2116187   3.782   0.676  10.772 -0.1128 -0.1871 -0.3975
  147SAPE   C2116188   3.846   0.781  10.727 -0.5762 -0.5119 -0.1146
  147SAPE   O2216189   3.929   0.847  10.786  0.1453  0.3879 -0.0259
  147SAPE   C2216190   3.801   0.804  10.585  0.0353  0.1159  0.5407
  147SAPE   H2R16191   3.695   0.834  10.574  0.1037 -0.0613 -0.6848
  147SAPE   H2S16192   3.861   0.892  10.553 -2.0988  0.9863 -1.1995
  147SAPE    C316193   3.764   0.501  10.933 -0.0541  0.5595 -0.5232
  147SAPE    HX16194   3.660   0.487  10.898  0.3951 -2.4676 -0.7205
  147SAPE    HY16195   3.750   0.484  11.042  0.4854  0.2829 -0.4942
  147SAPE   O3116196   3.868   0.419  10.879 -0.4226 -0.1791 -0.3595
  147SAPE   C3116197   3.829   0.331  10.787 -0.9905  0.1922  0.5040
  147SAPE   O3216198   3.727   0.317  10.724 -0.0964 -0.5446  0.1624
  147SAPE   C3216199   3.955   0.248  10.757 -0.2854  0.2283  0.2437
  147SAPE   H2X16200   3.996   0.206  10.851  0.7656  0.3009 -0.1829
  147SAPE   H2Y16201   4.035   0.318  10.726  0.2967 -0.4778  0.1157
  147SAPE   C2316202   3.839   0.694  10.483  0.2323  0.4056 -0.1831
  147SAPE   H3R16203   3.843   0.736  10.381 -2.5076  0.6187 -0.2202
  147SAPE   H3S16204   3.754   0.623  10.490  0.7628 -0.2578 -0.3732
  147SAPE   C2416205   3.966   0.603  10.511 -0.8842  0.3917  0.1461
  147SAPE   H4R16206   3.945   0.517  10.444  0.5705 -1.0178  1.4461
  147SAPE   H4S16207   3.997   0.562  10.609  1.0248  2.0867  0.2742
  147SAPE   C2516208   4.091   0.673  10.458  0.7363 -0.0705 -0.5052
  147SAPE   H5R16209   4.148   0.719  10.540  0.8170 -2.9890  1.1460
  147SAPE   C2616210   4.132   0.681  10.330  0.2732 -0.1380  0.3446
  147SAPE   H6R16211   4.217   0.748  10.311  1.5690 -0.9103  3.1751
  147SAPE   C2716212   4.048   0.647  10.207  0.4597  0.5951  0.4128
  147SAPE   H7R16213   3.956   0.589  10.227  1.1514 -1.0236 -0.9121
  147SAPE   H7S16214   4.107   0.579  10.141  0.7004  1.0690  0.1366
  147SAPE   C2816215   4.012   0.776  10.137  0.0642 -0.8298 -0.8306
  147SAPE   H8R16216   3.937   0.834  10.191  1.7734  1.2046 -0.5777
  147SAPE   C2916217   4.064   0.824  10.024  0.5914 -0.2371  0.2770
  147SAPE   H9R16218   4.041   0.926   9.991 -1.7091 -0.4850  0.9912
  147SAPE  C21016219   4.172   0.754   9.947 -0.0321  0.8580 -0.6296
  147SAPE  H10R16220   4.127   0.693   9.867 -0.6499 -0.7282  0.8909
  147SAPE  H10S16221   4.231   0.675   9.999 -1.6935 -0.1620 -0.2682
  147SAPE  C21116222   4.277   0.851   9.906  0.4578 -0.3326  0.2230
  147SAPE  H11R16223   4.371   0.871   9.961  1.2058  0.2446 -1.2268
  147SAPE  C21216224   4.271   0.915   9.792  0.6682  0.4422  0.1732
  147SAPE  H12R16225   4.349   0.987   9.765  0.3498  1.0218  0.7823
  147SAPE  C21316226   4.159   0.891   9.686  0.3734 -0.2970 -0.3627
  147SAPE  H13R16227   4.148   0.983   9.626  1.0227  0.4994  0.7092
  147SAPE  H13S16228   4.054   0.888   9.724  0.3943 -0.1388 -0.2874
  147SAPE  C21416229   4.184   0.782   9.592  0.1972 -0.8815  0.0472
  147SAPE  H14R16230   4.105   0.706   9.606 -0.3989 -0.4652 -1.0150
  147SAPE  C21516231   4.293   0.760   9.513 -0.4935 -0.1267 -1.0040
  147SAPE  H15R16232   4.304   0.663   9.461  1.0136 -0.5614  0.0774
  147SAPE  C21616233   4.414   0.849   9.497 -0.0994  0.3085  0.2429
  147SAPE  H16R16234   4.504   0.796   9.534  0.9232  1.8727  0.0605
  147SAPE  H16S16235   4.401   0.938   9.563 -2.0029  0.9132 -0.8833
  147SAPE  C21716236   4.450   0.908   9.361  0.1554 -0.1567 -0.3714
  147SAPE  H17R16237   4.527   0.987   9.371  0.1762 -0.2683  0.3872
  147SAPE  H17S16238   4.354   0.957   9.331 -0.4359  0.0099  1.6955
  147SAPE  C21816239   4.485   0.811   9.247  0.0267 -0.3555 -0.0489
  147SAPE  H18R16240   4.395   0.750   9.224  1.2189 -1.9084 -0.7349
  147SAPE  H18S16241   4.567   0.744   9.282 -1.0753 -2.7787 -1.9516
  147SAPE  C21916242   4.528   0.895   9.129  0.3071 -0.2655  0.3891
  147SAPE  H19R16243   4.607   0.964   9.168 -0.0160  0.2606  0.1214
  147SAPE  H19S16244   4.446   0.965   9.102  0.5463 -0.2604 -0.3241
  147SAPE  C22016245   4.589   0.818   9.004  0.1655  0.0191 -0.2587
  147SAPE  H20R16246   4.517   0.763   8.939 -0.2774 -0.3428  0.5342
  147SAPE  H20S16247   4.660   0.747   9.051  1.2199  0.4828 -1.1329
  147SAPE  H20T16248   4.644   0.888   8.937 -1.7470  0.4732 -1.3996
  147SAPE   C3316249   3.955   0.142  10.638 -0.2563 -0.2122  0.3937
  147SAPE   H3X16250   3.854   0.095  10.635 -1.2382  1.9430 -2.0170
  147SAPE   H3Y16251   4.027   0.058  10.644  0.4652  0.3684  0.0070
  147SAPE   C3416252   3.982   0.212  10.502 -0.8654 -0.1366  0.2347
  147SAPE   H4X16253   4.068   0.281  10.514 -0.8665 -0.3763  1.7123
  147SAPE   H4Y16254   3.891   0.274  10.485  0.4442  1.3033 -1.6547
  147SAPE   C3516255   3.997   0.127  10.376 -0.0269  0.1658 -0.5780
  147SAPE   H5X16256   3.924   0.045  10.359 -0.3103  0.4146 -0.5526
  147SAPE   H5Y16257   4.100   0.087  10.364  1.0022  1.4242  3.2191
  147SAPE   C3616258   3.986   0.214  10.246  0.0108  0.5659  0.5473
  147SAPE   H6X16259   4.067   0.290  10.252 -1.1013  1.9796 -1.5186
  147SAPE   H6Y16260   3.894   0.275  10.246  0.2701  0.9596  1.8864
  147SAPE   C3716261   3.988   0.130  10.123  0.0914 -0.3379  0.2547
  147SAPE   H7X16262   3.924   0.040  10.133  0.9627 -0.8569  1.3287
  147SAPE   H7Y16263   4.093   0.104  10.098  0.7493  1.1561  1.3722
  147SAPE   C3816264   3.943   0.201   9.991  0.5412 -0.4838 -0.1397
  147SAPE   H8X16265   3.838   0.235  10.006  0.4947 -1.4687  1.9734
  147SAPE   H8Y16266   3.945   0.111   9.925 -0.1003 -1.0293  0.5754
  147SAPE   C3916267   4.029   0.323   9.947  0.9960  0.0271 -0.2036
  147SAPE   H9X16268   4.135   0.290   9.951  1.1998  0.7101  0.1120
  147SAPE   H9Y16269   4.012   0.402  10.024  1.3715  2.6072 -2.6644
  147SAPE  C31016270   4.002   0.377   9.809 -0.6306 -0.2758 -0.1361
  147SAPE  H10X16271   4.018   0.487   9.816 -0.8736 -0.1743 -1.0423
  147SAPE  H10Y16272   3.897   0.350   9.786 -1.2725  0.5856  1.6845
  147SAPE  C31116273   4.105   0.323   9.706  0.6369  0.4753  0.0397
  147SAPE  H11X16274   4.087   0.213   9.714 -1.2035  0.7646 -0.1469
  147SAPE  H11Y16275   4.210   0.333   9.741  0.6545 -0.0197  0.1449
  147SAPE  C31216276   4.086   0.370   9.560  0.0354  0.2852  0.0708
  147SAPE  H12X16277   4.147   0.319   9.483 -1.0721 -1.2056  0.1449
  147SAPE  H12Y16278   4.100   0.479   9.545  0.2101  0.0252 -1.7437
  147SAPE  C31316279   3.947   0.342   9.511  0.1523 -0.4134  0.5454
  147SAPE  H13X16280   3.872   0.386   9.581 -0.8457  1.1080 -1.4230
  147SAPE  H13Y16281   3.934   0.232   9.514  0.5755 -0.4515  1.1131
  147SAPE  C31416282   3.915   0.427   9.388 -0.5169  0.1032  0.0776
  147SAPE  H14X16283   3.979   0.392   9.304  1.2463 -0.7521  1.7323
  147SAPE  H14Y16284   3.948   0.532   9.399 -0.6218  0.1117  0.3097
  147SAPE  C31516285   3.772   0.405   9.347  0.9927  0.6619 -0.4261
  147SAPE  H15X16286   3.712   0.463   9.421  1.3156  0.4369  0.0132
  147SAPE  H15Y16287   3.746   0.297   9.357  1.0535  0.6213 -0.6960
  147SAPE  C31616288   3.730   0.442   9.204  0.0298 -0.5792  0.2712
  147SAPE  H16X16289   3.747   0.551   9.194  2.1286 -0.9825 -0.9618
  147SAPE  H16Y16290   3.620   0.432   9.191 -0.0288  0.3008  0.0964
  147SAPE  C31716291   3.799   0.363   9.092 -0.4983  0.3554 -0.5957
  147SAPE  H17X16292   3.775   0.255   9.097  0.9956  0.0137 -0.5304
  147SAPE  H17Y16293   3.910   0.361   9.107 -0.2932  0.6508 -2.0680
  147SAPE  C31816294   3.761   0.413   8.947  0.7964  0.7052  0.1706
  147SAPE  H18X16295   3.651   0.427   8.936  0.9825  2.0090 -0.0385
  147SAPE  H18Y16296   3.804   0.338   8.876 -2.5065  1.0649 -2.3480
  147SAPE  H18Z16297   3.818   0.508   8.944  2.1107 -0.1127 -3.6080
  148SAPE     N16298   5.614   1.634  10.672 -0.2243 -0.4259 -0.6814
  148SAPE   HN116299   5.576   1.544  10.709  1.5760 -1.1853 -0.6095
  148SAPE   HN216300   5.717   1.626  10.665 -0.0504 -0.6002  1.4916
  148SAPE   HN316301   5.592   1.712  10.737  0.7628 -1.1448  0.5370
  148SAPE   C1216302   5.574   1.648  10.529 -0.4103 -0.5005  1.1438
  148SAPE  H12A16303   5.652   1.587  10.479 -0.0066  0.6825  0.3031
  148SAPE  H12B16304   5.601   1.750  10.494  4.5286 -2.5541 -1.6171
  148SAPE   C1116305   5.437   1.574  10.503 -0.4529  0.0364  0.1896
  148SAPE  H11A16306   5.438   1.471  10.545 -0.8986  1.0128  2.6696
  148SAPE  H11B16307   5.424   1.566  10.393  1.8977  0.6446 -0.1443
  148SAPE     P16308   5.292   1.790  10.496 -0.1756 -0.1618  0.2373
  148SAPE   O1316309   5.148   1.799  10.525  0.0895  0.5654  0.1421
  148SAPE   O1416310   5.372   1.892  10.562  0.1096  0.0664 -0.3430
  148SAPE   O1216311   5.337   1.653  10.557  0.0655  0.1768 -0.2035
  148SAPE   O1116312   5.319   1.781  10.343 -0.3746 -0.0399 -0.4132
  148SAPE    C116313   5.384   1.870  10.257 -0.4523  0.4503 -0.2038
  148SAPE    HA16314   5.375   1.973  10.297  1.0524 -0.8491  3.7506
  148SAPE    HB16315   5.494   1.853  10.252 -0.4857  0.7752 -2.7255
  148SAPE    C216316   5.328   1.860  10.112 -0.5949 -1.1105 -0.1061
  148SAPE    HS16317   5.395   1.908  10.038  0.4658 -0.4937  1.2403
  148SAPE   O2116318   5.192   1.918  10.107 -0.4672 -0.1245  0.4721
  148SAPE   C2116319   5.197   2.046  10.088 -0.5091 -0.7247 -0.6259
  148SAPE   O2216320   5.302   2.114  10.086  0.1894  0.1077  0.0106
  148SAPE   C2216321   5.055   2.109  10.083  0.2027 -0.4419  0.0255
  148SAPE   H2R16322   4.977   2.046  10.035 -1.4886  0.9058  0.9278
  148SAPE   H2S16323   5.031   2.125  10.190  0.7884 -0.1711  0.1141
  148SAPE    C316324   5.325   1.707  10.067  0.4636  0.2083  0.9601
  148SAPE    HX16325   5.253   1.658  10.136 -0.5577  0.4926  0.1052
  148SAPE    HY16326   5.424   1.657  10.074  0.8308  0.7375 -0.4010
  148SAPE   O3116327   5.292   1.712   9.923 -0.4236  0.3639 -0.0579
  148SAPE   C3116328   5.171   1.679   9.890 -0.9693 -0.5237 -0.1288
  148SAPE   O3216329   5.088   1.645   9.971  0.0790  0.1749 -0.2065
  148SAPE   C3216330   5.147   1.725   9.744 -0.1762  0.0105  0.3361
  148SAPE   H2X16331   5.170   1.643   9.673  0.2198  1.3905 -1.1368
  148SAPE   H2Y16332   5.215   1.810   9.727 -2.2831  2.0824  1.8901
  148SAPE   C2316333   5.056   2.251  10.021 -0.0118  0.1127 -0.2276
  148SAPE   H3R16334   5.137   2.304  10.075  1.3945 -0.5326 -1.6433
  148SAPE   H3S16335   4.966   2.309  10.048 -2.0949 -3.1132  0.0772
  148SAPE   C2416336   5.076   2.267   9.868 -0.0875 -0.4619  0.2238
  148SAPE   H4R16337   5.169   2.221   9.827 -0.9607 -1.0440 -1.1756
  148SAPE   H4S16338   5.085   2.376   9.848 -1.7287 -0.5653 -1.3096
  148SAPE   C2516339   4.953   2.234   9.790  0.1138  0.2618 -0.2725
  148SAPE   H5R16340   4.862   2.222   9.851  1.1690 -0.9546  1.1028
  148SAPE   C2616341   4.937   2.232   9.662  0.8524  0.0313  0.4563
  148SAPE   H6R16342   4.838   2.194   9.633  0.0987 -0.2519  3.2701
  148SAPE   C2716343   5.044   2.259   9.552  0.1870  0.1662  0.4687
  148SAPE   H7R16344   5.052   2.167   9.490 -0.5079 -0.6673  1.6120
  148SAPE   H7S16345   5.147   2.270   9.590  0.1025  0.1205  0.7125
  148SAPE   C2816346   5.001   2.387   9.474 -0.2189 -0.4414 -0.0111
  148SAPE   H8R16347   4.935   2.456   9.529 -0.5972 -1.4476  0.8174
  148SAPE   C2916348   5.023   2.409   9.343 -0.4537  0.7063  0.6129
  148SAPE   H9R16349   4.996   2.510   9.308  0.9303 -0.1719 -3.1275
  148SAPE  C21016350   5.097   2.315   9.247  0.3449 -0.0606 -0.1146
  148SAPE  H10R16351   5.024   2.244   9.204 -0.4954  0.5846  0.2451
  148SAPE  H10S16352   5.168   2.242   9.293 -0.2573 -0.5703  0.0127
  148SAPE  C21116353   5.166   2.398   9.137  0.1201  0.4009  0.4630
  148SAPE  H11R16354   5.204   2.496   9.171  0.3302  0.1035  1.0837
  148SAPE  C21216355   5.195   2.351   9.018 -0.1538  0.1532 -0.1845
  148SAPE  H12R16356   5.242   2.421   8.947  0.8155 -0.4823 -0.1774
  148SAPE  C21316357   5.170   2.212   8.974  0.2091 -0.0432  0.1886
  148SAPE  H13R16358   5.196   2.206   8.866 -1.1858 -1.8263 -0.0727
  148SAPE  H13S16359   5.063   2.188   8.986  0.8979 -3.4974 -0.1560
  148SAPE  C21416360   5.254   2.115   9.045 -0.1254 -0.1432 -0.0199
  148SAPE  H14R16361   5.286   2.151   9.144  0.7418 -0.6945 -0.0870
  148SAPE  C21516362   5.294   1.995   8.997  0.2856  0.6260 -0.5097
  148SAPE  H15R16363   5.358   1.929   9.058 -0.2327  0.4094 -0.1933
  148SAPE  C21616364   5.255   1.946   8.860  0.4222 -0.2316 -0.1687
  148SAPE  H16R16365   5.198   2.016   8.794  1.5378 -1.1834 -2.1813
  148SAPE  H16S16366   5.200   1.850   8.872 -0.7009  0.2781 -1.1237
  148SAPE  C21716367   5.392   1.924   8.778 -0.2020 -0.4471  0.4033
  148SAPE  H17R16368   5.457   2.014   8.780  0.2672 -0.7564 -0.5331
  148SAPE  H17S16369   5.355   1.895   8.678  0.2230  0.1189  0.0793
  148SAPE  C21816370   5.469   1.801   8.821  0.1478  0.0418 -0.9032
  148SAPE  H18R16371   5.399   1.715   8.815  0.0148  0.1271 -0.5700
  148SAPE  H18S16372   5.519   1.821   8.919  1.3165 -3.6509 -0.7003
  148SAPE  C21916373   5.574   1.766   8.724  0.3873 -0.9894 -0.3418
  148SAPE  H19R16374   5.636   1.690   8.776  0.2696 -1.6348 -1.1355
  148SAPE  H19S16375   5.647   1.846   8.701 -2.2784  1.9970  1.1379
  148SAPE  C22016376   5.523   1.710   8.590 -0.1532  0.0106 -0.5900
  148SAPE  H20R16377   5.605   1.657   8.537  0.9161  2.4127 -1.4458
  148SAPE  H20S16378   5.489   1.792   8.522  0.8283  0.1177 -0.9686
  148SAPE  H20T16379   5.435   1.646   8.611 -0.3949  0.5422  0.0462
  148SAPE   C3316380   4.998   1.769   9.711  0.1962 -0.5355  0.0170
  148SAPE   H3X16381   4.951   1.823   9.796 -1.1392 -2.4104  0.5011
  148SAPE   H3Y16382   4.936   1.683   9.679  0.0473  0.3394 -2.1333
  148SAPE   C3416383   4.993   1.853   9.582 -0.2738 -0.4734 -0.3552
  148SAPE   H4X16384   5.002   1.964   9.588  2.8919 -0.6938 -0.1128
  148SAPE   H4Y16385   4.886   1.839   9.557 -0.2621 -2.9355  0.7901
  148SAPE   C3516386   5.081   1.794   9.464  0.1348 -0.0616 -0.1193
  148SAPE   H5X16387   5.052   1.687   9.452 -0.6789  0.1229  0.1807
  148SAPE   H5Y16388   5.185   1.814   9.498 -0.0004  1.4890 -0.6032
  148SAPE   C3616389   5.076   1.867   9.327  0.7794 -0.4660 -0.3193
  148SAPE   H6X16390   5.154   1.830   9.257  0.2914 -1.6240 -0.2635
  148SAPE   H6Y16391   5.087   1.973   9.358 -1.2501 -0.1220 -0.6656
  148SAPE   C3716392   4.934   1.850   9.267  1.1992 -0.3925  0.7295
  148SAPE   H7X16393   4.864   1.899   9.339 -2.4134 -3.1383 -0.7411
  148SAPE   H7Y16394   4.911   1.741   9.262  0.8226 -0.3209  0.8781
  148SAPE   C3816395   4.918   1.912   9.130 -0.3218  0.3353  1.0207
  148SAPE   H8X16396   4.978   1.860   9.051  0.2752  0.8772  1.1135
  148SAPE   H8Y16397   4.969   2.010   9.142  1.5844 -0.6897  1.5113
  148SAPE   C3916398   4.772   1.936   9.076 -0.2197  0.2992  0.1956
  148SAPE   H9X16399   4.775   2.022   9.006 -2.2540  0.2527  0.0242
  148SAPE   H9Y16400   4.716   1.974   9.165  0.3260  1.7993 -0.0857
  148SAPE  C31016401   4.713   1.817   9.006 -0.1490 -0.9086 -0.4657
  148SAPE  H10X16402   4.602   1.826   9.008 -0.0476  0.2662  0.2374
  148SAPE  H10Y16403   4.731   1.729   9.072 -2.0583 -1.4549 -0.6331
  148SAPE  C31116404   4.760   1.800   8.865  0.1012 -0.0732 -0.4326
  148SAPE  H11X16405   4.737   1.697   8.830 -1.9799  0.8896 -2.0161
  148SAPE  H11Y16406   4.868   1.826   8.860 -0.6946  4.1169  1.6477
  148SAPE  C31216407   4.671   1.880   8.772 -0.6271  0.7922 -0.7101
  148SAPE  H12X16408   4.700   1.986   8.779  2.9647 -0.0127 -2.5830
  148SAPE  H12Y16409   4.561   1.877   8.792 -0.7525 -1.5697 -1.5216
  148SAPE  C31316410   4.680   1.855   8.621  0.2816 -0.0320  0.1492
  148SAPE  H13X16411   4.602   1.920   8.575 -0.3845 -1.4078 -0.6952
  148SAPE  H13Y16412   4.664   1.748   8.599  0.0599 -0.3465  1.7596
  148SAPE  C31416413   4.815   1.885   8.563  0.5027 -0.6778  0.4457
  148SAPE  H14X16414   4.796   1.886   8.453 -0.2873 -1.4805  0.5732
  148SAPE  H14Y16415   4.882   1.798   8.579 -1.0775 -1.8584  0.7717
  148SAPE  C31516416   4.880   2.021   8.595 -0.0173 -0.0584  0.5254
  148SAPE  H15X16417   4.895   2.030   8.704  0.0115  2.2139  0.3643
  148SAPE  H15Y16418   4.811   2.104   8.567  1.6391  1.4521  0.8019
  148SAPE  C31616419   5.017   2.055   8.535  0.2637 -0.4964 -0.6671
  148SAPE  H16X16420   5.008   2.037   8.426 -3.2366  0.2255 -0.5540
  148SAPE  H16Y16421   5.094   1.989   8.582 -0.6443 -1.3813 -0.3790
  148SAPE  C31716422   5.055   2.201   8.566  0.2590 -1.1853 -0.0729
  148SAPE  H17X16423   5.040   2.227   8.673 -0.9460  1.0036 -0.7385
  148SAPE  H17Y16424   4.992   2.267   8.502 -0.4599 -0.7337  1.0763
  148SAPE  C31816425   5.205   2.240   8.543 -0.6693  0.7006  0.2605
  148SAPE  H18X16426   5.274   2.167   8.590 -0.4613  0.7206 -0.0178
  148SAPE  H18Y16427   5.230   2.331   8.602 -1.3580  0.4372  0.9709
  148SAPE  H18Z16428   5.216   2.249   8.433  0.7047  1.0314  0.4210
  149SAPE     N16429   1.224   4.407  11.423  0.2013  0.6925  0.0344
  149SAPE   HN116430   1.274   4.493  11.393 -0.8713  1.3505  0.0969
  149SAPE   HN216431   1.170   4.430  11.509  0.2627 -2.0207  0.8258
  149SAPE   HN316432   1.296   4.334  11.439  3.2135  3.6893  0.6689
  149SAPE   C1216433   1.140   4.340  11.329 -0.2780 -0.1758  0.4485
  149SAPE  H12A16434   1.047   4.398  11.311 -0.9433 -1.0995  0.8747
  149SAPE  H12B16435   1.113   4.243  11.375  1.1021 -1.2488 -0.9578
  149SAPE   C1116436   1.218   4.324  11.198  0.1780 -0.0181  0.6118
  149SAPE  H11A16437   1.146   4.284  11.123  0.4308 -0.7098  0.7327
  149SAPE  H11B16438   1.288   4.239  11.217 -0.2319 -0.3253  0.7670
  149SAPE     P16439   1.225   4.553  11.071 -0.0791  0.1247 -0.1953
  149SAPE   O1316440   1.104   4.599  11.139 -0.3558 -0.3589 -0.2772
  149SAPE   O1416441   1.331   4.657  11.056 -0.2168 -0.1530  0.6990
  149SAPE   O1216442   1.290   4.439  11.158  0.1536  0.5131  0.4208
  149SAPE   O1116443   1.188   4.482  10.932 -0.7324  0.0103 -0.4345
  149SAPE    C116444   1.284   4.423  10.845  0.1973  1.1670 -0.0018
  149SAPE    HA16445   1.378   4.381  10.887  1.2684  2.1678 -1.3352
  149SAPE    HB16446   1.230   4.334  10.806 -1.0039  0.8354  2.3422
  149SAPE    C216447   1.312   4.520  10.724 -0.7012 -0.5522 -0.2147
  149SAPE    HS16448   1.324   4.617  10.779 -1.6401 -0.4166 -0.2371
  149SAPE   O2116449   1.200   4.508  10.634 -0.3172  0.3524  0.1502
  149SAPE   C2116450   1.202   4.605  10.547 -0.3677  0.3513 -0.3068
  149SAPE   O2216451   1.302   4.671  10.515 -0.5837  0.6403 -0.0371
  149SAPE   C2216452   1.066   4.637  10.501 -0.0218 -0.5692  0.7016
  149SAPE   H2R16453   0.990   4.576  10.554 -0.3387 -0.5468  0.2813
  149SAPE   H2S16454   1.051   4.743  10.533  0.0295 -0.3469  0.0017
  149SAPE    C316455   1.453   4.480  10.662  0.3499 -0.0594  0.1301
  149SAPE    HX16456   1.520   4.481  10.751  0.7877  0.4644 -0.2073
  149SAPE    HY16457   1.506   4.556  10.601 -0.5800  1.9247  1.7243
  149SAPE   O3116458   1.449   4.352  10.600 -0.2559  0.0573 -0.0360
  149SAPE   C3116459   1.440   4.344  10.464  0.5214  0.1778  0.0119
  149SAPE   O3216460   1.424   4.440  10.387  0.2805  0.0235 -0.1365
  149SAPE   C3216461   1.456   4.200  10.420  0.0248  0.7635 -0.3434
  149SAPE   H2X16462   1.391   4.140  10.487 -1.4796  2.3753 -0.3094
  149SAPE   H2Y16463   1.558   4.169  10.451 -0.9086  0.0989  2.2468
  149SAPE   C2316464   1.069   4.634  10.345 -0.0129 -0.0430 -0.5529
  149SAPE   H3R16465   1.152   4.694  10.303 -1.3021  1.7553 -0.6085
  149SAPE   H3S16466   0.982   4.687  10.300 -0.2874 -0.4770 -0.5380
  149SAPE   C2416467   1.075   4.491  10.281  0.2918  0.2484 -0.4010
  149SAPE   H4R16468   1.169   4.444  10.317  0.5040  1.9857  1.4042
  149SAPE   H4S16469   1.082   4.494  10.170 -3.4014 -1.3035 -0.7204
  149SAPE   C2516470   0.956   4.403  10.303  0.3101  0.7077 -0.1688
  149SAPE   H5R16471   0.917   4.400  10.406  1.2194  0.2112  0.1630
  149SAPE   C2616472   0.885   4.333  10.209 -0.4318 -0.2141  0.1995
  149SAPE   H6R16473   0.789   4.285  10.232 -1.3428  0.5423 -1.8500
  149SAPE   C2716474   0.918   4.335  10.060  0.0972  1.0619  0.5361
  149SAPE   H7R16475   0.881   4.242  10.012  1.6482  0.5663  0.2795
  149SAPE   H7S16476   1.026   4.335  10.036 -0.1056  0.1988 -0.4275
  149SAPE   C2816477   0.843   4.443   9.990  0.4917 -0.2763 -0.3389
  149SAPE   H8R16478   0.785   4.503  10.061 -1.6270 -1.4652 -1.0262
  149SAPE   C2916479   0.831   4.461   9.862 -0.8088 -0.0618  0.7634
  149SAPE   H9R16480   0.769   4.543   9.823  1.4180  1.3562  0.1006
  149SAPE  C21016481   0.904   4.374   9.751  0.4185  0.0815  0.0660
  149SAPE  H10R16482   0.840   4.289   9.718 -0.1954 -0.1781  1.8908
  149SAPE  H10S16483   1.003   4.337   9.783  1.2233 -0.0719 -2.4276
  149SAPE  C21116484   0.937   4.457   9.631  0.4957  0.9132 -0.4300
  149SAPE  H11R16485   1.031   4.510   9.652  1.3904 -0.0268 -1.9228
  149SAPE  C21216486   0.863   4.475   9.521 -0.3352  0.2903 -0.3570
  149SAPE  H12R16487   0.907   4.537   9.441  0.0603 -1.4126 -1.4945
  149SAPE  C21316488   0.729   4.418   9.483  0.1979  0.2843 -0.5662
  149SAPE  H13R16489   0.690   4.356   9.567  0.0039 -0.9475 -1.5376
  149SAPE  H13S16490   0.727   4.344   9.400 -1.1304 -4.5647  3.5268
  149SAPE  C21416491   0.634   4.528   9.454 -0.1129 -0.4740  0.7823
  149SAPE  H14R16492   0.591   4.571   9.546  0.6044 -1.1439  1.4348
  149SAPE  C21516493   0.606   4.580   9.330  0.1054 -0.4967  0.0037
  149SAPE  H15R16494   0.538   4.666   9.317 -0.3747 -1.1966 -2.3425
  149SAPE  C21616495   0.664   4.526   9.203 -0.4500  0.4780  0.2224
  149SAPE  H16R16496   0.707   4.426   9.224  0.7814  0.3411 -2.6511
  149SAPE  H16S16497   0.741   4.597   9.165  0.0356  0.2536  0.7762
  149SAPE  C21716498   0.560   4.499   9.088 -0.3417 -0.2001 -0.3697
  149SAPE  H17R16499   0.589   4.439   8.999 -0.9351 -1.1249  0.0651
  149SAPE  H17S16500   0.522   4.591   9.038  2.9478  0.6200 -1.4857
  149SAPE  C21816501   0.438   4.427   9.139 -0.0018  0.2720 -0.2084
  149SAPE  H18R16502   0.389   4.483   9.222 -0.6856 -2.1004  1.0233
  149SAPE  H18S16503   0.477   4.334   9.184  0.5902  1.0098  0.8249
  149SAPE  C21916504   0.330   4.384   9.030  0.7901  0.1673  0.2805
  149SAPE  H19R16505   0.394   4.329   8.958  1.4731 -1.0749  1.8024
  149SAPE  H19S16506   0.293   4.476   8.980  3.7926  1.0272 -0.4619
  149SAPE  C22016507   0.227   4.278   9.079 -0.4115  0.5449  0.6613
  149SAPE  H20R16508   0.145   4.324   9.138  0.3006  0.2916  1.8652
  149SAPE  H20S16509   0.278   4.204   9.144 -0.8018 -1.6662 -1.4708
  149SAPE  H20T16510   0.188   4.228   8.988 -1.9149  2.1486  0.3942
  149SAPE   C3316511   1.424   4.165  10.270 -0.1317  1.0465  0.5713
  149SAPE   H3X16512   1.475   4.069  10.246 -0.4365  1.1488 -0.5213
  149SAPE   H3Y16513   1.467   4.235  10.195 -0.7091 -1.2831 -2.0385
  149SAPE   C3416514   1.273   4.149  10.251  0.3602 -0.1432  0.3534
  149SAPE   H4X16515   1.215   4.244  10.250  0.4710 -0.0442 -2.9429
  149SAPE   H4Y16516   1.231   4.091  10.336  0.5560  0.3633  0.7985
  149SAPE   C3516517   1.226   4.058  10.136 -0.1672  1.3277  0.1969
  149SAPE   H5X16518   1.122   4.027  10.161 -0.2738 -0.8432 -2.6549
  149SAPE   H5Y16519   1.276   3.959  10.146  0.2096  1.6448  1.4945
  149SAPE   C3616520   1.244   4.121   9.998  0.2899 -0.1351 -0.4236
  149SAPE   H6X16521   1.353   4.115   9.981  0.3125 -2.5238  0.3744
  149SAPE   H6Y16522   1.215   4.229  10.001  0.1016 -0.2132  0.9826
  149SAPE   C3716523   1.157   4.052   9.895 -0.0502  0.2925 -0.2016
  149SAPE   H7X16524   1.054   4.077   9.927  0.2768 -1.7475  2.5426
  149SAPE   H7Y16525   1.169   3.942   9.883 -0.1452 -0.2449  4.0475
  149SAPE   C3816526   1.198   4.117   9.764 -1.1739  0.1194 -0.2502
  149SAPE   H8X16527   1.298   4.073   9.744  0.4379  2.4542  2.3552
  149SAPE   H8Y16528   1.221   4.225   9.772  2.3330 -0.4766 -1.5188
  149SAPE   C3916529   1.114   4.078   9.634  0.1231  0.2594  0.1478
  149SAPE   H9X16530   1.030   4.151   9.632  1.0893  1.3917  0.3629
  149SAPE   H9Y16531   1.079   3.973   9.648  0.3681  0.0283 -0.9216
  149SAPE  C31016532   1.191   4.068   9.499 -0.4128  0.5971 -1.0387
  149SAPE  H10X16533   1.259   3.981   9.516  0.3839  1.7722  2.2819
  149SAPE  H10Y16534   1.255   4.157   9.479  0.0371  0.6691  0.6857
  149SAPE  C31116535   1.098   4.064   9.378 -0.4771 -0.1635 -0.5175
  149SAPE  H11X16536   1.038   4.158   9.381  0.6012  0.4964  0.9391
  149SAPE  H11Y16537   1.033   3.976   9.396  0.0611 -0.1834  1.4388
  149SAPE  C31216538   1.178   4.073   9.244  0.1770 -0.5370  0.3577
  149SAPE  H12X16539   1.231   3.978   9.218  0.2191 -0.4763  0.2270
  149SAPE  H12Y16540   1.253   4.152   9.265 -1.8067  1.5549 -0.2152
  149SAPE  C31316541   1.078   4.104   9.128 -0.5349  0.4283 -0.5388
  149SAPE  H13X16542   1.138   4.124   9.037  0.6002 -0.3246  0.0345
  149SAPE  H13Y16543   1.011   4.190   9.149 -1.9600 -0.9930  0.8741
  149SAPE  C31416544   0.992   3.981   9.100 -0.0272  0.6917  1.3002
  149SAPE  H14X16545   0.922   3.949   9.179 -2.2825  2.2587 -0.0177
  149SAPE  H14Y16546   1.054   3.889   9.093  1.4235  1.6887  0.6368
  149SAPE  C31516547   0.916   3.988   8.969 -0.2234  0.2847  0.6511
  149SAPE  H15X16548   0.857   3.896   8.952  0.0642  0.7350 -3.2717
  149SAPE  H15Y16549   0.993   4.002   8.890 -0.2388  2.1293  0.9279
  149SAPE  C31616550   0.814   4.105   8.964 -0.4434 -0.1434 -0.2849
  149SAPE  H16X16551   0.869   4.201   8.963  0.8246 -0.7834  2.9027
  149SAPE  H16Y16552   0.751   4.106   9.055 -0.4324  2.2974 -0.2803
  149SAPE  C31716553   0.720   4.099   8.847 -0.3793 -0.4016  0.2730
  149SAPE  H17X16554   0.792   4.094   8.762 -1.4174  0.0512 -0.6465
  149SAPE  H17Y16555   0.673   4.199   8.849  2.5221  1.0141  1.1923
  149SAPE  C31816556   0.613   3.988   8.831 -0.8422  0.2007 -0.0801
  149SAPE  H18X16557   0.568   3.993   8.729 -0.0928  0.7907 -0.3874
  149SAPE  H18Y16558   0.522   3.991   8.895 -1.4144  0.8811 -0.9171
  149SAPE  H18Z16559   0.658   3.888   8.846  0.2951  0.6734 -0.2834
  150SAPE     N16560   2.745   3.901  10.617  0.3670  0.2032 -0.5809
  150SAPE   HN116561   2.715   3.834  10.544  0.6557  0.4297 -0.9091
  150SAPE   HN216562   2.752   3.997  10.576 -0.0907  0.5389  0.1095
  150SAPE   HN316563   2.842   3.873  10.643  0.8663  2.9547  0.7856
  150SAPE   C1216564   2.659   3.917  10.743 -0.4715  0.1094 -0.6121
  150SAPE  H12A16565   2.555   3.946  10.717 -0.4542 -0.4119 -1.2627
  150SAPE  H12B16566   2.708   3.989  10.813  0.2755  1.6584 -2.6900
  150SAPE   C1116567   2.651   3.778  10.819  0.9005 -0.2797  0.1914
  150SAPE  H11A16568   2.588   3.708  10.759 -1.6094  1.6007  0.5729
  150SAPE  H11B16569   2.588   3.811  10.904 -2.3247  1.7167 -2.8705
  150SAPE     P16570   2.792   3.592  10.929  0.1264 -0.5303 -0.0305
  150SAPE   O1316571   2.924   3.579  10.996  0.4316 -0.3392  0.0835
  150SAPE   O1416572   2.673   3.583  11.014  0.3681 -0.3055 -0.0039
  150SAPE   O1216573   2.786   3.728  10.851  0.0759  0.5736  0.0387
  150SAPE   O1116574   2.768   3.475  10.820  0.2962 -0.1688  0.6978
  150SAPE    C116575   2.886   3.449  10.740 -0.3359 -0.0314 -0.0932
  150SAPE    HA16576   2.984   3.468  10.788 -0.1566  0.9726 -0.8272
  150SAPE    HB16577   2.894   3.343  10.707  0.6362 -0.1239  0.4458
  150SAPE    C216578   2.884   3.527  10.598  0.2671  0.2064 -1.2722
  150SAPE    HS16579   2.858   3.633  10.617  0.0193  0.0639 -0.7837
  150SAPE   O2116580   2.798   3.455  10.507  0.0093 -0.0823 -0.1082
  150SAPE   C2116581   2.716   3.534  10.447 -0.3313  0.2480  0.3464
  150SAPE   O2216582   2.725   3.659  10.446  0.0387 -0.3876 -0.6370
  150SAPE   C2216583   2.604   3.459  10.385 -0.4209 -0.4872  0.3616
  150SAPE   H2R16584   2.644   3.405  10.297 -0.6070 -0.1073  0.0428
  150SAPE   H2S16585   2.572   3.374  10.450 -0.6528 -0.9642 -0.3716
  150SAPE    C316586   3.026   3.525  10.535  0.5938  0.8913  0.0854
  150SAPE    HX16587   3.047   3.416  10.532 -0.5906  0.6617 -0.2277
  150SAPE    HY16588   3.108   3.576  10.589  3.4290 -0.2209 -2.9918
  150SAPE   O3116589   3.027   3.578  10.394  0.3837  0.2617 -0.2481
  150SAPE   C3116590   3.143   3.548  10.331  0.0562  0.2401 -0.1458
  150SAPE   O3216591   3.233   3.478  10.373  0.0867 -0.1067 -0.1776
  150SAPE   C3216592   3.145   3.620  10.194 -0.0612  0.1486  0.7161
  150SAPE   H2X16593   3.164   3.725  10.228 -1.4174 -0.0272  2.0975
  150SAPE   H2Y16594   3.046   3.608  10.146 -0.0249  0.8849  0.4513
  150SAPE   C2316595   2.486   3.562  10.351 -0.3048  0.7426 -0.7926
  150SAPE   H3R16596   2.510   3.663  10.391  2.3762 -0.7036  1.4657
  150SAPE   H3S16597   2.389   3.527  10.392  0.0911 -2.2026 -2.2341
  150SAPE   C2416598   2.471   3.574  10.197  0.8337 -0.3920 -0.4627
  150SAPE   H4R16599   2.570   3.587  10.147  2.2489 -3.6210  1.3217
  150SAPE   H4S16600   2.420   3.670  10.174  1.9271 -0.4665 -3.3598
  150SAPE   C2516601   2.407   3.453  10.141  0.3893  0.5128  0.6972
  150SAPE   H5R16602   2.336   3.396  10.202  0.6195  0.7273  1.1635
  150SAPE   C2616603   2.406   3.421  10.009  0.0914  0.4553  0.2937
  150SAPE   H6R16604   2.361   3.326   9.976 -0.0118  1.4318 -2.4535
  150SAPE   C2716605   2.466   3.503   9.907  0.0440  0.0569  0.2107
  150SAPE   H7R16606   2.561   3.450   9.887 -1.0541 -1.8527 -0.0364
  150SAPE   H7S16607   2.487   3.609   9.935  0.4524  0.4015 -1.3767
  150SAPE   C2816608   2.386   3.525   9.782  0.5604  0.6823 -0.7964
  150SAPE   H8R16609   2.288   3.569   9.805 -0.1213 -0.2104 -1.9563
  150SAPE   C2916610   2.428   3.531   9.658  0.4055  0.1708 -0.4373
  150SAPE   H9R16611   2.357   3.562   9.580 -0.1978  1.5893  0.6489
  150SAPE  C21016612   2.562   3.495   9.603 -0.1333  0.7814 -0.0100
  150SAPE  H10R16613   2.623   3.444   9.680  0.0588  1.3984  0.2511
  150SAPE  H10S16614   2.609   3.592   9.575  0.0624  0.3738 -1.0927
  150SAPE  C21116615   2.548   3.418   9.476  0.3251  0.0887  0.0365
  150SAPE  H11R16616   2.537   3.310   9.490 -1.0465  0.5012  2.4401
  150SAPE  C21216617   2.540   3.469   9.354  0.2726  0.1578 -0.1271
  150SAPE  H12R16618   2.519   3.400   9.271  1.9854 -1.4545  0.7685
  150SAPE  C21316619   2.535   3.614   9.322 -0.1880 -0.6189 -0.0665
  150SAPE  H13R16620   2.626   3.630   9.259 -0.4384  3.1567  0.4256
  150SAPE  H13S16621   2.562   3.681   9.406 -1.8963 -2.0643  1.6679
  150SAPE  C21416622   2.417   3.662   9.241  0.4091  0.4033  1.3980
  150SAPE  H14R16623   2.347   3.721   9.303 -0.7309  0.0887  0.4238
  150SAPE  C21516624   2.383   3.627   9.113 -0.2064  0.8094 -0.3926
  150SAPE  H15R16625   2.306   3.683   9.059 -2.2615  1.0483  2.6559
  150SAPE  C21616626   2.461   3.538   9.025  1.0060  0.0127 -0.0738
  150SAPE  H16R16627   2.531   3.476   9.085  0.0718 -0.6182  0.3635
  150SAPE  H16S16628   2.534   3.600   8.967  0.1779 -0.4152 -1.6063
  150SAPE  C21716629   2.380   3.456   8.920 -0.0600  0.5764  0.1597
  150SAPE  H17R16630   2.447   3.377   8.879 -0.0554  0.4845  0.3391
  150SAPE  H17S16631   2.342   3.515   8.834  2.4333 -0.6752 -1.8676
  150SAPE  C21816632   2.257   3.392   8.978 -0.0397  0.8348 -0.2839
  150SAPE  H18R16633   2.202   3.476   9.025 -1.0212  0.2141 -0.2951
  150SAPE  H18S16634   2.283   3.324   9.062 -0.0076  2.4761  1.0528
  150SAPE  C21916635   2.161   3.312   8.886  0.4919  0.9313  0.2147
  150SAPE  H19R16636   2.093   3.250   8.947  0.2724 -2.3450 -3.2171
  150SAPE  H19S16637   2.221   3.234   8.834  0.8869  0.5745  1.2055
  150SAPE  C22016638   2.099   3.405   8.781 -0.4325 -0.7265 -0.6206
  150SAPE  H20R16639   2.047   3.481   8.843 -1.6268 -2.4994  0.6196
  150SAPE  H20S16640   2.023   3.347   8.724  0.1293  1.3274 -3.5646
  150SAPE  H20T16641   2.185   3.442   8.722 -0.2168  0.5119  0.4527
  150SAPE   C3316642   3.267   3.589  10.093 -0.1486  0.7406  0.0435
  150SAPE   H3X16643   3.238   3.510  10.022 -1.1390  0.0316  1.2008
  150SAPE   H3Y16644   3.349   3.541  10.151 -0.2838  1.2827  0.7053
  150SAPE   C3416645   3.322   3.699  10.011 -0.5821  0.7452 -0.4937
  150SAPE   H4X16646   3.416   3.661   9.965 -0.9134 -2.2259  1.1478
  150SAPE   H4Y16647   3.335   3.791  10.073 -1.2885  0.4402  0.1094
  150SAPE   C3516648   3.229   3.733   9.889  0.9452 -0.2070  0.2006
  150SAPE   H5X16649   3.128   3.750   9.932  0.6629  0.1849 -0.6063
  150SAPE   H5Y16650   3.230   3.639   9.830  0.9147 -0.4729  0.6172
  150SAPE   C3616651   3.284   3.854   9.819 -0.6720 -0.1394  0.4907
  150SAPE   H6X16652   3.393   3.836   9.816 -0.8836 -1.4249  0.2055
  150SAPE   H6Y16653   3.270   3.944   9.882  1.8968  0.1439  0.7036
  150SAPE   C3716654   3.219   3.881   9.681 -0.6299 -0.7655 -0.6790
  150SAPE   H7X16655   3.119   3.929   9.690  0.0667  0.8961 -1.4584
  150SAPE   H7Y16656   3.203   3.778   9.644 -1.3078 -0.3282 -1.6290
  150SAPE   C3816657   3.296   3.971   9.592  0.5049  0.1178 -0.0362
  150SAPE   H8X16658   3.397   3.926   9.579  0.4334 -0.3575  0.9468
  150SAPE   H8Y16659   3.309   4.071   9.639  0.7026  0.6702 -1.2503
  150SAPE   C3916660   3.242   3.985   9.447  0.4063 -0.0685 -0.6955
  150SAPE   H9X16661   3.155   4.054   9.452  0.6039  0.2131 -1.0444
  150SAPE   H9Y16662   3.204   3.887   9.412  1.0367 -0.4871 -0.2219
  150SAPE  C31016663   3.350   4.039   9.355 -0.5620 -0.6460 -0.0425
  150SAPE  H10X16664   3.440   3.974   9.352  0.1342  0.3361 -0.8576
  150SAPE  H10Y16665   3.390   4.136   9.391 -1.7866  0.2767 -1.1263
  150SAPE  C31116666   3.304   4.079   9.215 -0.8001 -0.0402  0.2011
  150SAPE  H11X16667   3.220   4.150   9.226  1.5320  3.5816 -3.5956
  150SAPE  H11Y16668   3.270   3.996   9.149  2.7303 -1.3986 -0.0274
  150SAPE  C31216669   3.403   4.173   9.134  0.0410 -0.0187  0.2332
  150SAPE  H12X16670   3.509   4.139   9.133  0.0230 -0.1063 -2.4495
  150SAPE  H12Y16671   3.405   4.272   9.184 -1.1685  2.2309 -3.9581
  150SAPE  C31316672   3.378   4.188   8.981 -0.5866  0.1291  0.4121
  150SAPE  H13X16673   3.302   4.267   8.967 -1.3825 -1.0454 -2.1273
  150SAPE  H13Y16674   3.325   4.095   8.950 -0.4341  0.4053 -0.6905
  150SAPE  C31416675   3.493   4.235   8.895  0.1572 -0.0133  0.3245
  150SAPE  H14X16676   3.559   4.146   8.888 -1.4243 -1.1367 -0.7137
  150SAPE  H14Y16677   3.542   4.330   8.926  0.6444 -0.0182 -0.4242
  150SAPE  C31516678   3.456   4.250   8.739 -0.0378  0.2152  0.8538
  150SAPE  H15X16679   3.395   4.159   8.723  2.0632 -0.8889 -1.0889
  150SAPE  H15Y16680   3.547   4.243   8.675 -0.3715 -0.9193  0.4852
  150SAPE  C31616681   3.376   4.374   8.702  0.7793  0.4421 -0.6926
  150SAPE  H16X16682   3.445   4.460   8.709  0.8522  0.2013  1.9888
  150SAPE  H16Y16683   3.298   4.392   8.778 -1.1978 -0.9606 -2.3418
  150SAPE  C31716684   3.307   4.379   8.564  0.2551 -0.2019  0.2357
  150SAPE  H17X16685   3.236   4.464   8.574 -0.0583 -0.3577 -0.6644
  150SAPE  H17Y16686   3.247   4.285   8.559 -0.8340  0.5192 -0.4160
  150SAPE  C31816687   3.395   4.399   8.443  0.0590  0.1479 -0.1401
  150SAPE  H18X16688   3.341   4.382   8.348  2.5312 -0.3336 -1.5272
  150SAPE  H18Y16689   3.458   4.307   8.438  0.3222  0.3583 -0.7817
  150SAPE  H18Z16690   3.452   4.494   8.446  0.6253 -0.2530  3.6940
  151SAPE     N16691   0.080   0.095  10.720  0.6350 -0.1523  0.3558
  151SAPE   HN116692   0.137   0.109  10.806  2.2294  0.4653 -0.7790
  151SAPE   HN216693   0.055  -0.005  10.706  0.5762  0.1200 -1.5546
  151SAPE   HN316694   0.141   0.126  10.642 -1.4184 -0.8499 -1.5594
  151SAPE   C1216695  -0.046   0.186  10.720 -0.1794  0.0413 -0.1938
  151SAPE  H12A16696  -0.004   0.289  10.726 -1.0087  0.5073 -1.9176
  151SAPE  H12B16697  -0.105   0.159  10.811  0.2863 -0.1506  0.0490
  151SAPE   C1116698  -0.130   0.176  10.592  0.3614 -0.2180 -0.6054
  151SAPE  H11A16699  -0.175   0.075  10.594 -0.4305  0.1371 -0.1947
  151SAPE  H11B16700  -0.056   0.186  10.509  0.2349 -2.6103 -1.0337
  151SAPE     P16701  -0.324   0.262  10.439 -0.1744  0.0417  0.2703
  151SAPE   O1316702  -0.362   0.121  10.417  0.2596 -0.6529 -0.3418
  151SAPE   O1416703  -0.441   0.354  10.449 -0.8520  0.4079 -0.6545
  151SAPE   O1216704  -0.237   0.268  10.576  0.7466 -0.0179  0.3759
  151SAPE   O1116705  -0.229   0.314  10.327  0.0440 -0.0048  0.1889
  151SAPE    C116706  -0.215   0.243  10.204 -0.0931  0.0793  0.7797
  151SAPE    HA16707  -0.106   0.221  10.192  0.0484  1.2201 -0.1808
  151SAPE    HB16708  -0.270   0.147  10.197  0.9674 -0.5981  1.4114
  151SAPE    C216709  -0.271   0.328  10.076  0.6140 -0.3454 -0.5498
  151SAPE    HS16710  -0.241   0.270   9.987  1.5358 -2.1665  0.8947
  151SAPE   O2116711  -0.222   0.468  10.078  0.3671 -0.5121 -0.0778
  151SAPE   C2116712  -0.094   0.479  10.045 -0.4100  0.5519 -0.3669
  151SAPE   O2216713  -0.032   0.392   9.992  1.1233 -0.3654 -0.9977
  151SAPE   C2216714  -0.037   0.617  10.085  0.3136 -0.3132 -0.4212
  151SAPE   H2R16715  -0.083   0.638  10.184 -1.5064 -2.9648 -0.6491
  151SAPE   H2S16716   0.071   0.625  10.106  0.4747 -0.6710 -1.1070
  151SAPE    C316717  -0.428   0.336  10.093 -0.4308 -0.1429  0.3966
  151SAPE    HX16718  -0.448   0.376  10.195  1.6807 -0.2597  0.8728
  151SAPE    HY16719  -0.459   0.229  10.095 -0.5594 -0.1256 -0.4089
  151SAPE   O3116720  -0.490   0.401   9.982  0.2346  0.0201 -0.7847
  151SAPE   C3116721  -0.512   0.528   9.984 -0.7421  0.7501  0.5624
  151SAPE   O3216722  -0.510   0.596  10.084  0.3495  0.3067 -0.1308
  151SAPE   C3216723  -0.541   0.577   9.840  0.0627 -0.3087  0.6637
  151SAPE   H2X16724  -0.628   0.519   9.803 -0.0727  0.6520 -0.5551
  151SAPE   H2Y16725  -0.454   0.549   9.776 -0.3126 -0.5454  0.2481
  151SAPE   C2316726  -0.078   0.720   9.978 -0.3050 -0.7346 -0.3641
  151SAPE   H3R16727  -0.069   0.823  10.018  0.6666 -1.7129  2.0483
  151SAPE   H3S16728  -0.185   0.699   9.957 -0.9860  2.2909 -0.0216
  151SAPE   C2416729  -0.001   0.701   9.841  0.6472 -0.2345 -0.6379
  151SAPE   H4R16730  -0.028   0.602   9.799  0.2830 -1.5577  2.5041
  151SAPE   H4S16731   0.106   0.698   9.870  0.9231  0.0773 -1.6261
  151SAPE   C2516732  -0.027   0.813   9.747  1.0551 -0.3388  0.4633
  151SAPE   H5R16733  -0.129   0.829   9.707  0.1471  2.2058  3.5519
  151SAPE   C2616734   0.060   0.898   9.697  0.2141  1.0458  0.0168
  151SAPE   H6R16735   0.021   0.977   9.632 -2.2509  0.6566  0.9596
  151SAPE   C2716736   0.210   0.898   9.732  0.2817 -0.4037  0.2890
  151SAPE   H7R16737   0.255   0.817   9.670 -4.3326 -1.9022 -1.3193
  151SAPE   H7S16738   0.223   0.859   9.835 -1.9320 -0.4655  0.5684
  151SAPE   C2816739   0.272   1.032   9.711 -0.7856  0.2926 -0.6464
  151SAPE   H8R16740   0.318   1.060   9.808  0.1613 -2.7544 -0.1822
  151SAPE   C2916741   0.300   1.098   9.593  0.0729  0.4740  0.0523
  151SAPE   H9R16742   0.345   1.198   9.604 -0.0754  0.5804 -0.3310
  151SAPE  C21016743   0.269   1.053   9.456  0.0310  0.8330  0.2151
  151SAPE  H10R16744   0.211   1.123   9.391 -0.5887 -0.3816 -0.5583
  151SAPE  H10S16745   0.222   0.953   9.458  1.8239 -0.0171  0.6982
  151SAPE  C21116746   0.399   1.021   9.390 -0.1482  0.3758 -0.3700
  151SAPE  H11R16747   0.469   0.970   9.458 -0.7102  1.7572  1.2660
  151SAPE  C21216748   0.433   1.049   9.263  0.3992  0.0692  0.1270
  151SAPE  H12R16749   0.532   1.012   9.232  0.2797 -0.0527 -0.1128
  151SAPE  C21316750   0.362   1.134   9.157 -1.5649 -0.2274  0.3372
  151SAPE  H13R16751   0.283   1.190   9.212  0.5422  1.3504  1.8405
  151SAPE  H13S16752   0.319   1.080   9.070 -2.9761 -0.5714  1.2292
  151SAPE  C21416753   0.463   1.239   9.105  0.7594  0.2170 -0.0997
  151SAPE  H14R16754   0.514   1.288   9.189  1.6123 -0.9227  0.0637
  151SAPE  C21516755   0.481   1.278   8.980  0.1928 -0.5402  0.8873
  151SAPE  H15R16756   0.566   1.347   8.970  0.1843 -0.8777 -1.9999
  151SAPE  C21616757   0.416   1.233   8.855 -0.3294 -0.2827  0.3185
  151SAPE  H16R16758   0.381   1.326   8.806  1.3589  0.2157  0.0564
  151SAPE  H16S16759   0.323   1.182   8.891 -1.1579 -0.0634 -1.4456
  151SAPE  C21716760   0.506   1.151   8.757 -0.2338 -0.2760  0.4004
  151SAPE  H17R16761   0.584   1.225   8.729 -1.1924  0.9341  0.8629
  151SAPE  H17S16762   0.446   1.115   8.671  1.4884 -0.8002 -0.5930
  151SAPE  C21816763   0.568   1.033   8.828 -0.4715 -0.5028 -0.5153
  151SAPE  H18R16764   0.477   0.978   8.861  0.7872 -1.0293  2.2962
  151SAPE  H18S16765   0.620   1.056   8.924 -0.2438  0.6600 -0.9145
  151SAPE  C21916766   0.649   0.950   8.739 -0.7636  0.0178  0.5696
  151SAPE  H19R16767   0.754   0.986   8.728 -1.2855  1.3096 -0.2887
  151SAPE  H19S16768   0.607   0.949   8.637  0.5252  0.9475  0.0156
  151SAPE  C22016769   0.653   0.797   8.781  1.0110  0.4218 -0.3660
  151SAPE  H20R16770   0.565   0.741   8.745 -0.1010  1.3619  0.8330
  151SAPE  H20S16771   0.665   0.772   8.889 -0.1658  1.3911  0.0087
  151SAPE  H20T16772   0.738   0.753   8.725 -1.0841 -2.2969 -1.5011
  151SAPE   C3316773  -0.566   0.730   9.826  0.0805  0.0166  0.6207
  151SAPE   H3X16774  -0.631   0.767   9.909 -2.1793  1.4364 -1.6993
  151SAPE   H3Y16775  -0.626   0.743   9.734 -1.8146 -3.6076  1.2787
  151SAPE   C3416776  -0.438   0.822   9.809 -0.1408  0.0900  1.1503
  151SAPE   H4X16777  -0.369   0.784   9.731 -2.1502  0.9940 -1.1167
  151SAPE   H4Y16778  -0.379   0.819   9.903  0.7249  0.6422  0.6274
  151SAPE   C3516779  -0.477   0.964   9.767 -0.9995  1.0006 -0.0108
  151SAPE   H5X16780  -0.387   1.028   9.782 -0.8432  0.5057  1.2027
  151SAPE   H5Y16781  -0.556   1.005   9.833 -2.1054 -1.6864  0.4044
  151SAPE   C3616782  -0.528   0.974   9.622  0.2320  0.4161  0.1877
  151SAPE   H6X16783  -0.637   0.954   9.611  0.1977  0.9969 -0.5950
  151SAPE   H6Y16784  -0.471   0.909   9.552 -0.9451 -0.9340  0.4599
  151SAPE   C3716785  -0.512   1.116   9.570 -0.7458 -0.1024 -0.6983
  151SAPE   H7X16786  -0.409   1.149   9.596 -0.4989 -2.2612  1.2421
  151SAPE   H7Y16787  -0.568   1.192   9.628  1.6846  0.6026  0.8112
  151SAPE   C3816788  -0.550   1.129   9.423  0.4807  0.2271  0.0996
  151SAPE   H8X16789  -0.651   1.088   9.406  0.5951 -0.0207  0.0180
  151SAPE   H8Y16790  -0.479   1.071   9.359 -0.9151  0.5921 -1.8385
  151SAPE   C3916791  -0.557   1.277   9.380  0.2331 -0.6356  0.0673
  151SAPE   H9X16792  -0.487   1.343   9.435 -1.4711 -0.0845  1.6236
  151SAPE   H9Y16793  -0.663   1.304   9.402  0.4543 -0.2678  0.6885
  151SAPE  C31016794  -0.532   1.285   9.226 -0.4181 -0.2387 -0.5621
  151SAPE  H10X16795  -0.438   1.229   9.207  0.0706  0.1154  0.7487
  151SAPE  H10Y16796  -0.514   1.393   9.210  0.6945 -0.0629  1.7173
  151SAPE  C31116797  -0.646   1.236   9.140  0.0638 -0.4189  0.0415
  151SAPE  H11X16798  -0.734   1.301   9.160 -0.6841 -2.1989  2.9761
  151SAPE  H11Y16799  -0.678   1.135   9.173 -1.2343 -0.2650 -0.7306
  151SAPE  C31216800  -0.607   1.257   8.989 -0.3747  0.6064  0.3847
  151SAPE  H12X16801  -0.540   1.345   8.978  2.2393 -1.7717 -4.3270
  151SAPE  H12Y16802  -0.695   1.281   8.926 -0.5419  1.6054  0.9953
  151SAPE  C31316803  -0.524   1.136   8.935 -0.4763 -0.8060  0.3808
  151SAPE  H13X16804  -0.564   1.046   8.985 -2.2677 -0.7486 -0.8707
  151SAPE  H13Y16805  -0.420   1.153   8.970 -0.2760  1.8610 -1.3515
  151SAPE  C31416806  -0.532   1.121   8.780 -0.2881  0.4619  0.2087
  151SAPE  H14X16807  -0.637   1.121   8.744  0.0248  0.7066 -0.7131
  151SAPE  H14Y16808  -0.488   1.025   8.744 -0.4713  0.3111  0.3880
  151SAPE  C31516809  -0.472   1.235   8.699 -1.0733  0.3132  0.3051
  151SAPE  H15X16810  -0.362   1.235   8.713 -1.1583 -0.2189  0.9645
  151SAPE  H15Y16811  -0.508   1.332   8.739 -2.4760 -0.0096 -0.1302
  151SAPE  C31616812  -0.510   1.238   8.555  0.2969  0.0301  0.9374
  151SAPE  H16X16813  -0.619   1.239   8.534  0.1134  0.7732  1.8859
  151SAPE  H16Y16814  -0.459   1.151   8.509  0.0813  0.8398 -0.8617
  151SAPE  C31716815  -0.457   1.360   8.487 -0.3578 -0.3157  0.3772
  151SAPE  H17X16816  -0.347   1.367   8.497 -0.2586 -0.4704 -0.5442
  151SAPE  H17Y16817  -0.500   1.454   8.527  2.6811  0.6396  1.4972
  151SAPE  C31816818  -0.480   1.358   8.337  0.5616 -0.2272  0.1760
  151SAPE  H18X16819  -0.453   1.453   8.286 -1.2592  0.6987  0.9106
  151SAPE  H18Y16820  -0.588   1.342   8.316  0.2300  1.0184  0.8749
  151SAPE  H18Z16821  -0.409   1.284   8.294  1.8530  0.0669  1.7492
  152SAPE     N16822   1.627   0.546  10.879  0.3410  0.4187 -0.4267
  152SAPE   HN116823   1.673   0.481  10.947 -1.0466 -2.7346 -2.4086
  152SAPE   HN216824   1.681   0.545  10.790  0.9070 -0.0822 -0.0855
  152SAPE   HN316825   1.616   0.638  10.927 -1.7663  1.0121 -2.0147
  152SAPE   C1216826   1.480   0.529  10.837  0.2236  0.1467 -0.1846
  152SAPE  H12A16827   1.426   0.626  10.824 -1.3702 -0.8010 -0.7622
  152SAPE  H12B16828   1.429   0.464  10.911 -0.3324  0.6564 -0.1138
  152SAPE   C1116829   1.490   0.461  10.695  0.1952 -0.2042 -0.0898
  152SAPE  H11A16830   1.514   0.545  10.628  0.0856  0.2815  0.4713
  152SAPE  H11B16831   1.383   0.435  10.680 -0.1837  1.1699  0.1299
  152SAPE     P16832   1.512   0.204  10.694  0.4216 -0.2756  0.2280
  152SAPE   O1316833   1.605   0.117  10.774 -0.4548 -0.1354  0.2101
  152SAPE   O1416834   1.370   0.201  10.735 -0.5220 -0.6064  0.3296
  152SAPE   O1216835   1.581   0.348  10.689 -0.3319  0.0183 -0.4315
  152SAPE   O1116836   1.531   0.157  10.548  0.4650  0.5206 -0.2764
  152SAPE    C116837   1.573   0.238  10.441  0.6313 -0.4900  0.1327
  152SAPE    HA16838   1.518   0.335  10.449  1.1767 -0.2083  0.5129
  152SAPE    HB16839   1.682   0.256  10.428  0.8410 -2.0128 -0.2895
  152SAPE    C216840   1.523   0.175  10.312 -0.2029  0.2504 -0.3124
  152SAPE    HS16841   1.583   0.082  10.307 -0.5919 -0.1119  1.4468
  152SAPE   O2116842   1.553   0.272  10.211  0.0007 -0.2871  0.0973
  152SAPE   C2116843   1.595   0.226  10.101 -0.4786 -0.3347  0.4451
  152SAPE   O2216844   1.631   0.104  10.088  0.2833 -0.1602  0.3525
  152SAPE   C2216845   1.606   0.334   9.997  0.1040 -1.0662  0.1214
  152SAPE   H2R16846   1.501   0.368   9.980  0.3087  0.4767  1.7331
  152SAPE   H2S16847   1.662   0.422  10.036  1.4621 -0.3441 -3.2652
  152SAPE    C316848   1.364   0.143  10.316  0.6821  0.6211  0.4348
  152SAPE    HX16849   1.309   0.240  10.314 -3.3201 -1.5229  1.0618
  152SAPE    HY16850   1.338   0.088  10.409  0.2740 -0.3195 -0.2329
  152SAPE   O3116851   1.323   0.070  10.199  0.0496  0.4395 -0.2043
  152SAPE   C3116852   1.362  -0.061  10.183 -0.5565 -0.1756  0.5580
  152SAPE   O3216853   1.439  -0.119  10.256 -0.2491  0.1454 -0.1530
  152SAPE   C3216854   1.291  -0.126  10.065 -0.3637 -0.3880 -0.2301
  152SAPE   H2X16855   1.184  -0.098  10.062  0.2944  2.5054  1.0184
  152SAPE   H2Y16856   1.301  -0.236  10.072  0.2694 -0.4095 -1.3357
  152SAPE   C2316857   1.667   0.271   9.869  0.6245  0.1796 -0.1673
  152SAPE   H3R16858   1.594   0.193   9.837 -2.1394  1.7079  2.0952
  152SAPE   H3S16859   1.763   0.220   9.890 -0.0718 -1.0077  0.1828
  152SAPE   C2416860   1.694   0.374   9.760  0.3409 -0.0160 -0.0656
  152SAPE   H4R16861   1.598   0.423   9.731  0.5535  1.6042  1.8592
  152SAPE   H4S16862   1.732   0.325   9.668 -0.6875  0.0403 -0.5369
  152SAPE   C2516863   1.806   0.471   9.797  0.3166  0.3318  0.1939
  152SAPE   H5R16864   1.906   0.425   9.798  0.0602 -0.1930  1.4296
  152SAPE   C2616865   1.784   0.600   9.827  0.3223  0.6489 -0.6050
  152SAPE   H6R16866   1.871   0.663   9.849 -0.5767  2.1012 -1.1018
  152SAPE   C2716867   1.654   0.674   9.830  0.4119  0.1764 -0.7536
  152SAPE   H7R16868   1.576   0.598   9.850  0.3616  0.3132 -0.4400
  152SAPE   H7S16869   1.632   0.715   9.729  0.4699  1.3818 -0.2867
  152SAPE   C2816870   1.651   0.791   9.934 -0.0757  0.0585  0.1027
  152SAPE   H8R16871   1.746   0.841   9.952 -0.7787  1.2216  0.6132
  152SAPE   C2916872   1.542   0.845   9.996  0.7101 -0.0664  0.2318
  152SAPE   H9R16873   1.560   0.926  10.068 -1.3799  0.2397  0.4584
  152SAPE  C21016874   1.394   0.814   9.984 -0.4958  0.4738  0.4081
  152SAPE  H10R16875   1.368   0.750  10.071 -1.0245  1.7886  1.2275
  152SAPE  H10S16876   1.387   0.760   9.887  0.1438  0.4080  0.3907
  152SAPE  C21116877   1.324   0.940   9.976  0.5136 -0.5614  0.6613
  152SAPE  H11R16878   1.313   0.989  10.074  1.1601  1.1068 -0.0651
  152SAPE  C21216879   1.264   1.003   9.868  0.2150 -0.7761  0.4060
  152SAPE  H12R16880   1.242   1.110   9.872  1.5895 -0.4230 -1.1772
  152SAPE  C21316881   1.254   0.940   9.728  0.0747 -0.1006  0.4560
  152SAPE  H13R16882   1.215   0.836   9.740 -2.7186  0.7231 -1.0450
  152SAPE  H13S16883   1.354   0.921   9.683 -0.9448 -2.0113 -1.0949
  152SAPE  C21416884   1.156   1.014   9.655  0.0769  0.3429  0.6245
  152SAPE  H14R16885   1.052   0.999   9.690 -0.9761 -1.0437 -2.8077
  152SAPE  C21516886   1.179   1.092   9.548 -0.4361 -0.6992 -0.1529
  152SAPE  H15R16887   1.093   1.134   9.494 -0.5315 -0.4879  0.1617
  152SAPE  C21616888   1.313   1.126   9.483 -0.0657 -0.0743 -0.3041
  152SAPE  H16R16889   1.391   1.133   9.563  0.3482  0.5654 -0.7581
  152SAPE  H16S16890   1.293   1.229   9.447 -0.4875 -0.0367  0.0274
  152SAPE  C21716891   1.348   1.039   9.365  0.1313  0.4143  0.7206
  152SAPE  H17R16892   1.446   1.085   9.340 -0.1484 -0.1319 -1.5547
  152SAPE  H17S16893   1.285   1.068   9.278  1.3454  0.5260 -0.1313
  152SAPE  C21816894   1.351   0.885   9.387  0.6603 -0.1375  0.4376
  152SAPE  H18R16895   1.267   0.868   9.458  0.6211 -1.1927  0.1481
  152SAPE  H18S16896   1.441   0.861   9.447  0.0720  1.4744  1.9829
  152SAPE  C21916897   1.343   0.798   9.258 -0.1155 -0.0039  0.5088
  152SAPE  H19R16898   1.247   0.808   9.203 -0.3987 -1.1710  0.7664
  152SAPE  H19S16899   1.344   0.694   9.298 -0.8367  0.3818  1.5508
  152SAPE  C22016900   1.459   0.822   9.161  0.2305 -0.1663 -0.0680
  152SAPE  H20R16901   1.463   0.926   9.122 -1.2627  0.1346  0.5639
  152SAPE  H20S16902   1.449   0.761   9.069  0.5131  0.3136 -0.4171
  152SAPE  H20T16903   1.559   0.801   9.207 -0.1002  0.0850  0.7830
  152SAPE   C3316904   1.353  -0.067   9.936 -0.2851  0.1284  0.0645
  152SAPE   H3X16905   1.451  -0.119   9.927  0.6904  1.5062  2.4480
  152SAPE   H3Y16906   1.382   0.040   9.938 -3.1517  1.0285 -2.2226
  152SAPE   C3416907   1.262  -0.090   9.817 -0.3550  0.0733  0.1405
  152SAPE   H4X16908   1.160  -0.048   9.828 -0.5941 -0.1760 -0.9743
  152SAPE   H4Y16909   1.261  -0.201   9.807 -2.5615  0.0575  0.3363
  152SAPE   C3516910   1.333  -0.044   9.686  0.5569  1.1757 -0.1543
  152SAPE   H5X16911   1.421  -0.112   9.673 -1.3142 -1.7036  1.6633
  152SAPE   H5Y16912   1.358   0.063   9.701  3.6671  0.5077 -0.1319
  152SAPE   C3616913   1.242  -0.060   9.571  0.3645 -0.0951 -0.8931
  152SAPE   H6X16914   1.157   0.011   9.567  1.2706  0.9556 -1.8447
  152SAPE   H6Y16915   1.194  -0.158   9.553 -1.7666  0.6545  0.5434
  152SAPE   C3716916   1.309  -0.019   9.436 -0.3438  0.6916 -0.3713
  152SAPE   H7X16917   1.393  -0.091   9.424 -0.1769  0.9399 -0.6831
  152SAPE   H7Y16918   1.347   0.083   9.458 -0.2593  0.8156 -1.0838
  152SAPE   C3816919   1.216  -0.023   9.319 -0.3199 -0.1060  0.3364
  152SAPE   H8X16920   1.169   0.077   9.311  1.5378  0.6772 -1.0937
  152SAPE   H8Y16921   1.135  -0.099   9.332 -0.4568 -0.3809 -1.9879
  152SAPE   C3916922   1.284  -0.061   9.186  0.5346 -0.2722 -0.2749
  152SAPE   H9X16923   1.343  -0.155   9.187 -1.4045 -1.5190  0.2426
  152SAPE   H9Y16924   1.354   0.021   9.160  0.6316 -0.6117 -1.1029
  152SAPE  C31016925   1.174  -0.066   9.077 -0.3668 -0.3646 -0.0491
  152SAPE  H10X16926   1.123   0.032   9.083 -2.8618 -1.7266  2.1514
  152SAPE  H10Y16927   1.094  -0.140   9.099 -1.6759  0.3935 -2.1726
  152SAPE  C31116928   1.221  -0.083   8.939 -0.5328 -0.2083 -0.1639
  152SAPE  H11X16929   1.250  -0.189   8.921  2.6808  1.2031 -4.0783
  152SAPE  H11Y16930   1.320  -0.032   8.936 -0.4198 -0.4201 -0.0352
  152SAPE  C31216931   1.130  -0.025   8.826 -0.1335 -0.8930 -0.5723
  152SAPE  H12X16932   1.189   0.001   8.736 -1.4768 -1.3841 -1.6169
  152SAPE  H12Y16933   1.080   0.065   8.867  1.5213 -0.5348  0.7429
  152SAPE  C31316934   1.022  -0.117   8.788 -0.7661  0.3296 -0.0559
  152SAPE  H13X16935   0.969  -0.148   8.881  1.0749 -1.4265  0.4474
  152SAPE  H13Y16936   1.058  -0.216   8.751 -3.9220 -0.1320 -2.0567
  152SAPE  C31416937   0.934  -0.063   8.664  0.2700  0.3758  0.0272
  152SAPE  H14X16938   1.010  -0.035   8.587  0.7666  0.0141  0.3809
  152SAPE  H14Y16939   0.891   0.033   8.699 -1.3011 -0.8545  1.5410
  152SAPE  C31516940   0.835  -0.155   8.608  0.4692  0.2473  0.3670
  152SAPE  H15X16941   0.757  -0.176   8.684 -1.0642  0.3431 -1.1446
  152SAPE  H15Y16942   0.883  -0.250   8.575 -3.4270 -1.1727 -1.4666
  152SAPE  C31616943   0.759  -0.097   8.488  0.2831 -0.3009 -0.3131
  152SAPE  H16X16944   0.827  -0.071   8.404 -1.2814 -1.1928 -1.9051
  152SAPE  H16Y16945   0.703  -0.007   8.521 -2.3347 -2.4626  1.2728
  152SAPE  C31716946   0.666  -0.210   8.435  0.1003  0.4923 -0.4297
  152SAPE  H17X16947   0.611  -0.252   8.522 -0.3653 -0.0207 -0.9625
  152SAPE  H17Y16948   0.731  -0.289   8.391  1.3582  1.4936 -0.3866
  152SAPE  C31816949   0.572  -0.163   8.324 -0.3147  0.2026  0.4122
  152SAPE  H18X16950   0.496  -0.239   8.296 -0.8345  1.2028 -0.9322
  152SAPE  H18Y16951   0.630  -0.133   8.235  0.5450 -1.4590  0.4072
  152SAPE  H18Z16952   0.518  -0.073   8.361 -1.5559 -0.3838  0.0792
  153SAPE     N16953   0.629   1.399  10.767  0.1236 -0.3756  0.5695
  153SAPE   HN116954   0.640   1.322  10.836  0.5072  0.5590  1.5603
  153SAPE   HN216955   0.651   1.485  10.821 -0.3231 -0.0732  0.2722
  153SAPE   HN316956   0.534   1.409  10.725  0.6724 -0.9300 -0.8043
  153SAPE   C1216957   0.723   1.394  10.647 -0.1534 -0.0509  0.0415
  153SAPE  H12A16958   0.695   1.489  10.598 -1.1602  0.0110  0.7133
  153SAPE  H12B16959   0.692   1.311  10.581 -0.2466 -0.5851  0.7455
  153SAPE   C1116960   0.865   1.394  10.707  0.3088  0.2813  0.0194
  153SAPE  H11A16961   0.945   1.386  10.630  2.4055  0.9853  2.0626
  153SAPE  H11B16962   0.866   1.296  10.759  3.0169  0.4627  0.3933
  153SAPE     P16963   0.966   1.626  10.748  0.0788  0.2765  0.1431
  153SAPE   O1316964   0.882   1.705  10.656  0.1602 -0.1436  0.0719
  153SAPE   O1416965   1.023   1.698  10.865  0.0067 -0.2202  0.2286
  153SAPE   O1216966   0.885   1.498  10.804  0.6876 -0.4519  0.2045
  153SAPE   O1116967   1.076   1.564  10.665 -0.8070  0.0965 -0.2318
  153SAPE    C116968   1.205   1.623  10.642 -0.2066 -0.9584  0.0436
  153SAPE    HA16969   1.219   1.722  10.691  3.7157  0.3959 -3.5596
  153SAPE    HB16970   1.282   1.557  10.687  3.6895  4.1017  1.3552
  153SAPE    C216971   1.223   1.636  10.489 -0.0940  0.5261  0.2003
  153SAPE    HS16972   1.320   1.686  10.471  0.3403  0.7651  3.1314
  153SAPE   O2116973   1.112   1.714  10.432 -0.3719  0.3666  0.8525
  153SAPE   C2116974   1.109   1.841  10.457 -0.3049  0.0629  0.6969
  153SAPE   O2216975   1.189   1.903  10.530  0.3530  0.1318 -0.3243
  153SAPE   C2216976   1.007   1.911  10.371 -0.9479 -0.4623  0.2189
  153SAPE   H2R16977   0.946   1.834  10.320 -2.1906 -0.4474  1.6230
  153SAPE   H2S16978   0.937   1.963  10.440 -0.3322  0.1530  0.3813
  153SAPE    C316979   1.230   1.496  10.423  0.1934 -0.6493  0.2062
  153SAPE    HX16980   1.152   1.428  10.462  0.7542 -1.7478 -0.5629
  153SAPE    HY16981   1.322   1.453  10.468 -0.0003 -1.7497 -0.4342
  153SAPE   O3116982   1.236   1.490  10.276  0.1228  0.0082 -0.3141
  153SAPE   C3116983   1.126   1.484  10.215  0.3367 -0.7189 -0.2558
  153SAPE   O3216984   1.010   1.486  10.263  0.0863 -0.0685 -0.0172
  153SAPE   C3216985   1.156   1.469  10.071 -0.1409 -0.7202 -0.6601
  153SAPE   H2X16986   1.221   1.379  10.061 -0.7733 -1.1758 -0.6679
  153SAPE   H2Y16987   1.209   1.557  10.029 -1.0744  0.1813  0.0343
  153SAPE   C2316988   1.074   2.008  10.267  0.1328 -0.7184  0.1076
  153SAPE   H3R16989   1.146   2.065  10.330 -1.1630  1.4938 -0.3373
  153SAPE   H3S16990   0.993   2.075  10.232 -0.4227 -1.7123 -0.4963
  153SAPE   C2416991   1.146   1.935  10.151  0.2364 -0.6511  0.4273
  153SAPE   H4R16992   1.068   1.891  10.085 -0.0715 -0.5862  0.7434
  153SAPE   H4S16993   1.206   1.849  10.189  1.3938 -0.1876 -0.3211
  153SAPE   C2516994   1.244   2.031  10.084 -0.6098  0.0750 -0.3384
  153SAPE   H5R16995   1.325   2.065  10.151 -0.0553  0.0815 -1.0056
  153SAPE   C2616996   1.233   2.093   9.970  0.2538  0.2949 -0.1160
  153SAPE   H6R16997   1.317   2.152   9.930  0.3444  1.1932  1.3794
  153SAPE   C2716998   1.118   2.071   9.867  0.0319  0.2583 -0.4135
  153SAPE   H7R16999   1.104   2.175   9.832 -3.2188  0.4863  1.3132
  153SAPE   H7S17000   1.022   2.052   9.920 -0.4093  1.0411 -0.9266
  153SAPE   C2817001   1.137   1.960   9.761  0.1733 -0.3235  0.0799
  153SAPE   H8R17002   1.198   1.874   9.792 -0.2666 -0.5185  0.4150
  153SAPE   C2917003   1.108   1.968   9.632  0.1472  0.3423  0.3163
  153SAPE   H9R17004   1.121   1.880   9.567  1.2467  0.6452  0.1156
  153SAPE  C21017005   1.050   2.081   9.558 -0.6013 -0.2342 -0.1097
  153SAPE  H10R17006   0.995   2.143   9.632 -1.1916 -0.4421 -0.3700
  153SAPE  H10S17007   0.968   2.047   9.492 -1.0131 -3.5629  2.0176
  153SAPE  C21117008   1.152   2.166   9.491  0.1879  0.2706 -0.4355
  153SAPE  H11R17009   1.188   2.249   9.553 -2.0750 -0.7278  2.3454
  153SAPE  C21217010   1.179   2.163   9.360 -0.5288  0.3065  0.5004
  153SAPE  H12R17011   1.247   2.244   9.329  0.4570 -0.4454  0.6694
  153SAPE  C21317012   1.120   2.073   9.252  0.0616 -0.0731 -0.3275
  153SAPE  H13R17013   1.077   1.979   9.292 -0.1824 -0.0828 -0.6080
  153SAPE  H13S17014   1.203   2.051   9.182  0.8603  1.1114  0.2220
  153SAPE  C21417015   1.014   2.148   9.181  0.5957 -0.3384  0.0355
  153SAPE  H14R17016   0.959   2.211   9.254  1.4961  0.5518 -0.0518
  153SAPE  C21517017   0.970   2.128   9.053 -0.1507 -0.2261  0.2009
  153SAPE  H15R17018   0.886   2.187   9.015  0.0210  2.0019  3.0423
  153SAPE  C21617019   1.017   2.019   8.963  0.4857 -0.0798 -0.3395
  153SAPE  H16R17020   1.053   1.931   9.020  0.7139  0.5897  0.5655
  153SAPE  H16S17021   1.101   2.045   8.895 -1.1473  2.2812 -1.5309
  153SAPE  C21717022   0.909   1.969   8.861 -0.2481 -0.2951 -0.6829
  153SAPE  H17R17023   0.808   1.965   8.908  0.0723  1.6128  0.2158
  153SAPE  H17S17024   0.952   1.869   8.838  1.8995  0.8788 -1.9134
  153SAPE  C21817025   0.880   2.053   8.740  0.6246 -1.1986  0.8709
  153SAPE  H18R17026   0.974   2.086   8.691  1.0539  0.4226  2.7438
  153SAPE  H18S17027   0.831   2.145   8.776  1.6823 -0.4044  0.3221
  153SAPE  C21917028   0.793   1.976   8.644  0.3458 -0.0386 -0.8454
  153SAPE  H19R17029   0.714   1.928   8.704  0.6161  0.5415 -0.0199
  153SAPE  H19S17030   0.850   1.898   8.589 -0.0939 -1.2457  0.3857
  153SAPE  C22017031   0.732   2.062   8.536 -0.1566  0.7456  0.8882
  153SAPE  H20R17032   0.817   2.108   8.480 -1.0521  2.1149  0.6351
  153SAPE  H20S17033   0.667   2.142   8.577 -0.0475  1.6683 -0.7191
  153SAPE  H20T17034   0.673   1.998   8.467  1.2179  1.2991 -0.8417
  153SAPE   C3317035   1.030   1.447   9.986 -0.0307 -0.5414 -0.2797
  153SAPE   H3X17036   0.967   1.539   9.982 -0.2729 -0.6654  0.6637
  153SAPE   H3Y17037   0.958   1.379  10.036  0.3460  1.0204  2.5151
  153SAPE   C3417038   1.063   1.393   9.849 -0.5211 -0.8016  0.3057
  153SAPE   H4X17039   0.973   1.342   9.808 -0.6452  0.7109 -1.3742
  153SAPE   H4Y17040   1.140   1.312   9.858 -0.2939 -0.5657  0.5019
  153SAPE   C3517041   1.113   1.498   9.758  0.1292 -0.2863  0.5425
  153SAPE   H5X17042   1.208   1.542   9.797  0.4592  3.1076 -3.6438
  153SAPE   H5Y17043   1.040   1.581   9.751 -2.2053 -2.2989  0.6170
  153SAPE   C3617044   1.125   1.458   9.612  0.6404  0.6734 -0.4624
  153SAPE   H6X17045   1.025   1.434   9.571  1.3443 -1.6191 -0.9108
  153SAPE   H6Y17046   1.177   1.360   9.599 -0.1928  0.2316 -0.5163
  153SAPE   C3717047   1.178   1.563   9.511 -0.5015 -0.9051  0.1815
  153SAPE   H7X17048   1.281   1.585   9.546 -1.6748  2.1513  1.8738
  153SAPE   H7Y17049   1.116   1.652   9.535 -0.0537 -1.0183  1.8352
  153SAPE   C3817050   1.147   1.519   9.372  0.6126 -0.0714 -0.0230
  153SAPE   H8X17051   1.040   1.494   9.361  0.7221 -0.8425  0.6144
  153SAPE   H8Y17052   1.206   1.428   9.346  2.8546  1.1764  0.5325
  153SAPE   C3917053   1.193   1.627   9.272 -0.8177  0.6038  0.3799
  153SAPE   H9X17054   1.299   1.654   9.285 -0.7187 -0.1283  1.1332
  153SAPE   H9Y17055   1.146   1.727   9.285  0.4385  1.0622  1.5178
  153SAPE  C31017056   1.158   1.568   9.133 -0.1064  0.1078  0.0707
  153SAPE  H10X17057   1.049   1.559   9.115  0.1096 -0.1186 -1.1400
  153SAPE  H10Y17058   1.219   1.477   9.114 -1.4959 -0.7440 -0.3464
  153SAPE  C31117059   1.192   1.661   9.015  0.3736 -0.2557  0.8582
  153SAPE  H11X17060   1.299   1.688   9.023  0.4810 -0.3425 -0.2180
  153SAPE  H11Y17061   1.128   1.749   9.035 -2.7409 -1.8953 -1.5116
  153SAPE  C31217062   1.156   1.616   8.877  0.0202 -0.0034 -0.3961
  153SAPE  H12X17063   1.059   1.661   8.846 -0.5636 -0.4950  0.6407
  153SAPE  H12Y17064   1.156   1.504   8.874  1.8455  0.0211 -5.4337
  153SAPE  C31317065   1.256   1.661   8.775 -0.8039  0.1608 -0.3919
  153SAPE  H13X17066   1.359   1.626   8.799 -1.7046 -2.3877 -0.0741
  153SAPE  H13Y17067   1.263   1.772   8.781 -1.2009  0.3125 -2.4470
  153SAPE  C31417068   1.231   1.629   8.629 -0.3710  0.5838  0.0535
  153SAPE  H14X17069   1.215   1.519   8.622  1.4604  0.2300  1.3920
  153SAPE  H14Y17070   1.323   1.667   8.579 -0.9137  1.7872 -0.0555
  153SAPE  C31517071   1.120   1.713   8.561 -0.2417 -0.1517 -0.3766
  153SAPE  H15X17072   1.142   1.822   8.565 -0.3199 -0.1830  1.0134
  153SAPE  H15Y17073   1.023   1.695   8.612 -0.3152  0.1363 -0.4164
  153SAPE  C31617074   1.093   1.665   8.416 -0.2679 -0.0117  0.0938
  153SAPE  H16X17075   1.010   1.725   8.374  0.3962  0.3121 -0.7851
  153SAPE  H16Y17076   1.063   1.558   8.419  0.0651 -0.1559 -1.3275
  153SAPE  C31717077   1.217   1.674   8.328 -0.8150  0.6575  0.0593
  153SAPE  H17X17078   1.293   1.595   8.349 -0.0863  1.2827 -0.2082
  153SAPE  H17Y17079   1.277   1.768   8.327 -1.2608  0.9390 -0.8898
  153SAPE  C31817080   1.166   1.669   8.181 -0.3249  0.0519  0.4481
  153SAPE  H18X17081   1.134   1.767   8.142 -0.1030 -0.2064 -0.3911
  153SAPE  H18Y17082   1.077   1.603   8.171 -0.4712  0.4473 -0.8805
  153SAPE  H18Z17083   1.250   1.639   8.115  1.1168 -0.8097  2.6035
  154SAPE     N17084   2.369   1.104  10.493  0.0094  0.4438 -0.5811
  154SAPE   HN117085   2.345   1.199  10.527 -0.5782  0.3434 -0.6937
  154SAPE   HN217086   2.367   1.039  10.574 -0.6669  0.4860 -0.5574
  154SAPE   HN317087   2.467   1.106  10.460  0.0577 -0.7963 -0.5233
  154SAPE   C1217088   2.258   1.049  10.404  0.4314 -0.3014  0.6007
  154SAPE  H12A17089   2.297   1.003  10.311 -0.8047  0.4057 -0.2808
  154SAPE  H12B17090   2.201   1.136  10.365 -0.1120  0.2404  2.5188
  154SAPE   C1117091   2.178   0.945  10.481 -0.1551 -0.1711 -0.3155
  154SAPE  H11A17092   2.234   0.853  10.505  0.9499  1.1609  2.4756
  154SAPE  H11B17093   2.090   0.932  10.415 -0.0419 -0.4008 -0.4207
  154SAPE     P17094   1.994   0.998  10.664 -0.0252 -0.1969  0.0149
  154SAPE   O1317095   1.931   0.866  10.657  0.0414 -0.9782  0.2334
  154SAPE   O1417096   1.991   1.059  10.803  0.0089  0.5898  0.1137
  154SAPE   O1217097   2.145   0.993  10.608 -0.7106  0.1132  0.7838
  154SAPE   O1117098   1.923   1.098  10.563 -0.0463 -0.1814 -0.3613
  154SAPE    C117099   1.942   1.235  10.563 -0.0053 -0.5281  0.0772
  154SAPE    HA17100   1.939   1.269  10.668  0.6693 -1.5467  0.4345
  154SAPE    HB17101   2.045   1.256  10.530 -1.1201  0.7545 -2.7418
  154SAPE    C217102   1.862   1.321  10.459 -0.3729  0.5710 -0.3527
  154SAPE    HS17103   1.761   1.275  10.450  0.2320 -0.6043 -1.1000
  154SAPE   O2117104   1.923   1.322  10.330 -0.2346  0.2138  0.0076
  154SAPE   C2117105   1.926   1.208  10.260 -0.6151 -0.0744 -0.7638
  154SAPE   O2217106   1.856   1.106  10.283 -1.0935 -0.6392 -0.5761
  154SAPE   C2217107   2.017   1.238  10.144  0.0051 -0.6265  0.4467
  154SAPE   H2R17108   1.962   1.300  10.070  0.0183 -1.8959 -0.6447
  154SAPE   H2S17109   2.105   1.297  10.178 -0.9101  0.5553  0.7973
  154SAPE    C317110   1.838   1.469  10.509 -0.6800  0.7842 -0.1630
  154SAPE    HX17111   1.938   1.517  10.509  0.6004 -1.8072 -0.5049
  154SAPE    HY17112   1.798   1.457  10.612  1.3086 -2.0575  0.3595
  154SAPE   O3117113   1.753   1.540  10.415 -0.3407 -0.1417  0.0013
  154SAPE   C3117114   1.624   1.543  10.433 -0.2020 -0.1029  0.4725
  154SAPE   O3217115   1.562   1.502  10.523  0.3172 -0.4772 -0.3645
  154SAPE   C3217116   1.569   1.644  10.330 -0.1876 -0.5471  0.0880
  154SAPE   H2X17117   1.570   1.744  10.378 -1.7910 -1.1531  1.4284
  154SAPE   H2Y17118   1.460   1.630  10.315 -0.4322  0.2056  1.0888
  154SAPE   C2317119   2.060   1.105  10.081  0.7836 -0.6855  0.5110
  154SAPE   H3R17120   1.966   1.063  10.038 -2.0698  1.9525  3.8464
  154SAPE   H3S17121   2.102   1.047  10.166  0.7593  0.0586  1.0353
  154SAPE   C2417122   2.165   1.130   9.977 -0.1346 -0.0303  0.1930
  154SAPE   H4R17123   2.189   1.026   9.944 -0.3407  0.2753 -0.9371
  154SAPE   H4S17124   2.259   1.172  10.019  1.5813 -1.5587 -1.9191
  154SAPE   C2517125   2.125   1.218   9.856  0.2940 -0.0969  0.0837
  154SAPE   H5R17126   2.124   1.325   9.882 -0.7036 -0.1340  0.2501
  154SAPE   C2617127   2.101   1.177   9.731 -0.5952 -1.1238  0.0777
  154SAPE   H6R17128   2.074   1.260   9.664  0.3431 -0.1673  0.8628
  154SAPE   C2717129   2.098   1.043   9.666  0.1692 -0.0472 -0.2644
  154SAPE   H7R17130   2.188   0.982   9.691  0.5937 -0.0259 -1.6564
  154SAPE   H7S17131   2.111   1.063   9.557  0.5087 -0.9890 -0.4091
  154SAPE   C2817132   1.982   0.959   9.706 -0.2727 -0.4112 -0.2941
  154SAPE   H8R17133   1.978   0.950   9.815  0.1132  0.0944 -0.2344
  154SAPE   C2917134   1.886   0.905   9.626  0.5204 -0.0490  0.3974
  154SAPE   H9R17135   1.814   0.834   9.670  0.4569 -0.5896 -0.5635
  154SAPE  C21017136   1.868   0.910   9.480 -0.9532  0.3426 -0.1020
  154SAPE  H10R17137   1.814   0.817   9.451 -2.7191  1.6510 -1.1908
  154SAPE  H10S17138   1.968   0.899   9.434 -0.2266  0.9770  1.2980
  154SAPE  C21117139   1.783   1.015   9.414 -1.0876  0.1321  0.8391
  154SAPE  H11R17140   1.708   1.068   9.475 -0.4265  0.5036  1.3347
  154SAPE  C21217141   1.767   1.054   9.279 -0.2934  0.3687 -0.1792
  154SAPE  H12R17142   1.706   1.142   9.256 -0.9654 -0.1742 -0.4824
  154SAPE  C21317143   1.834   1.003   9.164  0.0312 -0.1944 -0.9151
  154SAPE  H13R17144   1.765   1.012   9.077 -3.0122 -0.8757  1.3346
  154SAPE  H13S17145   1.874   0.901   9.183  1.1525  0.3740 -0.2090
  154SAPE  C21417146   1.963   1.085   9.151  0.6308  0.1007  0.5364
  154SAPE  H14R17147   2.038   1.056   9.225  0.5234  1.9912  1.3915
  154SAPE  C21517148   1.987   1.195   9.083 -0.1254 -0.0252  0.2458
  154SAPE  H15R17149   2.092   1.227   9.075  0.1297 -0.5372  1.4231
  154SAPE  C21617150   1.897   1.252   8.981  0.0459 -0.3437 -0.2141
  154SAPE  H16R17151   1.902   1.362   8.986 -2.9359 -0.0964 -1.6674
  154SAPE  H16S17152   1.793   1.235   9.014 -0.2341  2.3645  0.3969
  154SAPE  C21717153   1.920   1.200   8.841  0.3877 -0.0085  0.4286
  154SAPE  H17R17154   1.842   1.234   8.770  1.9768  0.0773 -1.3170
  154SAPE  H17S17155   1.907   1.091   8.851  3.0185 -0.3476  0.4363
  154SAPE  C21817156   2.057   1.239   8.788 -0.1499 -0.6195 -0.1517
  154SAPE  H18R17157   2.130   1.215   8.868 -1.5458  0.3777  1.4577
  154SAPE  H18S17158   2.075   1.348   8.781 -0.7272 -0.4764  0.5359
  154SAPE  C21917159   2.092   1.169   8.655 -0.6104 -0.0469  0.1985
  154SAPE  H19R17160   2.074   1.060   8.670  1.3876 -0.8279 -2.6627
  154SAPE  H19S17161   2.198   1.191   8.633 -0.8565  0.1705 -0.8360
  154SAPE  C22017162   2.017   1.206   8.522  0.0302 -0.0104 -0.0312
  154SAPE  H20R17163   2.053   1.141   8.439  0.1843 -1.9702  1.5247
  154SAPE  H20S17164   2.044   1.311   8.501  2.1659 -0.2848  1.1711
  154SAPE  H20T17165   1.907   1.205   8.540 -0.1448 -0.9693 -1.1336
  154SAPE   C3317166   1.623   1.644  10.188  0.1628  0.3893  0.1932
  154SAPE   H3X17167   1.654   1.542  10.156  0.8517  0.9245 -0.8824
  154SAPE   H3Y17168   1.717   1.703  10.197  0.4576 -0.3093  1.7902
  154SAPE   C3417169   1.536   1.721  10.087  0.6207 -0.7850 -0.9544
  154SAPE   H4X17170   1.499   1.813  10.136 -2.1268 -2.1657 -0.3840
  154SAPE   H4Y17171   1.450   1.657  10.057 -1.0824  0.1147  1.8651
  154SAPE   C3517172   1.613   1.764   9.961 -0.8101  0.0400 -0.3200
  154SAPE   H5X17173   1.649   1.668   9.918  0.4334  0.6074 -0.5702
  154SAPE   H5Y17174   1.705   1.820   9.984 -0.0367 -0.1883 -2.7197
  154SAPE   C3617175   1.524   1.830   9.860  0.2359  0.5108  0.2945
  154SAPE   H6X17176   1.487   1.931   9.887  0.7738  0.8150 -0.0819
  154SAPE   H6Y17177   1.431   1.775   9.835  0.0411  1.7182 -1.7612
  154SAPE   C3717178   1.597   1.845   9.720  0.1890  0.6844 -0.3924
  154SAPE   H7X17179   1.626   1.747   9.677  1.0573  0.1392  1.3900
  154SAPE   H7Y17180   1.692   1.898   9.741  0.9847 -1.2856  1.0743
  154SAPE   C3817181   1.502   1.912   9.614  0.1622  0.0037 -0.8934
  154SAPE   H8X17182   1.469   2.014   9.644 -0.6597 -0.6956  0.5675
  154SAPE   H8Y17183   1.410   1.850   9.607  1.3032 -1.7918 -0.2536
  154SAPE   C3917184   1.576   1.917   9.480 -0.0146  0.2833  0.1221
  154SAPE   H9X17185   1.600   1.808   9.471  0.8292  0.3328  1.6577
  154SAPE   H9Y17186   1.674   1.968   9.488  1.1812 -1.7424 -1.0661
  154SAPE  C31017187   1.499   1.962   9.363 -0.4141  1.1022  0.9959
  154SAPE  H10X17188   1.476   2.069   9.379  1.3648  2.0082 -1.9781
  154SAPE  H10Y17189   1.401   1.912   9.349 -0.4382  1.1491  1.0001
  154SAPE  C31117190   1.584   1.959   9.234  0.4456  0.2190 -0.6692
  154SAPE  H11X17191   1.620   1.857   9.208 -0.5145 -0.5759  1.0086
  154SAPE  H11Y17192   1.662   2.032   9.266 -0.4974  0.6762  0.6132
  154SAPE  C31217193   1.508   2.017   9.116 -0.1916 -0.0206 -0.0409
  154SAPE  H12X17194   1.477   2.123   9.127 -0.0457  0.0044  0.1189
  154SAPE  H12Y17195   1.413   1.959   9.113  0.4632 -1.0460 -2.6869
  154SAPE  C31317196   1.595   2.004   8.983  0.7506 -0.6228  0.3881
  154SAPE  H13X17197   1.629   1.899   8.975  0.3379 -0.8580  1.6261
  154SAPE  H13Y17198   1.684   2.068   8.999 -0.6123  1.7549 -1.1063
  154SAPE  C31417199   1.497   2.050   8.872  0.2904 -0.0622 -0.3434
  154SAPE  H14X17200   1.478   2.158   8.887 -0.1452 -0.3076  0.9330
  154SAPE  H14Y17201   1.399   1.999   8.887  0.0797  0.8330  1.4427
  154SAPE  C31517202   1.550   2.038   8.727 -0.4425 -0.1369  0.8433
  154SAPE  H15X17203   1.568   1.932   8.702  0.5255  0.6223 -1.8099
  154SAPE  H15Y17204   1.644   2.096   8.732 -0.2030 -0.5260  0.8710
  154SAPE  C31617205   1.457   2.091   8.611  0.2116 -0.5768  0.2266
  154SAPE  H16X17206   1.507   2.068   8.514  0.1127 -0.6575  0.1953
  154SAPE  H16Y17207   1.447   2.200   8.627 -0.6997 -0.6643  0.2533
  154SAPE  C31717208   1.314   2.045   8.622  0.4610 -0.2007  0.0294
  154SAPE  H17X17209   1.265   2.074   8.718  1.1917  1.0142  0.0478
  154SAPE  H17Y17210   1.314   1.934   8.614 -0.3415 -0.2644  0.7254
  154SAPE  C31817211   1.223   2.092   8.504  0.6736 -0.1840 -0.3389
  154SAPE  H18X17212   1.281   2.084   8.410  2.1096  1.2926  0.4049
  154SAPE  H18Y17213   1.193   2.199   8.500 -1.1627 -0.6981 -0.7249
  154SAPE  H18Z17214   1.126   2.039   8.498 -1.0796  3.0223 -1.5822
  155SAPE     N17215   2.552   2.328  10.862 -0.2484 -0.6102  0.2239
  155SAPE   HN117216   2.515   2.317  10.959  1.6271  1.5900  1.2538
  155SAPE   HN217217   2.540   2.240  10.808 -1.6548  0.3832 -1.1151
  155SAPE   HN317218   2.655   2.338  10.874 -0.3469 -1.3735  1.8108
  155SAPE   C1217219   2.491   2.452  10.792 -0.3484 -0.4402  0.5756
  155SAPE  H12A17220   2.452   2.524  10.867  2.2054  1.3489  0.2590
  155SAPE  H12B17221   2.406   2.413  10.733 -2.9997  0.0570  3.9672
  155SAPE   C1117222   2.597   2.543  10.718 -0.8067 -0.6660  0.1303
  155SAPE  H11A17223   2.535   2.627  10.679  1.7353  1.1929 -0.0626
  155SAPE  H11B17224   2.637   2.483  10.634 -2.5315 -0.4882 -0.8300
  155SAPE     P17225   2.838   2.507  10.813 -0.2844  0.2847 -0.5446
  155SAPE   O1317226   2.926   2.580  10.910  0.5067 -0.4316  0.3194
  155SAPE   O1417227   2.815   2.359  10.826  0.2428 -0.2531 -0.2299
  155SAPE   O1217228   2.700   2.584  10.810 -0.3704 -0.3285 -0.5256
  155SAPE   O1117229   2.897   2.523  10.665 -0.2890  0.5304 -0.5692
  155SAPE    C117230   3.014   2.449  10.633 -0.3338 -0.5540  0.2691
  155SAPE    HA17231   3.103   2.475  10.694 -2.0333 -0.4939  2.7970
  155SAPE    HB17232   2.998   2.342  10.655 -0.9402 -0.3812  0.6795
  155SAPE    C217233   3.042   2.448  10.482 -1.1227  0.0582  0.7671
  155SAPE    HS17234   3.106   2.358  10.470 -1.6724 -0.4513  1.6090
  155SAPE   O2117235   3.092   2.577  10.445  0.5407  0.6178  0.3249
  155SAPE   C2117236   3.226   2.594  10.446  0.5433  0.2108  0.5443
  155SAPE   O2217237   3.309   2.510  10.469  0.5029 -0.8028  0.4364
  155SAPE   C2217238   3.259   2.739  10.396  0.7473  0.0354 -0.0855
  155SAPE   H2R17239   3.167   2.798  10.379  1.1028  0.4027 -0.8030
  155SAPE   H2S17240   3.306   2.788  10.484  2.3826  1.3561 -1.6451
  155SAPE    C317241   2.914   2.414  10.393  0.2403  0.4042  0.0953
  155SAPE    HX17242   2.842   2.497  10.408 -0.6828 -0.3091 -0.3303
  155SAPE    HY17243   2.856   2.324  10.421 -2.2421  1.1659 -2.3390
  155SAPE   O3117244   2.960   2.407  10.261 -0.6057  0.0835  0.0417
  155SAPE   C3117245   2.936   2.505  10.182  0.6634  0.2800  0.5693
  155SAPE   O3217246   2.888   2.610  10.217  0.3203  0.4764  1.0551
  155SAPE   C3217247   2.988   2.466  10.041 -0.4401  0.2398 -0.1450
  155SAPE   H2X17248   2.959   2.359  10.030  0.7230 -0.0546 -0.4415
  155SAPE   H2Y17249   3.099   2.468  10.035 -0.2787 -2.5317  1.2529
  155SAPE   C2317250   3.349   2.754  10.278  0.5411  0.3733 -0.1339
  155SAPE   H3R17251   3.436   2.686  10.290 -1.1164 -1.4350  2.0211
  155SAPE   H3S17252   3.388   2.857  10.270  2.5924 -0.3630  0.0914
  155SAPE   C2417253   3.286   2.706  10.152 -0.2046  1.1489 -0.3167
  155SAPE   H4R17254   3.250   2.601  10.163 -2.2901  1.8982  0.3151
  155SAPE   H4S17255   3.365   2.700  10.074  0.2521 -0.3253  0.2427
  155SAPE   C2517256   3.170   2.801  10.123  0.2966 -0.1366 -0.0088
  155SAPE   H5R17257   3.093   2.805  10.202  1.3727 -1.8420  1.1594
  155SAPE   C2617258   3.156   2.863  10.007 -0.0206 -0.1525 -0.8045
  155SAPE   H6R17259   3.074   2.935   9.996 -0.1840  0.3668  3.0255
  155SAPE   C2717260   3.247   2.862   9.886  0.2406  0.2472 -0.0709
  155SAPE   H7R17261   3.241   2.756   9.852  0.9309 -0.0248  0.6606
  155SAPE   H7S17262   3.354   2.865   9.914  0.9860  2.6191 -2.8279
  155SAPE   C2817263   3.211   2.966   9.778  0.6872  0.5953 -0.7567
  155SAPE   H8R17264   3.158   3.054   9.818  1.2470 -0.1160  1.6707
  155SAPE   C2917265   3.244   2.967   9.644 -0.4760  0.0713 -0.5565
  155SAPE   H9R17266   3.215   3.057   9.588  2.0051  2.1666  1.3888
  155SAPE  C21017267   3.320   2.864   9.568 -0.2349  0.1441  0.4141
  155SAPE  H10R17268   3.245   2.802   9.515  0.2429  0.3007 -0.4632
  155SAPE  H10S17269   3.380   2.808   9.643 -1.2198  1.3451  2.1293
  155SAPE  C21117270   3.415   2.931   9.473 -0.9430  0.1099 -0.5120
  155SAPE  H11R17271   3.482   3.006   9.517  1.0443 -1.0133 -1.5717
  155SAPE  C21217272   3.445   2.904   9.345  0.2627  0.1216  0.1354
  155SAPE  H12R17273   3.519   2.971   9.299 -0.2806  1.2936  0.9290
  155SAPE  C21317274   3.368   2.812   9.252 -0.3365  0.3751  0.5790
  155SAPE  H13R17275   3.303   2.742   9.307  1.8263  0.2572  3.0687
  155SAPE  H13S17276   3.435   2.739   9.200 -0.0278 -0.4491  2.1239
  155SAPE  C21417277   3.304   2.892   9.142  0.2663 -0.2511  0.7298
  155SAPE  H14R17278   3.197   2.908   9.161  0.3841  2.1666 -0.5053
  155SAPE  C21517279   3.358   2.934   9.024  0.0349 -0.0960 -0.4960
  155SAPE  H15R17280   3.300   2.994   8.952 -0.7937  2.0137  1.8616
  155SAPE  C21617281   3.503   2.901   8.986  0.4436  0.6332  0.6967
  155SAPE  H16R17282   3.558   2.858   9.072  0.0577  1.1725  1.2207
  155SAPE  H16S17283   3.547   2.998   8.954 -1.6002  1.4513  0.2532
  155SAPE  C21717284   3.495   2.804   8.865 -0.6473 -0.2870 -0.7918
  155SAPE  H17R17285   3.438   2.850   8.782 -4.6442  0.1203  2.0392
  155SAPE  H17S17286   3.439   2.712   8.894  0.8425  0.0662  3.5383
  155SAPE  C21817287   3.641   2.759   8.814  0.3831 -0.5272  0.2185
  155SAPE  H18R17288   3.682   2.691   8.891 -2.1543  1.4150  3.4174
  155SAPE  H18S17289   3.710   2.846   8.808 -0.2798  0.1280  1.7995
  155SAPE  C21917290   3.651   2.686   8.678  0.0013 -0.4378  0.1746
  155SAPE  H19R17291   3.592   2.753   8.611  1.1835  1.4585  0.9651
  155SAPE  H19S17292   3.603   2.586   8.682 -0.8304 -0.0597 -0.2450
  155SAPE  C22017293   3.789   2.683   8.616  0.2479 -0.2152 -0.3550
  155SAPE  H20R17294   3.845   2.600   8.665  0.7875  0.2741 -0.1335
  155SAPE  H20S17295   3.842   2.779   8.629  0.3208 -0.4175  0.9813
  155SAPE  H20T17296   3.785   2.646   8.511 -0.2350  2.0016 -1.1278
  155SAPE   C3317297   2.923   2.559   9.930 -0.3251 -0.7718 -0.0560
  155SAPE   H3X17298   2.958   2.661   9.954 -2.5582  0.3167 -1.2629
  155SAPE   H3Y17299   2.813   2.549   9.926 -0.1297 -3.0025 -0.9561
  155SAPE   C3417300   2.967   2.502   9.794  0.1659 -0.6363  1.0569
  155SAPE   H4X17301   2.922   2.403   9.771 -3.1109  1.6346 -2.9900
  155SAPE   H4Y17302   3.077   2.488   9.786  0.0865 -1.1813  0.9317
  155SAPE   C3517303   2.921   2.590   9.676 -0.1432 -0.1227  0.0797
  155SAPE   H5X17304   2.965   2.690   9.696 -1.1476  0.3086  0.1763
  155SAPE   H5Y17305   2.810   2.600   9.681 -0.0289  1.5544 -0.4442
  155SAPE   C3617306   2.977   2.539   9.542  0.3973  0.4201 -0.0885
  155SAPE   H6X17307   2.949   2.431   9.535  2.3538 -0.1344  0.2377
  155SAPE   H6Y17308   3.087   2.553   9.546  0.3672  2.1607 -3.4038
  155SAPE   C3717309   2.916   2.616   9.420 -0.0372  0.0684 -0.2022
  155SAPE   H7X17310   2.950   2.721   9.432  0.7708 -0.3406  1.1585
  155SAPE   H7Y17311   2.806   2.616   9.434 -0.2317  2.4374 -1.5931
  155SAPE   C3817312   2.950   2.554   9.286  0.1617  0.0929  0.4068
  155SAPE   H8X17313   2.951   2.443   9.299  1.4366 -0.0069 -0.4059
  155SAPE   H8Y17314   3.054   2.570   9.250  0.2066 -2.5781 -0.8347
  155SAPE   C3917315   2.857   2.605   9.181 -0.4835  0.2944 -0.2583
  155SAPE   H9X17316   2.869   2.716   9.183  0.1576  0.2179  0.6229
  155SAPE   H9Y17317   2.754   2.587   9.218 -1.4191  0.3365 -2.7929
  155SAPE  C31017318   2.873   2.556   9.043 -0.3325 -0.1195  0.2294
  155SAPE  H10X17319   2.787   2.589   8.981  0.9889  2.2755 -0.3703
  155SAPE  H10Y17320   2.890   2.446   9.049  0.4678  0.0958  2.7533
  155SAPE  C31117321   3.004   2.602   8.979  0.2546  0.2052 -0.2202
  155SAPE  H11X17322   3.095   2.549   9.014 -1.0089 -1.5202  0.5132
  155SAPE  H11Y17323   3.028   2.710   8.990  1.4964  0.0173 -0.9697
  155SAPE  C31217324   3.004   2.562   8.829 -1.0812 -0.6063 -0.3001
  155SAPE  H12X17325   2.921   2.616   8.778  0.3194 -0.4500 -2.4704
  155SAPE  H12Y17326   2.995   2.451   8.819 -0.7499 -0.6140 -0.5269
  155SAPE  C31317327   3.136   2.601   8.753 -0.2012  0.0763  0.0652
  155SAPE  H13X17328   3.221   2.533   8.777 -0.1941  0.4321  1.0927
  155SAPE  H13Y17329   3.168   2.702   8.785  1.2380  0.7924 -3.4374
  155SAPE  C31417330   3.112   2.622   8.604 -0.0153  0.1939 -0.5276
  155SAPE  H14X17331   3.038   2.704   8.589  0.7705  0.8575 -0.8155
  155SAPE  H14Y17332   3.061   2.536   8.555  2.0651 -0.8337 -0.9128
  155SAPE  C31517333   3.241   2.642   8.524 -0.2496 -0.5796 -0.1467
  155SAPE  H15X17334   3.321   2.571   8.554 -0.1758 -0.4141  0.0433
  155SAPE  H15Y17335   3.267   2.748   8.543 -2.9003 -0.3363  2.5270
  155SAPE  C31617336   3.202   2.622   8.371  0.1930 -0.1209 -0.0159
  155SAPE  H16X17337   3.126   2.692   8.333 -0.2074 -0.2691  0.5089
  155SAPE  H16Y17338   3.159   2.520   8.369  0.2305 -0.1257 -2.5989
  155SAPE  C31717339   3.317   2.637   8.268  0.4592 -0.0257 -0.7664
  155SAPE  H17X17340   3.321   2.747   8.255 -0.4035  0.5955  3.4841
  155SAPE  H17Y17341   3.286   2.610   8.164 -0.3473 -2.5887  0.0835
  155SAPE  C31817342   3.453   2.582   8.303  0.5859 -0.7154  0.1699
  155SAPE  H18X17343   3.443   2.474   8.330 -0.6924 -0.0600  2.3832
  155SAPE  H18Y17344   3.496   2.648   8.381 -2.5238  0.5719  0.8652
  155SAPE  H18Z17345   3.521   2.605   8.218  1.2528  1.5249  1.2944
  156SAPE     N17346   0.479   0.408  10.792 -0.1418  0.2189 -1.2401
  156SAPE   HN117347   0.403   0.402  10.863  0.7405 -2.3777 -0.4409
  156SAPE   HN217348   0.498   0.314  10.752  0.7069 -0.2937  0.3449
  156SAPE   HN317349   0.571   0.429  10.835 -0.2111 -0.5302 -0.7151
  156SAPE   C1217350   0.431   0.481  10.675  0.7813 -0.0715  0.5383
  156SAPE  H12A17351   0.515   0.515  10.610  1.0954 -1.5635  0.1390
  156SAPE  H12B17352   0.369   0.565  10.711  0.6724 -0.0451  0.2935
  156SAPE   C1117353   0.345   0.394  10.589  0.1846  0.2158  0.2878
  156SAPE  H11A17354   0.333   0.450  10.493 -0.6476 -0.9714 -0.3092
  156SAPE  H11B17355   0.250   0.371  10.641  0.2185  0.0405  0.2708
  156SAPE     P17356   0.343   0.167  10.454  0.0974 -0.4608  0.0518
  156SAPE   O1317357   0.426   0.044  10.444  0.9293 -0.0706  0.0408
  156SAPE   O1417358   0.198   0.141  10.481  0.2216  0.1090  0.2189
  156SAPE   O1217359   0.402   0.266  10.565 -0.3439  0.2190  0.3888
  156SAPE   O1117360   0.360   0.244  10.317 -0.1509 -0.4190  0.2806
  156SAPE    C117361   0.492   0.299  10.285 -0.1809 -0.6356  0.0482
  156SAPE    HA17362   0.487   0.410  10.297 -1.0815 -0.8311  1.6355
  156SAPE    HB17363   0.574   0.253  10.345 -0.1735 -0.6196  0.0514
  156SAPE    C217364   0.532   0.283  10.146 -0.2653 -0.5420  0.5769
  156SAPE    HS17365   0.636   0.319  10.135 -0.0997 -1.5264 -1.1951
  156SAPE   O2117366   0.432   0.353  10.062  0.0156 -0.0741  0.4392
  156SAPE   C2117367   0.483   0.431   9.971  0.0956  0.2112 -0.4831
  156SAPE   O2217368   0.596   0.449   9.942 -0.1026  0.0512  0.1569
  156SAPE   C2217369   0.365   0.485   9.893  0.6544  0.5360  0.6009
  156SAPE   H2R17370   0.275   0.430   9.926  0.1898  0.6842 -0.3988
  156SAPE   H2S17371   0.360   0.595   9.908 -2.1594  0.4291  0.6805
  156SAPE    C317372   0.537   0.133  10.100  0.5011 -0.3591 -0.2488
  156SAPE    HX17373   0.437   0.087  10.119  0.0559 -0.5990 -2.9246
  156SAPE    HY17374   0.615   0.082  10.159  0.8995 -1.7509 -1.9429
  156SAPE   O3117375   0.566   0.123   9.954  0.2129 -0.0735  0.1344
  156SAPE   C3117376   0.695   0.129   9.922  0.5178 -0.7560  0.0675
  156SAPE   O3217377   0.791   0.129   9.991  0.5135  0.2114 -0.4335
  156SAPE   C3217378   0.687   0.142   9.776  0.3620 -0.0041  0.1206
  156SAPE   H2X17379   0.605   0.215   9.761 -0.8297 -1.3192  0.1335
  156SAPE   H2Y17380   0.655   0.049   9.723  1.5580  0.3354 -1.2413
  156SAPE   C2317381   0.391   0.448   9.734 -0.4132  0.1055 -0.4402
  156SAPE   H3R17382   0.298   0.428   9.676 -0.0870 -1.3620 -0.4835
  156SAPE   H3S17383   0.459   0.361   9.724 -0.8731 -0.1593 -1.4273
  156SAPE   C2417384   0.463   0.561   9.665 -0.4465 -0.3134 -0.3081
  156SAPE   H4R17385   0.544   0.590   9.735 -0.5545 -0.5554 -0.0830
  156SAPE   H4S17386   0.381   0.637   9.665 -0.8149 -0.7022 -0.9809
  156SAPE   C2517387   0.501   0.529   9.523 -0.0465 -0.3544 -0.3110
  156SAPE   H5R17388   0.603   0.486   9.523  0.5372  1.0153 -0.2875
  156SAPE   C2617389   0.427   0.550   9.410  0.0429  0.2034  0.1616
  156SAPE   H6R17390   0.479   0.542   9.313  1.2306  1.6107  0.6445
  156SAPE   C2717391   0.284   0.599   9.408  0.1924 -0.0318 -0.3251
  156SAPE   H7R17392   0.281   0.710   9.408 -0.7649 -0.0352  1.9280
  156SAPE   H7S17393   0.239   0.579   9.507  1.4677  1.4628  0.5810
  156SAPE   C2817394   0.202   0.554   9.297 -0.2936  0.8883  0.2542
  156SAPE   H8R17395   0.180   0.446   9.291  2.2268  0.4128 -1.4305
  156SAPE   C2917396   0.149   0.626   9.193  0.3214  0.1475  0.1963
  156SAPE   H9R17397   0.087   0.575   9.118 -0.2738  1.4193 -0.1940
  156SAPE  C21017398   0.161   0.770   9.172  0.4232 -0.7491  0.4394
  156SAPE  H10R17399   0.267   0.803   9.160  0.2607  0.9274  3.3089
  156SAPE  H10S17400   0.133   0.819   9.267 -0.0747  0.0115 -0.0951
  156SAPE  C21117401   0.075   0.840   9.072 -0.3727  0.0929 -0.3878
  156SAPE  H11R17402  -0.030   0.857   9.100 -0.4681 -2.8199  1.2966
  156SAPE  C21217403   0.105   0.881   8.945 -0.3916 -0.9221 -0.0473
  156SAPE  H12R17404   0.021   0.921   8.887 -1.7495 -1.5719  1.4240
  156SAPE  C21317405   0.235   0.849   8.876 -0.5023 -0.3555 -0.6074
  156SAPE  H13R17406   0.309   0.812   8.950 -0.1061  2.2421  0.3697
  156SAPE  H13S17407   0.285   0.936   8.829 -0.7816 -0.5023 -1.1823
  156SAPE  C21417408   0.227   0.738   8.783  0.1864 -1.0228 -0.3921
  156SAPE  H14R17409   0.172   0.652   8.824 -0.4462 -0.7201 -0.5966
  156SAPE  C21517410   0.243   0.735   8.651 -0.1093 -0.1415 -0.2700
  156SAPE  H15R17411   0.224   0.638   8.604  1.6813 -1.8611  2.3725
  156SAPE  C21617412   0.273   0.854   8.570 -0.2326 -0.4089 -0.0499
  156SAPE  H16R17413   0.373   0.838   8.525 -0.0722  1.0833 -0.2527
  156SAPE  H16S17414   0.275   0.951   8.624 -0.7829  0.8087 -2.1458
  156SAPE  C21717415   0.184   0.871   8.445 -0.7131 -0.8405 -0.0468
  156SAPE  H17R17416   0.211   0.962   8.388  1.7489 -0.1993  2.0606
  156SAPE  H17S17417   0.079   0.883   8.481 -0.3812 -0.5366  0.8248
  156SAPE  C21817418   0.192   0.754   8.339 -0.1212  0.1559  0.5620
  156SAPE  H18R17419   0.168   0.653   8.379 -1.1627  0.2825  0.2773
  156SAPE  H18S17420   0.289   0.764   8.286 -0.1439 -1.1895  0.2455
  156SAPE  C21917421   0.086   0.770   8.225  0.4358  0.3928  0.3068
  156SAPE  H19R17422   0.104   0.873   8.188 -0.1323  0.1784 -0.5771
  156SAPE  H19S17423  -0.016   0.785   8.266 -0.4487  1.6580 -2.2872
  156SAPE  C22017424   0.078   0.663   8.114 -0.2060 -0.4872 -0.3339
  156SAPE  H20R17425  -0.010   0.665   8.047 -0.6132 -0.6403  0.1900
  156SAPE  H20S17426   0.082   0.562   8.161  0.8899 -0.8025 -1.0887
  156SAPE  H20T17427   0.166   0.686   8.052 -0.5852 -0.1521 -0.7441
  156SAPE   C3317428   0.813   0.201   9.704  0.0065  0.6444  0.0506
  156SAPE   H3X17429   0.905   0.145   9.733 -1.0815 -1.1382  0.1637
  156SAPE   H3Y17430   0.826   0.310   9.723 -2.6512  1.2872 -1.5811
  156SAPE   C3417431   0.793   0.197   9.551 -0.4209 -0.8956  0.2675
  156SAPE   H4X17432   0.715   0.274   9.533 -0.7428 -0.3918  3.5781
  156SAPE   H4Y17433   0.771   0.096   9.510  1.1680 -0.1481 -2.5817
  156SAPE   C3517434   0.923   0.239   9.476 -0.6437 -0.5765 -0.3072
  156SAPE   H5X17435   1.003   0.166   9.502 -0.8488 -0.4631  0.6584
  156SAPE   H5Y17436   0.957   0.340   9.508 -1.2299 -0.4787  0.0232
  156SAPE   C3617437   0.904   0.223   9.323 -0.0781 -0.0540 -0.3386
  156SAPE   H6X17438   0.869   0.120   9.299  1.3929 -0.4190 -0.9176
  156SAPE   H6Y17439   1.005   0.227   9.279 -0.0418  1.2284 -0.1661
  156SAPE   C3717440   0.811   0.333   9.261 -0.5732 -0.4687  0.3472
  156SAPE   H7X17441   0.827   0.429   9.315  0.4993 -1.6417  2.1608
  156SAPE   H7Y17442   0.705   0.305   9.283 -0.5772 -0.4542  0.3474
  156SAPE   C3817443   0.826   0.353   9.107 -0.2035  0.7019  0.7466
  156SAPE   H8X17444   0.934   0.376   9.091 -0.3307 -0.5119 -2.2488
  156SAPE   H8Y17445   0.768   0.438   9.065  1.3206  1.1365 -0.5664
  156SAPE   C3917446   0.791   0.221   9.034 -0.4912 -0.3453 -0.0273
  156SAPE   H9X17447   0.685   0.193   9.052  0.2141 -2.6273  0.8329
  156SAPE   H9Y17448   0.853   0.145   9.087 -1.8719  0.0692  2.2283
  156SAPE  C31017449   0.805   0.224   8.883 -0.2858  1.2070  0.3805
  156SAPE  H10X17450   0.777   0.122   8.848  0.0292  1.4998 -0.7807
  156SAPE  H10Y17451   0.913   0.231   8.857 -0.4193  0.3832 -0.4197
  156SAPE  C31117452   0.723   0.331   8.824 -0.5622 -0.4189 -0.4548
  156SAPE  H11X17453   0.776   0.428   8.837 -0.6970 -0.0011 -2.7282
  156SAPE  H11Y17454   0.628   0.348   8.880  0.2295  2.0419  0.2302
  156SAPE  C31217455   0.688   0.324   8.677  0.5729  0.3611  0.0813
  156SAPE  H12X17456   0.624   0.412   8.654 -0.2969 -0.4522 -0.6897
  156SAPE  H12Y17457   0.624   0.233   8.674 -1.6678  1.8566  0.9493
  156SAPE  C31317458   0.797   0.324   8.572 -0.2200  0.9146 -0.1501
  156SAPE  H13X17459   0.870   0.246   8.602 -1.4669 -0.3560 -0.3545
  156SAPE  H13Y17460   0.850   0.420   8.557 -0.0996  1.0382  1.0260
  156SAPE  C31417461   0.740   0.288   8.435 -0.2157 -0.0665 -0.3454
  156SAPE  H14X17462   0.673   0.369   8.399 -0.7491  0.3703  1.5857
  156SAPE  H14Y17463   0.675   0.199   8.451  1.3178 -1.1010  0.2702
  156SAPE  C31517464   0.850   0.245   8.333  0.2031 -0.3114 -0.0661
  156SAPE  H15X17465   0.925   0.179   8.381  1.2173 -0.6038 -1.9936
  156SAPE  H15Y17466   0.906   0.335   8.299 -0.5834 -0.7501 -2.6659
  156SAPE  C31617467   0.798   0.169   8.212  0.8367 -0.1837 -0.0779
  156SAPE  H16X17468   0.742   0.228   8.136  0.3621  0.8994  1.1114
  156SAPE  H16Y17469   0.725   0.093   8.248  1.4281 -1.7348 -2.0465
  156SAPE  C31717470   0.919   0.096   8.144 -0.0514 -0.1559 -0.0264
  156SAPE  H17X17471   0.877   0.001   8.102 -4.2795  1.4759  0.2507
  156SAPE  H17Y17472   0.997   0.080   8.221 -0.1539 -2.7787 -0.3983
  156SAPE  C31817473   0.984   0.173   8.025 -0.3410 -0.4436  0.0376
  156SAPE  H18X17474   1.033   0.262   8.070 -1.0521  0.1343 -0.3318
  156SAPE  H18Y17475   0.905   0.192   7.949 -0.6054 -0.5890  0.2740
  156SAPE  H18Z17476   1.064   0.113   7.976 -1.4841  0.2613 -2.7674
  157SAPE     N17477   6.231   6.722  10.877 -0.7252 -0.0268  0.0417
  157SAPE   HN117478   6.154   6.657  10.852  0.0191 -1.2723  0.9289
  157SAPE   HN217479   6.302   6.666  10.929  1.8005  2.1829 -0.8973
  157SAPE   HN317480   6.190   6.790  10.944  2.7799 -0.8299  3.1359
  157SAPE   C1217481   6.292   6.781  10.746 -0.2741  0.1870 -0.0109
  157SAPE  H12A17482   6.350   6.705  10.689 -0.5319  0.8159 -1.1223
  157SAPE  H12B17483   6.358   6.863  10.780 -0.6162 -0.5428  2.5527
  157SAPE   C1117484   6.191   6.833  10.658  0.4586 -0.2533  0.4030
  157SAPE  H11A17485   6.234   6.868  10.562  0.5563  0.2366  0.6190
  157SAPE  H11B17486   6.150   6.927  10.703 -0.1423 -1.1372  1.7353
  157SAPE     P17487   5.939   6.781  10.616 -0.0577 -0.2508 -0.0165
  157SAPE   O1317488   5.862   6.658  10.594  0.5082  0.0220 -0.1823
  157SAPE   O1417489   5.897   6.876  10.723  0.0997 -0.1695  0.1163
  157SAPE   O1217490   6.089   6.740  10.631 -0.2062  0.3054  0.4757
  157SAPE   O1117491   5.936   6.859  10.477  0.2321  0.0913  0.6731
  157SAPE    C117492   6.008   6.815  10.362  0.0735  0.1206 -0.2194
  157SAPE    HA17493   6.083   6.890  10.328  1.4080  0.8848  4.1417
  157SAPE    HB17494   6.075   6.732  10.395  0.1733  1.0527  1.9672
  157SAPE    C217495   5.918   6.785  10.232  0.1862 -0.7605  0.3633
  157SAPE    HS17496   5.988   6.743  10.156 -1.5255 -0.2079 -1.5836
  157SAPE   O2117497   5.858   6.902  10.182 -0.4780 -0.8980 -0.1356
  157SAPE   C2117498   5.936   6.996  10.130 -0.3660  0.5554  0.5246
  157SAPE   O2217499   6.052   6.976  10.094  0.7921  0.3365 -0.2339
  157SAPE   C2217500   5.848   7.119  10.098  0.8239 -0.1680  0.3485
  157SAPE   H2R17501   5.747   7.080  10.075  0.5748 -1.1635  2.9086
  157SAPE   H2S17502   5.862   7.183  10.188 -3.1454 -0.0082  0.9738
  157SAPE    C317503   5.809   6.677  10.253  0.9004  0.7755 -0.1256
  157SAPE    HX17504   5.728   6.726  10.312  1.4774 -0.7541  2.0142
  157SAPE    HY17505   5.858   6.585  10.291  0.6310 -0.2854 -2.2959
  157SAPE   O3117506   5.750   6.637  10.127 -0.0164 -0.0336 -0.4022
  157SAPE   C3117507   5.668   6.527  10.143 -0.5469 -0.1670 -0.3743
  157SAPE   O3217508   5.640   6.486  10.252 -0.2783 -0.3324 -0.0867
  157SAPE   C3217509   5.637   6.469  10.006  0.1307  0.7424 -0.0635
  157SAPE   H2X17510   5.606   6.556   9.945  0.8437  1.1510  0.1525
  157SAPE   H2Y17511   5.553   6.397  10.017  1.3667 -0.6680  0.2994
  157SAPE   C2317512   5.915   7.185   9.972 -0.0631 -0.6866  0.0758
  157SAPE   H3R17513   5.889   7.116   9.889 -3.0230  0.5602 -0.1126
  157SAPE   H3S17514   6.025   7.187   9.986  0.0415 -1.3929 -0.6068
  157SAPE   C2417515   5.860   7.323   9.942 -0.8556  0.0354  1.0898
  157SAPE   H4R17516   5.903   7.365   9.849 -2.2731 -0.0126  0.3988
  157SAPE   H4S17517   5.888   7.386  10.029 -1.9661 -0.4201  1.7851
  157SAPE   C2517518   5.708   7.324   9.918 -0.5794  0.7606 -0.1832
  157SAPE   H5R17519   5.638   7.324  10.003 -0.4934  0.2668 -0.1122
  157SAPE   C2617520   5.640   7.318   9.792  0.3642  1.0203  0.5205
  157SAPE   H6R17521   5.532   7.334   9.792 -0.0928 -1.6351 -0.5713
  157SAPE   C2717522   5.709   7.304   9.662  0.0915 -0.5267  0.4347
  157SAPE   H7R17523   5.640   7.267   9.584  0.0969  0.3505  0.0072
  157SAPE   H7S17524   5.795   7.234   9.654 -1.2119 -1.9761 -1.2760
  157SAPE   C2817525   5.742   7.437   9.601 -0.3901 -0.0847 -0.6886
  157SAPE   H8R17526   5.820   7.479   9.666 -0.7344 -0.0483 -0.2962
  157SAPE   C2917527   5.706   7.487   9.488 -0.6714  0.2135 -0.0057
  157SAPE   H9R17528   5.746   7.587   9.464  2.5628 -1.5426 -2.2575
  157SAPE  C21017529   5.616   7.427   9.379 -0.0680 -0.4052  0.4024
  157SAPE  H10R17530   5.583   7.508   9.310  0.4494 -0.9066 -0.4391
  157SAPE  H10S17531   5.523   7.384   9.423  0.5759  1.8415  4.1637
  157SAPE  C21117532   5.696   7.321   9.294  0.2730  0.0782  0.0158
  157SAPE  H11R17533   5.767   7.383   9.237 -1.0059  1.7757  0.2153
  157SAPE  C21217534   5.659   7.191   9.266 -0.6449 -0.2670 -0.0639
  157SAPE  H12R17535   5.729   7.137   9.200  0.7873  1.0049  0.3910
  157SAPE  C21317536   5.542   7.116   9.328 -0.4247 -0.7961  0.4069
  157SAPE  H13R17537   5.538   7.145   9.435  1.5546  1.5668 -0.1014
  157SAPE  H13S17538   5.562   7.007   9.329  0.2032 -0.6733  1.4381
  157SAPE  C21417539   5.416   7.133   9.253 -0.4130  0.0479  0.0835
  157SAPE  H14R17540   5.428   7.192   9.161 -0.7061 -0.2702 -0.1620
  157SAPE  C21517541   5.294   7.080   9.294 -0.6558 -1.1416  0.7380
  157SAPE  H15R17542   5.203   7.113   9.241 -1.9440 -1.6008  2.6047
  157SAPE  C21617543   5.262   6.992   9.419 -0.3128 -0.3181  0.5980
  157SAPE  H16R17544   5.342   7.007   9.495 -0.6901  0.7086  0.8038
  157SAPE  H16S17545   5.255   6.884   9.391 -0.9327 -0.3797  0.9642
  157SAPE  C21717546   5.128   7.037   9.476 -0.4450 -0.1249  0.9229
  157SAPE  H17R17547   5.093   6.965   9.552 -0.2790 -1.4544 -0.2344
  157SAPE  H17S17548   5.054   7.028   9.394  1.1616  1.4968 -0.7594
  157SAPE  C21817549   5.124   7.182   9.542  0.3784 -0.2177 -0.0121
  157SAPE  H18R17550   5.034   7.187   9.608  1.0105 -1.1487  0.9388
  157SAPE  H18S17551   5.145   7.256   9.462 -1.4502  0.6011  0.2171
  157SAPE  C21917552   5.239   7.213   9.645 -0.0444  0.4816 -0.4668
  157SAPE  H19R17553   5.224   7.319   9.677  0.6951  0.3610  0.3067
  157SAPE  H19S17554   5.338   7.199   9.598  0.0576  2.9184 -1.0406
  157SAPE  C22017555   5.238   7.132   9.775 -0.1051 -0.0539 -0.2308
  157SAPE  H20R17556   5.160   7.176   9.840 -1.1173 -1.2909 -0.5991
  157SAPE  H20S17557   5.342   7.144   9.813  0.3013  0.0545 -1.3365
  157SAPE  H20T17558   5.214   7.025   9.757  0.8243  0.0030 -1.9791
  157SAPE   C3317559   5.768   6.388   9.958 -0.4298  0.7840  0.9389
  157SAPE   H3X17560   5.732   6.335   9.867  1.7711  1.9989 -0.6983
  157SAPE   H3Y17561   5.779   6.302  10.026 -2.4460  0.2356  0.6185
  157SAPE   C3417562   5.901   6.463   9.927 -0.4625 -0.0063 -0.4484
  157SAPE   H4X17563   5.927   6.512  10.023 -1.3531  0.8104 -0.6171
  157SAPE   H4Y17564   5.885   6.541   9.850  2.2513  1.5403  0.5006
  157SAPE   C3517565   6.021   6.384   9.869 -0.0266 -0.6903  0.2600
  157SAPE   H5X17566   6.051   6.301   9.936  2.0325 -0.4122 -0.2812
  157SAPE   H5Y17567   6.104   6.458   9.862 -0.5246 -0.2285 -0.9194
  157SAPE   C3617568   5.982   6.308   9.742 -0.4121  0.4366 -0.4836
  157SAPE   H6X17569   5.904   6.232   9.765  0.7419 -0.3327  0.9334
  157SAPE   H6Y17570   6.058   6.235   9.707 -1.7557 -0.8936 -0.7336
  157SAPE   C3717571   5.930   6.387   9.618  0.1546 -0.3135 -0.3365
  157SAPE   H7X17572   5.998   6.473   9.599 -0.5591  0.3586  0.1314
  157SAPE   H7Y17573   5.829   6.427   9.643  0.3975 -0.2399  0.5513
  157SAPE   C3817574   5.931   6.312   9.480  0.3241  0.0443 -0.1145
  157SAPE   H8X17575   5.844   6.242   9.478 -0.5012  1.0831 -2.5225
  157SAPE   H8Y17576   6.022   6.250   9.472 -0.3358 -1.0537  0.7237
  157SAPE   C3917577   5.917   6.411   9.366 -0.1066  0.1353  0.9247
  157SAPE   H9X17578   6.011   6.468   9.350  0.9556 -1.2637  2.1149
  157SAPE   H9Y17579   5.838   6.486   9.386 -0.7826 -0.1224 -0.6721
  157SAPE  C31017580   5.901   6.347   9.224 -0.2996  0.4708 -0.4171
  157SAPE  H10X17581   5.797   6.308   9.224 -0.2881  0.4243 -1.5422
  157SAPE  H10Y17582   5.969   6.266   9.192 -0.0111 -0.2509  1.9426
  157SAPE  C31117583   5.909   6.452   9.109 -0.1196 -0.5534  0.0175
  157SAPE  H11X17584   6.014   6.482   9.090 -0.8486  1.2798 -1.3518
  157SAPE  H11Y17585   5.845   6.541   9.130 -0.2559 -0.7546  0.4518
  157SAPE  C31217586   5.855   6.391   8.976  0.1312 -0.4102  0.4626
  157SAPE  H12X17587   5.753   6.360   9.006  1.0143 -4.1523 -0.2162
  157SAPE  H12Y17588   5.905   6.296   8.950  0.3698 -0.4794  1.1644
  157SAPE  C31317589   5.850   6.501   8.865 -0.6139  0.7365  0.0885
  157SAPE  H13X17590   5.773   6.577   8.891 -0.3796  0.9073  0.2869
  157SAPE  H13Y17591   5.819   6.462   8.766  2.5084  1.1466 -1.1192
  157SAPE  C31417592   5.980   6.574   8.832  0.9479  0.2802 -0.2488
  157SAPE  H14X17593   6.060   6.503   8.801  0.0970 -1.4561  1.3824
  157SAPE  H14Y17594   6.014   6.624   8.925 -0.4334  1.7828 -0.5210
  157SAPE  C31517595   5.958   6.668   8.717  0.0747 -0.9600  0.5675
  157SAPE  H15X17596   5.900   6.751   8.763 -0.4844  0.0045 -1.8367
  157SAPE  H15Y17597   5.902   6.617   8.637 -1.5966 -2.6800  2.7786
  157SAPE  C31617598   6.095   6.723   8.655 -0.5102  0.1710 -0.3536
  157SAPE  H16X17599   6.160   6.644   8.613 -0.1629 -0.0190  0.5302
  157SAPE  H16Y17600   6.160   6.782   8.724 -1.5858  1.2937 -0.2799
  157SAPE  C31717601   6.063   6.827   8.537 -0.2583 -0.1377  0.8468
  157SAPE  H17X17602   6.011   6.908   8.592  0.8316  0.5813  0.8092
  157SAPE  H17Y17603   5.996   6.784   8.459 -0.2371  2.2914 -0.5646
  157SAPE  C31817604   6.186   6.879   8.468 -0.0262 -0.3047 -0.3010
  157SAPE  H18X17605   6.271   6.883   8.539  0.7934 -2.2939 -1.1408
  157SAPE  H18Y17606   6.167   6.986   8.444  2.0247  0.3547  0.8854
  157SAPE  H18Z17607   6.219   6.823   8.378 -1.7069  0.6277 -1.5329
  158SAPE     N17608   1.153   0.186  10.891  0.5325 -0.2705 -0.2020
  158SAPE   HN117609   1.092   0.113  10.847 -1.8429 -0.3217  2.9567
  158SAPE   HN217610   1.246   0.187  10.844  1.7594 -3.7628  1.9882
  158SAPE   HN317611   1.168   0.143  10.984 -1.6660 -1.8123 -0.4895
  158SAPE   C1217612   1.071   0.317  10.884  0.9736 -0.6840  0.0926
  158SAPE  H12A17613   1.126   0.401  10.931 -2.6229  1.9895 -0.2082
  158SAPE  H12B17614   0.973   0.300  10.932  0.4931 -1.8679 -1.2514
  158SAPE   C1117615   1.037   0.351  10.736  0.2577 -0.2194  0.1802
  158SAPE  H11A17616   0.971   0.276  10.687  0.5049  2.0749 -3.9814
  158SAPE  H11B17617   1.124   0.351  10.666 -2.1004 -0.6728 -2.8906
  158SAPE     P17618   1.038   0.615  10.740  0.1364 -0.4582  0.2075
  158SAPE   O1317619   0.944   0.708  10.678 -0.1342  0.4792 -0.2235
  158SAPE   O1417620   1.067   0.646  10.885  0.4652  0.3459 -0.4329
  158SAPE   O1217621   0.973   0.476  10.734 -0.0765  0.4141  0.5545
  158SAPE   O1117622   1.178   0.605  10.658  0.3689  0.2426  0.2820
  158SAPE    C117623   1.237   0.698  10.567 -0.6296 -0.3586  0.3606
  158SAPE    HA17624   1.209   0.802  10.596 -0.2228 -0.0393 -0.3896
  158SAPE    HB17625   1.346   0.687  10.585 -0.3417  2.6156  0.6486
  158SAPE    C217626   1.210   0.670  10.416 -0.4324 -0.0925  0.3246
  158SAPE    HS17627   1.271   0.747  10.363 -2.2136  1.5358  0.5964
  158SAPE   O2117628   1.077   0.682  10.388 -0.2085  0.1441  0.1218
  158SAPE   C2117629   1.046   0.807  10.336 -0.5241  0.5540 -0.1299
  158SAPE   O2217630   1.122   0.904  10.344  0.0303 -0.2732 -0.1616
  158SAPE   C2217631   0.901   0.811  10.273 -0.3318 -0.4042 -0.1905
  158SAPE   H2R17632   0.856   0.710  10.264  1.5086 -1.2424 -0.2944
  158SAPE   H2S17633   0.841   0.865  10.349 -0.6461 -0.1013 -0.6534
  158SAPE    C317634   1.263   0.540  10.368  0.1122 -0.0545  0.9610
  158SAPE    HX17635   1.201   0.456  10.406  1.6468 -1.3731  0.6368
  158SAPE    HY17636   1.366   0.530  10.409  0.6117  1.9797  0.2832
  158SAPE   O3117637   1.261   0.547  10.224  0.1327  0.7213  0.3825
  158SAPE   C3117638   1.174   0.460  10.153  0.2855 -0.3482 -0.4740
  158SAPE   O3217639   1.088   0.395  10.205 -0.5808  0.3648  0.2503
  158SAPE   C3217640   1.212   0.461  10.002  0.4508 -0.3109 -0.2203
  158SAPE   H2X17641   1.314   0.500   9.984  0.2079  0.8332  0.8556
  158SAPE   H2Y17642   1.147   0.539   9.955 -0.4724 -0.3061  1.0353
  158SAPE   C2317643   0.901   0.887  10.140 -0.0649  0.7203  0.7299
  158SAPE   H3R17644   0.957   0.982  10.147  1.3235  0.0292 -0.5592
  158SAPE   H3S17645   0.806   0.928  10.099  0.8591  2.8956  0.6895
  158SAPE   C2417646   0.972   0.822  10.032 -0.7847 -0.3348  0.2693
  158SAPE   H4R17647   1.073   0.781  10.054 -0.7045  0.9651  2.4182
  158SAPE   H4S17648   0.973   0.898   9.952  0.2440 -0.1260  0.4667
  158SAPE   C2517649   0.901   0.698   9.981  0.1532 -0.6975 -0.2671
  158SAPE   H5R17650   0.879   0.625  10.060 -0.3991  0.5148  0.7238
  158SAPE   C2617651   0.855   0.674   9.855  0.3535 -0.1587 -0.2844
  158SAPE   H6R17652   0.822   0.570   9.838 -0.5766  0.2480 -1.0154
  158SAPE   C2717653   0.873   0.754   9.733  0.4206 -0.7953  0.3052
  158SAPE   H7R17654   0.907   0.858   9.749  0.0729 -0.8160  1.1799
  158SAPE   H7S17655   0.770   0.772   9.694 -0.1494 -0.8044  1.7778
  158SAPE   C2817656   0.960   0.685   9.633 -0.7784  0.0072  0.3882
  158SAPE   H8R17657   0.994   0.588   9.671 -0.2305  1.1999  3.0889
  158SAPE   C2917658   0.998   0.723   9.508  0.3253  0.6730 -0.3275
  158SAPE   H9R17659   1.086   0.673   9.465  0.3956 -0.0240  0.6065
  158SAPE  C21017660   0.952   0.846   9.435 -0.9175  0.0531  0.5404
  158SAPE  H10R17661   1.046   0.888   9.395 -1.8278  3.1500  1.5262
  158SAPE  H10S17662   0.921   0.925   9.506  0.4319  0.2959  0.8679
  158SAPE  C21117663   0.843   0.833   9.329 -0.0115  0.1099 -1.3382
  158SAPE  H11R17664   0.745   0.827   9.378 -0.7376 -0.3321 -2.8233
  158SAPE  C21217665   0.845   0.835   9.198  0.0412  0.8287  1.0344
  158SAPE  H12R17666   0.754   0.829   9.137 -0.3822  2.5764  1.4465
  158SAPE  C21317667   0.984   0.838   9.124 -0.2060 -0.3554 -0.1892
  158SAPE  H13R17668   1.032   0.738   9.135  2.3004  0.4672 -2.9344
  158SAPE  H13S17669   1.048   0.918   9.168  0.9008 -2.1080  1.4667
  158SAPE  C21417670   0.973   0.873   8.979  0.3184 -0.1712 -0.2562
  158SAPE  H14R17671   0.869   0.882   8.944 -0.3522 -0.1330  1.6354
  158SAPE  C21517672   1.065   0.876   8.888  0.8954  0.0264 -0.3854
  158SAPE  H15R17673   1.029   0.891   8.785 -2.2709  0.2281  0.6898
  158SAPE  C21617674   1.210   0.856   8.910  0.0814 -0.7057  0.7186
  158SAPE  H16R17675   1.227   0.751   8.942 -1.6938 -2.2584 -3.0972
  158SAPE  H16S17676   1.255   0.929   8.981  1.3869  0.9073 -1.7020
  158SAPE  C21717677   1.292   0.877   8.779  0.0941  0.2694 -1.0083
  158SAPE  H17R17678   1.280   0.974   8.725  1.0772  0.1235 -1.5060
  158SAPE  H17S17679   1.266   0.792   8.714  0.6183 -0.4740 -0.2531
  158SAPE  C21817680   1.441   0.853   8.803 -0.3872  0.3185 -0.3652
  158SAPE  H18R17681   1.453   0.758   8.859 -0.1808  1.4207  1.4983
  158SAPE  H18S17682   1.481   0.937   8.863 -0.4493  1.2166 -1.5713
  158SAPE  C21917683   1.519   0.859   8.676 -0.5819  0.1229  0.4357
  158SAPE  H19R17684   1.499   0.954   8.622  0.8076  0.3215  0.2550
  158SAPE  H19S17685   1.488   0.775   8.610  0.6903  0.6893 -0.9048
  158SAPE  C22017686   1.668   0.846   8.706 -0.5106 -0.0421 -0.2799
  158SAPE  H20R17687   1.688   0.759   8.772  0.0702  0.1697 -0.1740
  158SAPE  H20S17688   1.688   0.947   8.748 -0.9348  0.4679 -1.3117
  158SAPE  H20T17689   1.739   0.832   8.622 -1.2098  0.4551 -0.9553
  158SAPE   C3317690   1.195   0.322   9.931 -0.8114  0.8536 -0.0299
  158SAPE   H3X17691   1.104   0.272   9.970 -1.2055  2.2544  0.8818
  158SAPE   H3Y17692   1.276   0.253   9.962 -0.5202  0.8152 -0.8666
  158SAPE   C3417693   1.179   0.333   9.783 -0.4525  0.2613  0.5144
  158SAPE   H4X17694   1.097   0.403   9.761 -1.3495 -0.5916  1.1173
  158SAPE   H4Y17695   1.164   0.229   9.745 -1.4873  0.7445 -0.4161
  158SAPE   C3517696   1.291   0.397   9.695 -0.4728  0.7110  0.4589
  158SAPE   H5X17697   1.391   0.353   9.716 -0.7349 -0.5343 -0.8004
  158SAPE   H5Y17698   1.282   0.507   9.704  0.0442  0.7542  0.5143
  158SAPE   C3617699   1.256   0.370   9.550 -0.5764 -0.0890 -0.0708
  158SAPE   H6X17700   1.168   0.433   9.524 -1.7674 -1.3123  0.9303
  158SAPE   H6Y17701   1.219   0.268   9.529 -2.7027  0.8309 -0.8365
  158SAPE   C3717702   1.375   0.395   9.462 -0.3651  0.2703 -0.5573
  158SAPE   H7X17703   1.458   0.321   9.467 -0.8067 -0.2318 -0.6011
  158SAPE   H7Y17704   1.430   0.489   9.485  1.7453 -1.1005  0.1795
  158SAPE   C3817705   1.333   0.401   9.310 -0.4571 -0.0734 -0.0259
  158SAPE   H8X17706   1.246   0.469   9.300  0.1158  0.6046 -0.3889
  158SAPE   H8Y17707   1.284   0.303   9.287 -1.3636  0.0861  1.1330
  158SAPE   C3917708   1.430   0.446   9.205 -0.2465  0.8305  0.1550
  158SAPE   H9X17709   1.506   0.365   9.200 -2.7565 -1.6578  1.0683
  158SAPE   H9Y17710   1.476   0.543   9.233  0.8049  0.5198 -0.4487
  158SAPE  C31017711   1.371   0.466   9.058 -0.6310 -0.8916 -0.4763
  158SAPE  H10X17712   1.452   0.507   8.994 -0.7206 -1.0567 -0.6933
  158SAPE  H10Y17713   1.295   0.545   9.075 -0.7358 -0.9970 -0.4503
  158SAPE  C31117714   1.312   0.331   9.005  0.5569  0.6230  0.4756
  158SAPE  H11X17715   1.267   0.278   9.091  0.2055  1.8437  1.0621
  158SAPE  H11Y17716   1.390   0.269   8.956 -0.9032  0.5406 -1.8518
  158SAPE  C31217717   1.201   0.354   8.906  0.0804 -0.2631  0.4121
  158SAPE  H12X17718   1.126   0.414   8.962 -1.1846 -1.6998  0.2960
  158SAPE  H12Y17719   1.159   0.253   8.887  2.6367 -0.6385 -4.0488
  158SAPE  C31317720   1.243   0.421   8.773 -0.5588 -0.3281  0.2942
  158SAPE  H13X17721   1.332   0.376   8.725 -0.1098  0.9975 -0.1413
  158SAPE  H13Y17722   1.264   0.529   8.784  0.6991 -0.3257 -1.7787
  158SAPE  C31417723   1.120   0.412   8.680 -0.3575  0.0796 -0.0786
  158SAPE  H14X17724   1.042   0.477   8.726 -0.9233 -2.3426  2.5549
  158SAPE  H14Y17725   1.091   0.305   8.683 -1.2247  0.3341  1.0975
  158SAPE  C31517726   1.142   0.453   8.532 -0.2362  0.5870  0.1153
  158SAPE  H15X17727   1.053   0.464   8.467  1.2142 -2.5777 -2.5701
  158SAPE  H15Y17728   1.207   0.374   8.487 -1.1181 -0.9489  1.4751
  158SAPE  C31617729   1.216   0.590   8.529  0.0694  0.6463  0.7939
  158SAPE  H16X17730   1.312   0.572   8.582  1.6129 -0.5147 -2.2510
  158SAPE  H16Y17731   1.151   0.656   8.590 -1.0118 -0.3435  0.7187
  158SAPE  C31717732   1.241   0.641   8.386 -0.2105  0.3511  0.5005
  158SAPE  H17X17733   1.140   0.652   8.340  0.6247  1.1643 -1.1662
  158SAPE  H17Y17734   1.288   0.552   8.341 -0.3585 -0.6719  2.3414
  158SAPE  C31817735   1.315   0.770   8.371 -0.0337  0.2360  0.3954
  158SAPE  H18X17736   1.275   0.849   8.438 -0.9914 -0.0236  0.1320
  158SAPE  H18Y17737   1.313   0.814   8.269 -1.3442  0.7532  0.6376
  158SAPE  H18Z17738   1.419   0.762   8.410 -0.5665 -0.3911  1.7629
  159SAPE     N17739   6.394   5.119   6.397  0.0837 -0.2573 -0.1082
  159SAPE   HN117740   6.391   5.042   6.327  3.2630  0.2321 -0.8873
  159SAPE   HN217741   6.486   5.112   6.447 -0.1122 -1.6949  0.0768
  159SAPE   HN317742   6.322   5.113   6.472 -1.3526  4.6238 -0.9036
  159SAPE   C1217743   6.370   5.249   6.324  0.0562  0.5124 -0.1272
  159SAPE  H12A17744   6.264   5.263   6.297  0.1629 -0.4851 -1.1263
  159SAPE  H12B17745   6.432   5.248   6.232  2.6340  0.4062  1.5273
  159SAPE   C1117746   6.422   5.374   6.399 -0.1291  0.1123  0.1521
  159SAPE  H11A17747   6.364   5.378   6.494 -1.8459  3.3325 -0.9609
  159SAPE  H11B17748   6.399   5.461   6.334 -1.7444 -0.0622  0.4553
  159SAPE     P17749   6.616   5.477   6.532 -0.3081 -0.2043  0.2975
  159SAPE   O1317750   6.743   5.427   6.580  0.3675 -0.1145  0.2553
  159SAPE   O1417751   6.610   5.609   6.477  0.0256  0.0985 -0.1236
  159SAPE   O1217752   6.565   5.371   6.426  1.0236  0.8269 -0.6590
  159SAPE   O1117753   6.518   5.463   6.650 -0.0972 -0.2922 -0.0784
  159SAPE    C117754   6.488   5.335   6.708  0.3871 -0.4297  0.5073
  159SAPE    HA17755   6.383   5.331   6.745  0.6389  0.7305  1.3545
  159SAPE    HB17756   6.487   5.244   6.644  0.4016 -1.0522  1.3718
  159SAPE    C217757   6.581   5.289   6.823 -0.0798  0.0296  0.3673
  159SAPE    HS17758   6.659   5.215   6.792  0.3307  0.6107  0.0195
  159SAPE   O2117759   6.511   5.231   6.930 -0.1143  0.0731  0.1434
  159SAPE   C2117760   6.456   5.114   6.901 -0.2876 -0.3390  0.2904
  159SAPE   O2217761   6.437   5.064   6.794 -0.9264  0.2175  0.0088
  159SAPE   C2217762   6.425   5.046   7.035  0.0228 -0.4449 -0.5836
  159SAPE   H2R17763   6.387   4.943   7.022  0.2146 -0.7582  1.1378
  159SAPE   H2S17764   6.523   5.044   7.089  0.1648 -0.9805 -0.8626
  159SAPE    C317765   6.651   5.404   6.895 -0.5134  0.1939  0.7929
  159SAPE    HX17766   6.565   5.468   6.922 -0.2434  0.0827  1.9693
  159SAPE    HY17767   6.709   5.473   6.831 -0.3435 -1.7171 -1.1930
  159SAPE   O3117768   6.728   5.363   7.010  0.3336  0.1208  0.4661
  159SAPE   C3117769   6.716   5.433   7.120  0.4065 -0.9711 -0.5364
  159SAPE   O3217770   6.645   5.532   7.124  0.0649 -0.7483  0.1040
  159SAPE   C3217771   6.809   5.378   7.234  0.5044 -0.4619 -0.0075
  159SAPE   H2X17772   6.891   5.452   7.251  1.5867 -1.7708  0.5715
  159SAPE   H2Y17773   6.847   5.284   7.190  0.6583 -0.3052 -0.2117
  159SAPE   C2317774   6.311   5.116   7.125  0.4301 -1.0662  0.3743
  159SAPE   H3R17775   6.286   5.038   7.200  2.0155 -2.7790 -0.8496
  159SAPE   H3S17776   6.216   5.148   7.076  0.1935  0.5241  1.8044
  159SAPE   C2417777   6.375   5.224   7.205  0.2729 -0.2287  0.3885
  159SAPE   H4R17778   6.425   5.296   7.137 -0.2863  1.5401  1.8069
  159SAPE   H4S17779   6.454   5.186   7.273 -0.0801 -0.7031  0.5402
  159SAPE   C2517780   6.272   5.294   7.290  0.0844 -0.0161 -0.2236
  159SAPE   H5R17781   6.179   5.309   7.233 -1.6236 -1.5181  2.0737
  159SAPE   C2617782   6.274   5.307   7.428  0.5447 -0.2639 -1.0941
  159SAPE   H6R17783   6.189   5.357   7.476  1.6791  1.8645 -1.2848
  159SAPE   C2717784   6.380   5.267   7.526  0.0420 -0.5210  0.6386
  159SAPE   H7R17785   6.479   5.242   7.482 -0.1425  1.9020 -1.2425
  159SAPE   H7S17786   6.346   5.174   7.577  0.3427 -0.2626  1.3150
  159SAPE   C2817787   6.395   5.370   7.633 -0.1300 -0.7888 -0.0321
  159SAPE   H8R17788   6.459   5.454   7.604  2.3534 -2.8637 -0.7641
  159SAPE   C2917789   6.348   5.380   7.759  0.4411 -0.4084  0.3389
  159SAPE   H9R17790   6.391   5.449   7.833  2.4714 -1.4241  0.1604
  159SAPE  C21017791   6.260   5.274   7.825  0.2228  0.5620 -0.3466
  159SAPE  H10R17792   6.248   5.185   7.760  0.9303  0.4971 -0.3916
  159SAPE  H10S17793   6.163   5.329   7.836  0.9710  1.7637  0.4379
  159SAPE  C21117794   6.286   5.222   7.962 -0.3623 -0.7304 -0.3613
  159SAPE  H11R17795   6.348   5.131   7.965  0.9774  0.2311  2.9398
  159SAPE  C21217796   6.254   5.283   8.083 -0.5110  0.6442  0.2526
  159SAPE  H12R17797   6.274   5.221   8.172 -1.5578  0.8694  0.6547
  159SAPE  C21317798   6.183   5.411   8.095 -0.2393 -0.4716 -0.1684
  159SAPE  H13R17799   6.184   5.470   8.001 -2.0815  0.0106  0.0996
  159SAPE  H13S17800   6.255   5.472   8.153  0.9336 -0.2633 -1.7954
  159SAPE  C21417801   6.055   5.395   8.149  0.2179 -0.1432  0.1989
  159SAPE  H14R17802   5.975   5.381   8.076  0.2943  0.1067  0.0642
  159SAPE  C21517803   6.025   5.406   8.281  0.1038  0.3795  0.5980
  159SAPE  H15R17804   5.917   5.407   8.299  0.2223  2.2167  1.2971
  159SAPE  C21617805   6.111   5.430   8.401 -0.5635 -0.1965 -0.5070
  159SAPE  H16R17806   6.039   5.448   8.484 -2.7856 -0.1993 -2.3777
  159SAPE  H16S17807   6.158   5.529   8.385 -1.0810  0.0230 -0.7130
  159SAPE  C21717808   6.220   5.324   8.430 -0.5449  0.7893  0.5445
  159SAPE  H17R17809   6.291   5.312   8.346 -1.4166  0.3872 -0.1465
  159SAPE  H17S17810   6.170   5.225   8.437  1.2438 -0.1662 -0.0591
  159SAPE  C21817811   6.293   5.346   8.560  0.0266 -0.1390 -1.0717
  159SAPE  H18R17812   6.322   5.453   8.552 -1.8621  0.4210 -0.5074
  159SAPE  H18S17813   6.387   5.289   8.575 -0.7701 -0.8091  1.5319
  159SAPE  C21917814   6.221   5.313   8.697 -0.1102 -0.6490 -0.3811
  159SAPE  H19R17815   6.119   5.356   8.689  0.3636  0.7882  1.0147
  159SAPE  H19S17816   6.284   5.363   8.774 -2.1608  0.2418  0.7633
  159SAPE  C22017817   6.191   5.158   8.711 -0.4630 -0.5370  0.0537
  159SAPE  H20R17818   6.122   5.141   8.797 -1.1241  1.4643 -0.0470
  159SAPE  H20S17819   6.285   5.102   8.729 -0.3240  0.0968  1.3280
  159SAPE  H20T17820   6.135   5.127   8.620 -3.1063 -2.3144  2.1913
  159SAPE   C3317821   6.723   5.337   7.355  0.1979 -0.1552  0.1652
  159SAPE   H3X17822   6.622   5.299   7.330  0.9505 -1.6389 -0.6632
  159SAPE   H3Y17823   6.704   5.440   7.394 -1.0110 -0.4014  0.2636
  159SAPE   C3417824   6.793   5.243   7.458 -0.0666 -0.1046 -0.2632
  159SAPE   H4X17825   6.851   5.164   7.406  2.3903  2.5201 -1.6010
  159SAPE   H4Y17826   6.713   5.186   7.510  0.7607  0.3818  1.5688
  159SAPE   C3517827   6.877   5.312   7.559  0.3306 -1.0045 -0.0454
  159SAPE   H5X17828   6.959   5.372   7.513 -0.8361  1.2153  0.6877
  159SAPE   H5Y17829   6.922   5.240   7.631 -1.0721 -0.8465  1.0270
  159SAPE   C3617830   6.791   5.416   7.636  0.4142 -0.2050  0.0905
  159SAPE   H6X17831   6.688   5.423   7.597  0.9353  1.9607 -0.9976
  159SAPE   H6Y17832   6.828   5.516   7.604 -0.9004 -0.1809 -1.3751
  159SAPE   C3717833   6.800   5.399   7.782 -0.4408  0.2055  0.1690
  159SAPE   H7X17834   6.907   5.406   7.811  0.6082 -0.2563 -3.4639
  159SAPE   H7Y17835   6.753   5.303   7.812 -0.3511 -0.1638 -0.8835
  159SAPE   C3817836   6.735   5.517   7.861  0.2860 -0.3238 -0.1573
  159SAPE   H8X17837   6.628   5.514   7.832  0.3660  1.8768 -0.7475
  159SAPE   H8Y17838   6.762   5.620   7.831 -2.4215  0.1669 -0.9890
  159SAPE   C3917839   6.732   5.510   8.011  0.3697  1.4101  0.7282
  159SAPE   H9X17840   6.703   5.608   8.052  1.6741  1.3563  1.8070
  159SAPE   H9Y17841   6.839   5.493   8.036  0.6339 -0.5723 -1.4999
  159SAPE  C31017842   6.655   5.394   8.070 -0.1254 -0.3675 -0.0269
  159SAPE  H10X17843   6.706   5.302   8.034 -0.7787 -0.1739 -1.4708
  159SAPE  H10Y17844   6.550   5.380   8.037  0.4642 -1.9893 -1.3126
  159SAPE  C31117845   6.658   5.404   8.219 -0.1075  0.1288 -0.0221
  159SAPE  H11X17846   6.581   5.481   8.242  0.9943  0.9416  1.0671
  159SAPE  H11Y17847   6.754   5.453   8.246 -0.0814  0.2081 -0.2586
  159SAPE  C31217848   6.628   5.276   8.299 -0.1820 -0.4426 -0.0819
  159SAPE  H12X17849   6.704   5.206   8.259 -0.1389  1.4263 -3.3792
  159SAPE  H12Y17850   6.528   5.234   8.275 -0.0264 -1.1205  0.4366
  159SAPE  C31317851   6.653   5.292   8.449  0.9730  0.8448  0.0554
  159SAPE  H13X17852   6.563   5.341   8.491  1.1717  0.4154  0.9899
  159SAPE  H13Y17853   6.726   5.369   8.482 -0.1220  0.9109  2.4822
  159SAPE  C31417854   6.659   5.159   8.525  0.3380 -0.1084 -0.6036
  159SAPE  H14X17855   6.751   5.104   8.496  0.0437 -0.1818 -1.3930
  159SAPE  H14Y17856   6.570   5.099   8.497 -1.3752  1.6052  1.0259
  159SAPE  C31517857   6.653   5.181   8.684  0.5830  0.0259  0.2935
  159SAPE  H15X17858   6.548   5.216   8.698  0.7107  1.2459 -1.5312
  159SAPE  H15Y17859   6.721   5.264   8.713  0.1281 -0.2651  2.2533
  159SAPE  C31617860   6.668   5.052   8.766 -0.0894  0.3920 -0.4062
  159SAPE  H16X17861   6.712   5.079   8.864 -1.8336  2.4413 -0.1526
  159SAPE  H16Y17862   6.741   4.989   8.711 -0.5630 -0.6398  0.1164
  159SAPE  C31717863   6.535   4.983   8.792  0.0826 -0.2672 -0.1408
  159SAPE  H17X17864   6.476   4.971   8.698  0.4146  1.3524 -0.5724
  159SAPE  H17Y17865   6.470   5.031   8.868  0.2985  2.5089 -1.6386
  159SAPE  C31817866   6.571   4.838   8.829 -0.2781  0.0302  0.3218
  159SAPE  H18X17867   6.616   4.786   8.742  2.2006  0.1312  1.4996
  159SAPE  H18Y17868   6.481   4.790   8.874  0.2658 -1.4251 -0.1319
  159SAPE  H18Z17869   6.645   4.841   8.912 -1.1619  0.2390  1.1289
  160SAPE     N17870   4.674   6.094   6.418  0.2558  0.4443  0.2205
  160SAPE   HN117871   4.587   6.144   6.390 -1.1360 -2.2923 -0.5968
  160SAPE   HN217872   4.680   5.995   6.385  0.3201  0.8654 -1.0572
  160SAPE   HN317873   4.670   6.087   6.521  0.3482  1.4198  0.2897
  160SAPE   C1217874   4.804   6.164   6.393 -0.7138 -0.5748  0.2613
  160SAPE  H12A17875   4.802   6.269   6.428  1.2058 -0.3523 -0.2644
  160SAPE  H12B17876   4.826   6.174   6.284 -0.9943 -0.6805  0.1937
  160SAPE   C1117877   4.919   6.083   6.465 -0.3206  0.2408 -0.4188
  160SAPE  H11A17878   4.908   5.973   6.459  2.0825 -0.1500  1.2832
  160SAPE  H11B17879   4.894   6.124   6.565 -1.2900  0.0620 -0.5856
  160SAPE     P17880   5.174   6.058   6.482 -0.1798 -0.2657 -0.3107
  160SAPE   O1317881   5.161   5.910   6.478  0.1438  0.2535  0.5003
  160SAPE   O1417882   5.297   6.116   6.424  0.2281  0.0591  0.6699
  160SAPE   O1217883   5.042   6.130   6.418  0.1138 -0.0228  0.5008
  160SAPE   O1117884   5.153   6.109   6.631 -0.7773 -0.0383  0.2278
  160SAPE    C117885   5.194   6.027   6.744  0.0665  0.7690 -0.1530
  160SAPE    HA17886   5.106   5.987   6.798 -0.4210 -0.1152 -1.5807
  160SAPE    HB17887   5.250   5.939   6.707  0.4988  0.5089  1.0952
  160SAPE    C217888   5.301   6.107   6.822  0.5965 -0.4273  0.0071
  160SAPE    HS17889   5.351   6.023   6.875  2.6582  1.1738  0.6650
  160SAPE   O2117890   5.237   6.204   6.905 -0.0180 -0.2824  0.3303
  160SAPE   C2117891   5.190   6.153   7.017  0.1319  0.3933 -0.3410
  160SAPE   O2217892   5.206   6.036   7.061  0.1789  0.2543 -0.0899
  160SAPE   C2217893   5.102   6.253   7.090  0.2044  0.4696 -0.7398
  160SAPE   H2R17894   5.104   6.351   7.038  3.2018  1.2797  0.7998
  160SAPE   H2S17895   5.001   6.206   7.083 -0.3756  1.7050 -0.7531
  160SAPE    C317896   5.411   6.175   6.745  0.1702  0.0208 -0.1612
  160SAPE    HX17897   5.371   6.274   6.715 -1.4047  0.3818  2.9838
  160SAPE    HY17898   5.444   6.114   6.658  2.6127  1.3643 -0.2444
  160SAPE   O3117899   5.526   6.189   6.832  0.9923  0.0571  0.4532
  160SAPE   C3117900   5.622   6.272   6.798  0.2853  0.0232 -0.2758
  160SAPE   O3217901   5.610   6.340   6.695 -0.3291 -0.2989  0.5089
  160SAPE   C3217902   5.744   6.261   6.886  1.0922  0.0572 -0.1964
  160SAPE   H2X17903   5.815   6.183   6.849  1.8403  1.2912 -1.3862
  160SAPE   H2Y17904   5.710   6.233   6.988  2.3936 -0.5358  0.0860
  160SAPE   C2317905   5.141   6.262   7.240  0.8041  0.0610 -0.6084
  160SAPE   H3R17906   5.236   6.319   7.249  0.3683  0.9710 -1.6699
  160SAPE   H3S17907   5.161   6.159   7.276  0.3336  0.1305 -0.1423
  160SAPE   C2417908   5.046   6.338   7.336 -0.3136 -0.2408 -0.2633
  160SAPE   H4R17909   5.102   6.354   7.430  0.2770 -0.1867 -0.6224
  160SAPE   H4S17910   4.947   6.289   7.352  0.5059 -2.1153 -0.7780
  160SAPE   C2517911   5.010   6.482   7.286  0.3473  0.5337 -0.3672
  160SAPE   H5R17912   4.996   6.491   7.178 -0.6101 -0.3096 -0.3300
  160SAPE   C2617913   4.956   6.571   7.369 -0.1026  0.2247  0.1544
  160SAPE   H6R17914   4.932   6.666   7.318 -2.0659 -0.4671 -0.2197
  160SAPE   C2717915   4.929   6.574   7.520 -0.6307  0.3108 -0.3232
  160SAPE   H7R17916   4.854   6.498   7.549  0.1380 -0.0884  0.6636
  160SAPE   H7S17917   4.890   6.677   7.533 -1.2791  0.0452 -0.1540
  160SAPE   C2817918   5.055   6.580   7.602 -0.1212  0.8657  0.3252
  160SAPE   H8R17919   5.149   6.583   7.547 -0.9369 -1.0162 -1.2447
  160SAPE   C2917920   5.057   6.614   7.731 -0.6309 -0.2168  0.4028
  160SAPE   H9R17921   5.151   6.605   7.787  0.1612  1.2205 -0.6695
  160SAPE  C21017922   4.938   6.640   7.812 -0.7887 -0.3308 -0.3905
  160SAPE  H10R17923   4.944   6.570   7.898 -0.1625 -1.3944 -1.2704
  160SAPE  H10S17924   4.850   6.612   7.750  0.0964 -0.7611 -1.4848
  160SAPE  C21117925   4.919   6.780   7.863  0.0201  0.7322  0.8678
  160SAPE  H11R17926   4.894   6.846   7.780  1.8867  0.7806  0.3329
  160SAPE  C21217927   4.929   6.834   7.990 -0.1702  0.7856  0.0443
  160SAPE  H12R17928   4.902   6.938   8.014 -2.2117  0.0448  1.0333
  160SAPE  C21317929   4.957   6.743   8.112  0.0927  0.0322 -0.6005
  160SAPE  H13R17930   4.879   6.665   8.102  0.2173  0.0562 -1.8525
  160SAPE  H13S17931   4.942   6.798   8.208  1.5013 -2.5919  1.1821
  160SAPE  C21417932   5.100   6.687   8.117  0.0857  0.3278 -0.2329
  160SAPE  H14R17933   5.162   6.708   8.029 -0.2655 -1.8202 -1.0214
  160SAPE  C21517934   5.155   6.623   8.220 -0.3846 -0.5231  0.6785
  160SAPE  H15R17935   5.261   6.596   8.211 -0.3719  0.2181 -1.5704
  160SAPE  C21617936   5.088   6.582   8.351  0.7653 -0.5972 -0.3076
  160SAPE  H16R17937   5.070   6.473   8.341  2.3561 -1.1017  2.0489
  160SAPE  H16S17938   4.997   6.644   8.368  1.4967  1.0732 -2.2246
  160SAPE  C21717939   5.179   6.619   8.472 -0.3482  0.0180  0.4186
  160SAPE  H17R17940   5.198   6.728   8.484  3.3111 -0.2492 -2.3130
  160SAPE  H17S17941   5.272   6.563   8.450 -0.4892 -0.8544  2.0251
  160SAPE  C21817942   5.116   6.557   8.602  0.1823 -0.2802  0.0669
  160SAPE  H18R17943   5.107   6.446   8.601  0.3497 -0.3076  0.8000
  160SAPE  H18S17944   5.020   6.610   8.618  0.1334  0.4557 -2.5943
  160SAPE  C21917945   5.200   6.598   8.730  0.6644 -0.7352 -0.0105
  160SAPE  H19R17946   5.141   6.589   8.824  0.2788 -1.5832 -0.3284
  160SAPE  H19S17947   5.238   6.701   8.718  1.1643 -0.9254 -0.0683
  160SAPE  C22017948   5.327   6.522   8.742 -0.1297  0.9993  0.1705
  160SAPE  H20R17949   5.302   6.414   8.746  1.0200  0.7347  0.5021
  160SAPE  H20S17950   5.391   6.549   8.829  0.3233  1.6201 -0.3432
  160SAPE  H20T17951   5.380   6.544   8.647 -0.7615 -0.0989 -0.4411
  160SAPE   C3317952   5.809   6.397   6.893 -0.0968 -0.3895  0.3236
  160SAPE   H3X17953   5.741   6.484   6.898  2.4755  1.6338  0.9787
  160SAPE   H3Y17954   5.864   6.421   6.800  0.3916  1.0620  0.9729
  160SAPE   C3417955   5.908   6.402   7.010 -0.5912  0.8908 -0.5467
  160SAPE   H4X17956   5.975   6.490   7.008  1.2839 -0.5092 -1.3646
  160SAPE   H4Y17957   5.980   6.318   6.999 -1.3485  0.1025  0.4317
  160SAPE   C3517958   5.842   6.391   7.149  0.2420 -0.0650 -0.0603
  160SAPE   H5X17959   5.805   6.288   7.171  0.1958  0.3856  2.1111
  160SAPE   H5Y17960   5.754   6.458   7.144  0.5015  0.2396 -0.5397
  160SAPE   C3617961   5.935   6.445   7.259 -0.2738 -0.3228  0.1335
  160SAPE   H6X17962   5.937   6.556   7.262  1.1847 -0.2851 -1.4981
  160SAPE   H6Y17963   6.038   6.411   7.238 -0.5673 -1.6877  0.8671
  160SAPE   C3717964   5.896   6.399   7.396 -0.3275  0.1175  0.4951
  160SAPE   H7X17965   5.918   6.291   7.406  1.4398  0.4069 -0.0156
  160SAPE   H7Y17966   5.790   6.414   7.424 -0.5102 -1.1845  0.5453
  160SAPE   C3817967   5.987   6.475   7.496 -0.5138 -0.3135 -0.4596
  160SAPE   H8X17968   5.968   6.582   7.472  0.4714 -0.4065 -1.7162
  160SAPE   H8Y17969   6.092   6.457   7.465 -0.2759  0.5465 -0.1470
  160SAPE   C3917970   5.977   6.445   7.640 -0.5662 -0.0580  0.0386
  160SAPE   H9X17971   6.067   6.393   7.678 -1.3782 -0.7412  1.0853
  160SAPE   H9Y17972   5.886   6.383   7.659 -1.8913  1.4071 -1.3054
  160SAPE  C31017973   5.945   6.581   7.714 -0.3731  0.5796 -0.0556
  160SAPE  H10X17974   5.864   6.623   7.650  0.8550  3.1746  0.0365
  160SAPE  H10Y17975   6.029   6.652   7.703  0.8643 -0.7735  0.4672
  160SAPE  C31117976   5.888   6.561   7.862  0.6820  0.4705 -0.0632
  160SAPE  H11X17977   5.797   6.497   7.858  1.7387 -1.0263 -0.6051
  160SAPE  H11Y17978   5.851   6.657   7.904 -0.6556  0.3589 -0.9153
  160SAPE  C31217979   5.985   6.482   7.956  0.6777 -0.4650 -0.2714
  160SAPE  H12X17980   6.083   6.536   7.954  0.6833 -0.3707  1.6151
  160SAPE  H12Y17981   6.004   6.376   7.930  1.3678 -1.0949  2.5800
  160SAPE  C31317982   5.932   6.472   8.106 -0.3813  0.3840 -0.2439
  160SAPE  H13X17983   5.829   6.429   8.106 -0.0477 -0.4104  1.0072
  160SAPE  H13Y17984   5.941   6.573   8.152  0.7437 -0.0173  0.4182
  160SAPE  C31417985   6.017   6.370   8.197  0.1414  0.5057 -0.6029
  160SAPE  H14X17986   6.121   6.357   8.161 -0.0937 -0.6985 -0.8538
  160SAPE  H14Y17987   5.973   6.275   8.161 -0.8610  0.4267  0.7921
  160SAPE  C31517988   5.997   6.373   8.345 -0.8346  0.3940  0.2822
  160SAPE  H15X17989   5.892   6.376   8.381 -0.6409 -1.4581  1.0897
  160SAPE  H15Y17990   6.038   6.469   8.381 -1.6790  0.4776  1.0543
  160SAPE  C31617991   6.083   6.274   8.412 -0.1397 -0.4431  0.1467
  160SAPE  H16X17992   6.187   6.268   8.375  0.0448  1.3553  0.3481
  160SAPE  H16Y17993   6.033   6.180   8.382  1.4997 -0.8294 -1.4723
  160SAPE  C31717994   6.084   6.279   8.565 -0.0187 -0.9615  0.0807
  160SAPE  H17X17995   5.979   6.274   8.599  0.0012  0.5730  0.4082
  160SAPE  H17Y17996   6.119   6.378   8.601 -1.4585 -1.2563  2.4006
  160SAPE  C31817997   6.182   6.176   8.634  0.3686 -0.3289  0.5535
  160SAPE  H18X17998   6.286   6.180   8.595  0.1661 -0.8803 -0.0714
  160SAPE  H18Y17999   6.137   6.076   8.616 -0.6483  0.0532  0.9413
  160SAPE  H18Z18000   6.192   6.190   8.743 -0.1658 -0.4469  0.6199
  161SAPE     N18001   1.496   3.865   6.365  0.6036  0.6631  0.3250
  161SAPE   HN118002   1.514   3.930   6.444 -0.5921  1.6690 -0.2268
  161SAPE   HN218003   1.413   3.804   6.385  2.1183 -3.1841 -4.1749
  161SAPE   HN318004   1.578   3.800   6.365  0.4533  0.4760 -0.3475
  161SAPE   C1218005   1.479   3.929   6.230 -0.2762  0.0395 -0.9705
  161SAPE  H12A18006   1.486   3.852   6.150 -1.4739 -1.4439  0.3342
  161SAPE  H12B18007   1.562   4.001   6.216 -0.1578  0.1849  0.4407
  161SAPE   C1118008   1.357   4.017   6.234  0.2308  0.0906  0.3780
  161SAPE  H11A18009   1.337   4.068   6.138 -1.2825  3.6313  2.4665
  161SAPE  H11B18010   1.373   4.102   6.303 -0.3703 -0.0859  0.7450
  161SAPE     P18011   1.117   4.018   6.312  0.0382 -0.1386 -0.1543
  161SAPE   O1318012   1.091   4.127   6.211  1.5819  0.3468  0.0743
  161SAPE   O1418013   1.012   3.917   6.333  0.3127 -0.4339  0.2863
  161SAPE   O1218014   1.247   3.944   6.275 -0.3222 -0.1297 -0.3227
  161SAPE   O1118015   1.148   4.097   6.446 -0.1416 -0.0587 -0.7259
  161SAPE    C118016   1.207   4.052   6.567  0.5261  0.1955 -0.4519
  161SAPE    HA18017   1.282   3.977   6.536  0.2031 -0.2883 -0.0660
  161SAPE    HB18018   1.258   4.134   6.623 -0.2301  0.4115 -0.0651
  161SAPE    C218019   1.103   3.978   6.661  0.3410 -1.3271 -0.2804
  161SAPE    HS18020   1.045   3.913   6.592 -0.3543 -1.8723  0.8066
  161SAPE   O2118021   1.014   4.074   6.717  0.2177 -0.2118 -0.5135
  161SAPE   C2118022   0.897   4.036   6.750 -0.4248  0.2761  0.2273
  161SAPE   O2218023   0.852   3.925   6.732  0.1755 -0.1854  0.1726
  161SAPE   C2218024   0.820   4.150   6.821 -0.1102 -0.0923  0.0719
  161SAPE   H2R18025   0.893   4.234   6.820 -0.0232 -0.1673  0.1058
  161SAPE   H2S18026   0.731   4.162   6.756  1.6218 -0.1821 -2.4221
  161SAPE    C318027   1.167   3.889   6.773 -0.0827  0.5682  0.4568
  161SAPE    HX18028   1.205   3.812   6.702 -0.6695  2.1377 -1.6417
  161SAPE    HY18029   1.093   3.839   6.838 -2.1402 -0.0633 -2.2661
  161SAPE   O3118030   1.285   3.940   6.846 -0.4578 -0.3659  0.1100
  161SAPE   C3118031   1.325   3.883   6.958  0.3488  0.1535  0.4952
  161SAPE   O3218032   1.276   3.778   7.006 -0.3958  0.0587  0.4103
  161SAPE   C3218033   1.431   3.969   7.027  0.0184 -0.1759 -0.6193
  161SAPE   H2X18034   1.405   4.076   7.015 -1.0434 -0.4826 -1.2034
  161SAPE   H2Y18035   1.528   3.955   6.975  0.3165 -0.2312 -0.0411
  161SAPE   C2318036   0.779   4.122   6.965  0.0970 -0.6391 -0.9457
  161SAPE   H3R18037   0.721   4.027   6.977  2.9794 -2.5740 -1.8729
  161SAPE   H3S18038   0.710   4.206   6.989 -1.4141 -2.2530  0.5938
  161SAPE   C2418039   0.888   4.117   7.073  0.2036  1.1056  0.9227
  161SAPE   H4R18040   0.842   4.138   7.172  0.3402 -1.8381  1.6649
  161SAPE   H4S18041   0.955   4.202   7.048  1.1537  0.2694  0.5833
  161SAPE   C2518042   0.982   3.993   7.100  0.4481 -0.2183 -0.0073
  161SAPE   H5R18043   1.044   3.963   7.014  1.6048 -0.8915  1.0338
  161SAPE   C2618044   0.996   3.915   7.210  0.4156 -0.3605 -1.0902
  161SAPE   H6R18045   1.076   3.841   7.216  0.3165 -0.2950  1.4446
  161SAPE   C2718046   0.918   3.929   7.340 -0.3101  0.1296  0.2812
  161SAPE   H7R18047   0.885   4.035   7.354  0.3030  0.7133 -2.5044
  161SAPE   H7S18048   0.985   3.909   7.426  1.1961  2.6517 -0.2695
  161SAPE   C2818049   0.779   3.867   7.345  0.9157  0.1086  0.3414
  161SAPE   H8R18050   0.711   3.891   7.262 -2.1669 -0.5464  2.5541
  161SAPE   C2918051   0.739   3.787   7.442 -0.3104 -0.4337 -0.3503
  161SAPE   H9R18052   0.635   3.754   7.428 -1.4413  2.1276  1.7051
  161SAPE  C21018053   0.820   3.744   7.564 -0.1102  0.3309 -0.1049
  161SAPE  H10R18054   0.930   3.742   7.553  0.2247 -2.2789  2.9875
  161SAPE  H10S18055   0.799   3.636   7.580  2.1498 -0.1165 -0.0991
  161SAPE  C21118056   0.792   3.832   7.680  0.0549 -0.3163  0.0009
  161SAPE  H11R18057   0.805   3.939   7.661 -0.5327 -0.2073  0.2200
  161SAPE  C21218058   0.779   3.786   7.810  0.3343  0.0653 -0.2593
  161SAPE  H12R18059   0.755   3.863   7.886 -4.3672 -0.7019 -0.8198
  161SAPE  C21318060   0.793   3.647   7.858 -0.1018  0.0811  0.2945
  161SAPE  H13R18061   0.847   3.585   7.783 -0.9304 -0.6569  0.3085
  161SAPE  H13S18062   0.688   3.612   7.866 -0.3290  0.7651  0.3678
  161SAPE  C21418063   0.867   3.646   7.993 -0.2846  0.0402  0.0350
  161SAPE  H14R18064   0.967   3.691   7.993  0.3916 -1.4659  0.2229
  161SAPE  C21518065   0.822   3.589   8.113  0.1242 -0.0238 -0.0489
  161SAPE  H15R18066   0.898   3.604   8.191 -0.4283 -0.8630  0.6631
  161SAPE  C21618067   0.691   3.519   8.147 -0.2700  0.0739 -0.2470
  161SAPE  H16R18068   0.627   3.488   8.061 -1.6994 -0.9947  1.1580
  161SAPE  H16S18069   0.631   3.592   8.206  1.0793  1.8350 -1.0071
  161SAPE  C21718070   0.712   3.396   8.242 -0.7512 -0.4096  0.3942
  161SAPE  H17R18071   0.759   3.421   8.339  2.1709 -0.5690 -0.9164
  161SAPE  H17S18072   0.774   3.315   8.198  0.1268 -0.1542  1.1544
  161SAPE  C21818073   0.581   3.327   8.258  0.4856  0.4118  0.6030
  161SAPE  H18R18074   0.553   3.277   8.163 -1.1571  1.2825  0.6184
  161SAPE  H18S18075   0.507   3.401   8.295  1.3959  1.3574  0.5500
  161SAPE  C21918076   0.601   3.216   8.363  0.7398  0.3570  0.4566
  161SAPE  H19R18077   0.604   3.264   8.464 -1.1273 -2.5131  1.9461
  161SAPE  H19S18078   0.693   3.155   8.351 -0.2424 -0.5879 -2.5890
  161SAPE  C22018079   0.485   3.116   8.369 -1.0567 -0.1083  0.1540
  161SAPE  H20R18080   0.410   3.149   8.445  0.7503 -0.4836  2.1295
  161SAPE  H20S18081   0.526   3.017   8.399  3.6476  1.0071 -2.1927
  161SAPE  H20T18082   0.449   3.099   8.266 -1.8339  2.0671  0.0245
  161SAPE   C3318083   1.457   3.936   7.178 -0.1896 -0.0104  0.3685
  161SAPE   H3X18084   1.565   3.956   7.195 -0.0043 -1.3515  0.8352
  161SAPE   H3Y18085   1.441   3.828   7.199 -0.7399 -0.3827 -1.8487
  161SAPE   C3418086   1.373   4.020   7.277 -0.1585  0.0351 -0.2036
  161SAPE   H4X18087   1.269   4.020   7.237 -0.6993  1.4005  1.1420
  161SAPE   H4Y18088   1.395   4.129   7.275  0.3398 -0.0469  0.5280
  161SAPE   C3518089   1.367   3.948   7.416 -0.0528  0.1892 -0.4685
  161SAPE   H5X18090   1.470   3.955   7.455  0.2589 -0.1530 -1.2232
  161SAPE   H5Y18091   1.335   3.843   7.398 -1.2258  0.4002  0.2737
  161SAPE   C3618092   1.260   4.004   7.506 -0.0002 -0.1262 -0.0085
  161SAPE   H6X18093   1.164   3.991   7.452 -0.2318  1.8867 -0.1322
  161SAPE   H6Y18094   1.254   4.115   7.517 -1.5191 -0.1089 -0.9558
  161SAPE   C3718095   1.254   3.946   7.648 -0.3652  0.4537 -0.0889
  161SAPE   H7X18096   1.354   3.951   7.697 -0.4918  0.6404  0.1491
  161SAPE   H7Y18097   1.224   3.841   7.631  2.4327 -0.1732 -1.4660
  161SAPE   C3818098   1.153   4.023   7.739  0.3020 -0.3298  0.1758
  161SAPE   H8X18099   1.051   4.002   7.700  0.3181  1.5349 -0.9274
  161SAPE   H8Y18100   1.168   4.132   7.735 -2.0677  0.0273  0.0666
  161SAPE   C3918101   1.141   3.984   7.890 -0.3302 -0.4278  0.6104
  161SAPE   H9X18102   1.237   4.020   7.931  0.5498 -1.1684 -0.7691
  161SAPE   H9Y18103   1.119   3.875   7.897  2.1411 -0.9515  0.5675
  161SAPE  C31018104   1.030   4.058   7.964  0.5220  0.4670 -0.3923
  161SAPE  H10X18105   0.940   4.027   7.907  0.8361 -0.2573 -0.5070
  161SAPE  H10Y18106   1.040   4.167   7.950 -1.3396  0.8365  1.0123
  161SAPE  C31118107   1.011   4.013   8.109 -0.4279  0.0061 -0.7419
  161SAPE  H11X18108   1.107   4.025   8.165 -1.6958 -1.3529  1.8220
  161SAPE  H11Y18109   0.987   3.904   8.109 -2.4927  0.4267 -2.8435
  161SAPE  C31218110   0.901   4.099   8.175  0.0010  0.9980 -0.0267
  161SAPE  H12X18111   0.799   4.078   8.135 -0.7265  2.7621  0.8522
  161SAPE  H12Y18112   0.935   4.203   8.156 -0.2317  1.7651  3.3859
  161SAPE  C31318113   0.891   4.080   8.334  0.2968  0.3540 -0.1292
  161SAPE  H13X18114   0.821   4.152   8.380 -0.2646  0.4392 -1.0986
  161SAPE  H13Y18115   0.993   4.101   8.374 -0.3427  0.5672  1.3908
  161SAPE  C31418116   0.858   3.937   8.376  0.0593  0.1868  0.7171
  161SAPE  H14X18117   0.945   3.871   8.355  2.1723  2.7097  1.2692
  161SAPE  H14Y18118   0.773   3.918   8.307  1.2234 -3.2999  0.1816
  161SAPE  C31518119   0.811   3.924   8.523 -0.3620 -0.6579 -0.6494
  161SAPE  H15X18120   0.726   3.996   8.531 -0.1084 -0.3061 -1.0751
  161SAPE  H15Y18121   0.879   3.946   8.609 -0.1189 -0.0617 -0.9931
  161SAPE  C31618122   0.752   3.778   8.552  0.0982 -0.8693  0.0856
  161SAPE  H16X18123   0.673   3.744   8.482  0.1866 -0.0494 -0.4144
  161SAPE  H16Y18124   0.708   3.773   8.654  0.3221 -1.5964  0.1445
  161SAPE  C31718125   0.857   3.671   8.554 -0.3171  0.3868 -0.2595
  161SAPE  H17X18126   0.908   3.657   8.456  0.2223  0.6460 -0.0170
  161SAPE  H17Y18127   0.798   3.579   8.573  0.5772  0.0599  1.0398
  161SAPE  C31818128   0.960   3.680   8.662  0.6035 -0.5298  0.0188
  161SAPE  H18X18129   0.909   3.655   8.757 -0.8384 -0.3863 -0.7105
  161SAPE  H18Y18130   1.024   3.770   8.678  0.7611 -0.3137 -1.7130
  161SAPE  H18Z18131   1.031   3.595   8.655  0.4896 -0.7212  1.1543
  162SAPE     N18132   5.624   0.418   6.200  1.0087 -0.1009  0.5504
  162SAPE   HN118133   5.594   0.504   6.249  1.3358 -0.4880  1.4336
  162SAPE   HN218134   5.656   0.440   6.104 -0.4041  0.3167  0.1584
  162SAPE   HN318135   5.537   0.362   6.186 -0.5868  1.6282  3.1710
  162SAPE   C1218136   5.727   0.357   6.279 -0.4013  0.0273  0.3967
  162SAPE  H12A18137   5.759   0.267   6.222 -1.1898  0.3397 -0.5451
  162SAPE  H12B18138   5.691   0.331   6.381 -0.4794 -0.4132  0.2568
  162SAPE   C1118139   5.843   0.460   6.290 -0.1856  0.3436 -0.4850
  162SAPE  H11A18140   5.919   0.417   6.359  1.3096  1.8265 -1.1725
  162SAPE  H11B18141   5.808   0.557   6.330 -1.9124 -0.9026  1.0658
  162SAPE     P18142   6.021   0.453   6.076  0.4206 -0.0489  0.4875
  162SAPE   O1318143   5.994   0.314   6.022 -0.5820  0.2433 -0.1606
  162SAPE   O1418144   6.045   0.567   5.987  0.3342  0.3888 -0.0681
  162SAPE   O1218145   5.895   0.487   6.160 -0.3917 -0.0971 -0.4448
  162SAPE   O1118146   6.127   0.446   6.191  0.5351 -0.3086 -0.7406
  162SAPE    C118147   6.223   0.554   6.200  0.1664  0.1607  0.9987
  162SAPE    HA18148   6.283   0.553   6.107 -0.2028 -0.0845  0.7630
  162SAPE    HB18149   6.171   0.651   6.215 -0.2042  0.0654  0.3334
  162SAPE    C218150   6.323   0.530   6.322 -0.7251 -0.4797 -0.0988
  162SAPE    HS18151   6.397   0.613   6.328  0.0943 -1.0744 -1.6818
  162SAPE   O2118152   6.386   0.405   6.302  0.3414 -0.0030 -0.0660
  162SAPE   C2118153   6.476   0.396   6.203  0.4378  0.0355  0.1147
  162SAPE   O2218154   6.532   0.492   6.149 -0.3291 -0.0464 -0.3233
  162SAPE   C2218155   6.497   0.251   6.168 -0.0574 -0.3837  0.0276
  162SAPE   H2R18156   6.408   0.190   6.197 -0.4523 -0.0799 -0.5368
  162SAPE   H2S18157   6.492   0.247   6.057 -0.4220  1.1200 -0.0221
  162SAPE    C318158   6.242   0.527   6.449  0.0267  0.4139 -0.1478
  162SAPE    HX18159   6.186   0.431   6.445  0.7479 -0.1052  1.7910
  162SAPE    HY18160   6.175   0.614   6.464  0.7674  0.6896  1.7114
  162SAPE   O3118161   6.330   0.517   6.551  0.1911  0.8627  0.0052
  162SAPE   C3118162   6.319   0.422   6.643 -0.9207  0.2790  0.3876
  162SAPE   O3218163   6.229   0.344   6.659  0.4861 -0.9745  0.0987
  162SAPE   C3218164   6.457   0.417   6.723 -1.0043  0.2810 -0.0583
  162SAPE   H2X18165   6.483   0.525   6.718 -0.6194  0.3262  2.5293
  162SAPE   H2Y18166   6.535   0.356   6.673 -1.8318 -1.9953  1.3673
  162SAPE   C2318167   6.636   0.210   6.209 -0.0687  0.1649 -0.0655
  162SAPE   H3R18168   6.707   0.293   6.188  0.8347 -0.8029 -0.9110
  162SAPE   H3S18169   6.665   0.131   6.137  1.3617  1.0212 -0.4490
  162SAPE   C2418170   6.653   0.139   6.347  0.2520 -0.0103 -0.0560
  162SAPE   H4R18171   6.594   0.045   6.345  2.3324 -1.3735  0.3769
  162SAPE   H4S18172   6.614   0.206   6.426 -0.7930 -1.4987  0.7190
  162SAPE   C2518173   6.802   0.126   6.384  0.3927  0.0250  0.1103
  162SAPE   H5R18174   6.843   0.023   6.383  0.7795  0.1850 -1.7995
  162SAPE   C2618175   6.887   0.212   6.436  0.6544  0.4830 -0.2577
  162SAPE   H6R18176   6.985   0.175   6.471 -0.0817 -1.8367 -0.5577
  162SAPE   C2718177   6.849   0.359   6.454  0.0900 -0.4149 -0.3546
  162SAPE   H7R18178   6.772   0.361   6.533  1.0906 -0.5152  0.6274
  162SAPE   H7S18179   6.807   0.407   6.362 -1.5017  0.3511  0.7454
  162SAPE   C2818180   6.966   0.440   6.502  0.0625 -0.3258  0.4262
  162SAPE   H8R18181   7.005   0.506   6.423 -0.0643  1.1619  1.5929
  162SAPE   C2918182   7.026   0.430   6.623  1.0467 -0.2177 -0.1632
  162SAPE   H9R18183   7.111   0.493   6.652  1.0117  0.7995 -2.2020
  162SAPE  C21018184   6.978   0.341   6.736 -0.3465  0.6351 -0.4258
  162SAPE  H10R18185   6.914   0.255   6.707 -0.4382  1.0967 -1.5967
  162SAPE  H10S18186   6.914   0.399   6.805  0.9095  2.2062 -0.5303
  162SAPE  C21118187   7.105   0.296   6.802  0.0579  0.3147  0.3570
  162SAPE  H11R18188   7.175   0.232   6.746  0.6570  0.6037  0.7679
  162SAPE  C21218189   7.153   0.330   6.925 -0.2564 -0.9561 -0.2796
  162SAPE  H12R18190   7.248   0.283   6.953 -0.0339  0.8742  2.1531
  162SAPE  C21318191   7.093   0.418   7.035 -0.4145 -0.3343  0.6733
  162SAPE  H13R18192   7.024   0.489   6.985  1.6192 -1.1138 -3.5428
  162SAPE  H13S18193   7.171   0.483   7.080 -0.9539  2.4392 -2.2349
  162SAPE  C21418194   7.018   0.329   7.129  0.0991  0.2666 -0.2806
  162SAPE  H14R18195   6.958   0.245   7.090 -2.5406  2.1959 -0.5111
  162SAPE  C21518196   7.011   0.339   7.262  0.1913 -0.1031  0.2136
  162SAPE  H15R18197   6.951   0.268   7.320  2.3721 -1.4350  0.8812
  162SAPE  C21618198   7.087   0.434   7.346  0.5571 -0.2834 -0.2782
  162SAPE  H16R18199   7.141   0.508   7.282 -1.9548  0.4658 -1.6336
  162SAPE  H16S18200   7.169   0.383   7.399  0.0991  0.6954  1.4285
  162SAPE  C21718201   6.996   0.519   7.435  0.9732 -0.1566 -0.7801
  162SAPE  H17R18202   6.913   0.570   7.382 -0.1421 -0.5732  0.5530
  162SAPE  H17S18203   7.064   0.602   7.466 -0.1265  0.9183 -1.2165
  162SAPE  C21818204   6.941   0.453   7.554  0.0434  0.5509 -0.2368
  162SAPE  H18R18205   6.896   0.354   7.530  0.1259  0.5449 -0.3642
  162SAPE  H18S18206   6.863   0.524   7.590  1.9923  2.2040  0.7830
  162SAPE  C21918207   7.053   0.420   7.656 -0.2326  0.0709  0.3370
  162SAPE  H19R18208   7.102   0.511   7.698  0.0518 -0.4659  1.1972
  162SAPE  H19S18209   7.116   0.346   7.602  1.0606  1.0306  0.5013
  162SAPE  C22018210   7.000   0.342   7.777  0.0791  0.1340  0.1568
  162SAPE  H20R18211   6.966   0.238   7.755 -1.4015  0.5906  0.2395
  162SAPE  H20S18212   6.922   0.401   7.831  1.2872 -0.1787  2.3047
  162SAPE  H20T18213   7.094   0.328   7.835 -0.4402 -2.6051  0.4086
  162SAPE   C3318214   6.422   0.372   6.873 -0.0902 -0.2914  0.3260
  162SAPE   H3X18215   6.410   0.262   6.868  0.5826 -0.4173  1.4644
  162SAPE   H3Y18216   6.324   0.419   6.897  0.4160  1.7568 -1.3925
  162SAPE   C3418217   6.542   0.402   6.966  1.2422  0.0955  0.2438
  162SAPE   H4X18218   6.564   0.511   6.970 -1.2411  0.5732  1.4306
  162SAPE   H4Y18219   6.631   0.344   6.935 -0.7449 -1.5019 -2.6654
  162SAPE   C3518220   6.510   0.367   7.111  0.2984  0.4904 -0.2377
  162SAPE   H5X18221   6.603   0.380   7.170  0.3503  1.9010 -0.6245
  162SAPE   H5Y18222   6.486   0.259   7.119 -0.2477  0.3702 -2.9129
  162SAPE   C3618223   6.395   0.444   7.176  0.9457  0.1700 -0.1477
  162SAPE   H6X18224   6.309   0.429   7.107  0.6620  0.8442  0.0610
  162SAPE   H6Y18225   6.414   0.553   7.169  1.1859  0.0760 -1.0368
  162SAPE   C3718226   6.347   0.400   7.313  0.1220 -0.0694  0.4258
  162SAPE   H7X18227   6.346   0.289   7.328  1.7913 -0.3751 -1.6360
  162SAPE   H7Y18228   6.240   0.425   7.331  0.0385 -1.1196  1.5137
  162SAPE   C3818229   6.428   0.472   7.412  0.8577 -0.1395  0.9242
  162SAPE   H8X18230   6.413   0.582   7.402 -1.3002 -0.4748  0.3614
  162SAPE   H8Y18231   6.538   0.460   7.397  0.5902  0.6067 -2.0140
  162SAPE   C3918232   6.391   0.433   7.553  0.8526 -0.0778  0.1656
  162SAPE   H9X18233   6.416   0.327   7.576  0.8617 -1.1298 -4.2266
  162SAPE   H9Y18234   6.281   0.443   7.566  0.5008 -0.7761 -2.0305
  162SAPE  C31018235   6.460   0.526   7.653  0.3955  0.2306  0.2789
  162SAPE  H10X18236   6.413   0.627   7.655  0.8838  0.4967 -0.9682
  162SAPE  H10Y18237   6.568   0.528   7.626  1.0552 -0.5931  2.7015
  162SAPE  C31118238   6.438   0.465   7.796 -0.1282  0.3364 -0.8656
  162SAPE  H11X18239   6.492   0.518   7.878  0.2591 -0.8171 -0.3577
  162SAPE  H11Y18240   6.481   0.363   7.809  1.3073  0.6291 -2.9919
  162SAPE  C31218241   6.295   0.480   7.840 -0.2137  0.0182 -0.2465
  162SAPE  H12X18242   6.237   0.411   7.775 -0.2897 -0.0016 -0.1579
  162SAPE  H12Y18243   6.258   0.582   7.816 -1.3557  0.1540  1.9950
  162SAPE  C31318244   6.266   0.447   7.986  0.3804  0.4272 -0.0204
  162SAPE  H13X18245   6.337   0.504   8.051  1.6057  0.5968 -1.4650
  162SAPE  H13Y18246   6.302   0.342   7.991  0.0761  0.3824  1.3794
  162SAPE  C31418247   6.117   0.436   8.026  0.7040 -0.2166 -0.4012
  162SAPE  H14X18248   6.060   0.350   7.985 -0.6242  1.2146 -1.6085
  162SAPE  H14Y18249   6.063   0.531   8.003 -1.2322 -0.7298  1.8475
  162SAPE  C31518250   6.096   0.411   8.173 -0.3394  0.1404  0.2018
  162SAPE  H15X18251   6.159   0.474   8.240 -0.1558 -1.3311  1.4502
  162SAPE  H15Y18252   6.139   0.310   8.191 -1.3168 -0.3861 -0.3622
  162SAPE  C31618253   5.949   0.435   8.228  0.2569 -0.0060  0.8892
  162SAPE  H16X18254   5.878   0.371   8.172 -0.1880  0.9743  0.3229
  162SAPE  H16Y18255   5.925   0.541   8.203  1.6743 -0.5741 -3.3472
  162SAPE  C31718256   5.938   0.392   8.377 -0.7734  0.2253 -0.1518
  162SAPE  H17X18257   6.007   0.306   8.393 -0.1573  0.8313  0.4832
  162SAPE  H17Y18258   5.837   0.353   8.399  0.6219 -2.7581  1.3290
  162SAPE  C31818259   5.986   0.508   8.468  0.2255 -0.0750 -0.1531
  162SAPE  H18X18260   5.999   0.463   8.569 -0.1126  2.3331  1.0159
  162SAPE  H18Y18261   5.912   0.590   8.484  0.0284  0.1094 -1.8950
  162SAPE  H18Z18262   6.067   0.563   8.416 -1.6072  0.8637 -2.1029
  163SAPE     N18263   5.225   5.677   6.379 -0.0186 -0.6310  0.2443
  163SAPE   HN118264   5.144   5.616   6.355 -0.0502  0.9798 -4.2041
  163SAPE   HN218265   5.193   5.771   6.407 -0.4566 -0.6185 -0.2987
  163SAPE   HN318266   5.284   5.696   6.296  2.6297  1.3681  2.5030
  163SAPE   C1218267   5.317   5.610   6.473 -0.3470 -0.1123 -0.4426
  163SAPE  H12A18268   5.261   5.631   6.567 -0.4967  1.5644 -0.8876
  163SAPE  H12B18269   5.414   5.662   6.457  0.5985 -2.1220 -1.4365
  163SAPE   C1118270   5.345   5.460   6.452 -0.2263 -0.6314  0.5666
  163SAPE  H11A18271   5.408   5.423   6.535  0.8549  2.1650  1.0502
  163SAPE  H11B18272   5.399   5.446   6.356 -0.0297  2.5861  0.1741
  163SAPE     P18273   5.192   5.242   6.430  0.1767  0.1847 -0.5572
  163SAPE   O1318274   5.071   5.237   6.344 -0.0008 -0.2949 -0.0552
  163SAPE   O1418275   5.313   5.167   6.388 -0.5967 -0.4647 -0.3644
  163SAPE   O1218276   5.217   5.396   6.445 -0.0297 -0.2064 -0.5161
  163SAPE   O1118277   5.136   5.195   6.568 -0.2625  0.0302  0.0311
  163SAPE    C118278   5.013   5.239   6.621 -0.1086  0.5382 -0.0254
  163SAPE    HA18279   4.952   5.276   6.537  1.3052 -0.8281 -1.6879
  163SAPE    HB18280   4.968   5.143   6.654  0.2774  0.7245  1.0654
  163SAPE    C218281   5.026   5.339   6.742  0.3429 -0.3105  0.1472
  163SAPE    HS18282   5.113   5.408   6.735  1.5099 -1.8709 -0.9858
  163SAPE   O2118283   5.036   5.263   6.868 -0.0261  0.0703  0.3126
  163SAPE   C2118284   5.082   5.331   6.966  0.0123  0.7085  0.6937
  163SAPE   O2218285   5.144   5.434   6.962  0.6241 -0.3892  0.0839
  163SAPE   C2218286   5.074   5.243   7.093  0.4715 -0.5647  0.2417
  163SAPE   H2R18287   5.109   5.312   7.172 -1.1302  0.6170 -0.0435
  163SAPE   H2S18288   4.967   5.233   7.122  1.2717 -0.5339  3.3283
  163SAPE    C318289   4.901   5.437   6.762  0.4499  0.2153  0.2084
  163SAPE    HX18290   4.885   5.492   6.666  0.1398 -2.3021 -1.2283
  163SAPE    HY18291   4.917   5.508   6.846  0.1004 -1.8501  2.0602
  163SAPE   O3118292   4.785   5.358   6.784 -0.1360 -0.2712  0.5346
  163SAPE   C3118293   4.737   5.353   6.910  1.0207 -0.2374 -0.2779
  163SAPE   O3218294   4.790   5.406   7.006 -0.1339  0.0536 -0.2564
  163SAPE   C3218295   4.616   5.268   6.910  0.3314  0.2815  0.2296
  163SAPE   H2X18296   4.640   5.161   6.891  0.8833  0.4037  0.2331
  163SAPE   H2Y18297   4.543   5.307   6.836 -3.6443 -1.2265  3.2145
  163SAPE   C2318298   5.156   5.120   7.076 -0.4521 -0.5841  0.2123
  163SAPE   H3R18299   5.260   5.140   7.042 -0.6350 -0.6976 -0.4083
  163SAPE   H3S18300   5.098   5.048   7.015 -0.5403 -2.1799  2.1534
  163SAPE   C2418301   5.194   5.045   7.204  0.5269  0.1286  0.7196
  163SAPE   H4R18302   5.253   4.958   7.168 -0.8455 -0.4085 -0.2871
  163SAPE   H4S18303   5.102   5.004   7.252  1.9103 -1.1100  2.3656
  163SAPE   C2518304   5.286   5.126   7.291 -0.2157  0.3495 -1.1240
  163SAPE   H5R18305   5.373   5.149   7.229 -0.6428  2.2290 -1.0588
  163SAPE   C2618306   5.277   5.164   7.420  0.0199  0.0504 -0.5209
  163SAPE   H6R18307   5.349   5.237   7.460  0.5964 -1.5255  1.4098
  163SAPE   C2718308   5.160   5.120   7.510  0.2057 -0.9520 -0.4835
  163SAPE   H7R18309   5.098   5.046   7.455 -2.4765  0.8217  0.0330
  163SAPE   H7S18310   5.078   5.194   7.527 -1.0552 -2.2536 -0.7611
  163SAPE   C2818311   5.206   5.058   7.645 -0.4960 -0.0117 -0.1278
  163SAPE   H8R18312   5.287   4.984   7.653 -0.3493  0.3448  1.8181
  163SAPE   C2918313   5.149   5.079   7.766 -0.2189 -0.1392  0.3667
  163SAPE   H9R18314   5.201   5.026   7.847  0.2327 -1.1521 -0.5723
  163SAPE  C21018315   5.030   5.161   7.814 -0.1887  0.0935 -0.0960
  163SAPE  H10R18316   4.946   5.093   7.838  2.4248 -2.5155  1.9911
  163SAPE  H10S18317   5.006   5.234   7.734  1.0043  0.7967  0.1712
  163SAPE  C21118318   5.069   5.237   7.939 -0.3138  0.2106  0.1427
  163SAPE  H11R18319   5.056   5.345   7.924 -0.3937  0.3591  1.2550
  163SAPE  C21218320   5.114   5.194   8.053 -0.1462 -0.7577 -0.5691
  163SAPE  H12R18321   5.143   5.272   8.125 -2.4771 -2.7643  2.7116
  163SAPE  C21318322   5.144   5.058   8.099 -0.1552  1.0885 -0.1858
  163SAPE  H13R18323   5.086   4.981   8.044  0.0127  1.6768 -1.2130
  163SAPE  H13S18324   5.100   5.053   8.200  1.0383  2.7859  0.4522
  163SAPE  C21418325   5.291   5.026   8.113  0.3516  0.1795 -0.0848
  163SAPE  H14R18326   5.353   5.110   8.078 -1.2707  1.5049  0.1474
  163SAPE  C21518327   5.343   4.906   8.133  0.3979  0.0437  0.2312
  163SAPE  H15R18328   5.452   4.895   8.138  0.4731  0.5259 -0.2542
  163SAPE  C21618329   5.277   4.777   8.165 -0.0815  0.2505 -0.5182
  163SAPE  H16R18330   5.301   4.712   8.079 -1.0887  2.3404 -2.4354
  163SAPE  H16S18331   5.169   4.804   8.165 -0.4019 -1.0139 -1.0944
  163SAPE  C21718332   5.326   4.710   8.289  0.1014  0.6165  0.9066
  163SAPE  H17R18333   5.302   4.789   8.364  0.0016  3.9924 -2.5435
  163SAPE  H17S18334   5.437   4.697   8.285 -0.0029 -0.0185 -0.0632
  163SAPE  C21818335   5.263   4.564   8.315 -0.0456 -0.6679 -0.3188
  163SAPE  H18R18336   5.343   4.500   8.271  0.5275  0.0891 -0.3884
  163SAPE  H18S18337   5.172   4.553   8.252 -0.1523 -0.5986 -0.1746
  163SAPE  C21918338   5.244   4.536   8.462 -0.1211  0.1433  0.2513
  163SAPE  H19R18339   5.167   4.602   8.509  0.5326  1.1615 -0.0933
  163SAPE  H19S18340   5.348   4.548   8.499  0.2532 -1.4832 -0.2376
  163SAPE  C22018341   5.207   4.392   8.496 -0.1079 -0.3366  0.4834
  163SAPE  H20R18342   5.207   4.372   8.605  0.2762  0.1745  0.5830
  163SAPE  H20S18343   5.276   4.323   8.444 -0.1879  1.2141 -1.7546
  163SAPE  H20T18344   5.108   4.377   8.449  0.1678  1.2337 -0.6294
  163SAPE   C3318345   4.553   5.251   7.043 -0.0648  0.5442 -0.5900
  163SAPE   H3X18346   4.456   5.199   7.030  0.5046 -0.2099 -1.9252
  163SAPE   H3Y18347   4.524   5.350   7.084  1.1963  0.5113  0.3912
  163SAPE   C3418348   4.633   5.165   7.146 -0.3002  0.3897  0.0739
  163SAPE   H4X18349   4.734   5.210   7.160 -1.2373  2.9619 -1.1213
  163SAPE   H4Y18350   4.641   5.064   7.101 -1.7762  0.0586  0.5482
  163SAPE   C3518351   4.573   5.153   7.285  0.5557 -0.2549  0.2254
  163SAPE   H5X18352   4.640   5.084   7.340 -0.3074 -1.6276 -0.4372
  163SAPE   H5Y18353   4.476   5.100   7.283  1.4911 -1.9803  0.1388
  163SAPE   C3618354   4.547   5.286   7.352  0.5810  0.6015  0.2806
  163SAPE   H6X18355   4.452   5.332   7.319  0.6100  0.9666  0.6984
  163SAPE   H6Y18356   4.631   5.354   7.328  1.8265 -1.9915 -3.0427
  163SAPE   C3718357   4.530   5.265   7.504 -0.4927 -0.1074  0.3726
  163SAPE   H7X18358   4.467   5.174   7.516  1.9745 -1.7032  1.6190
  163SAPE   H7Y18359   4.476   5.351   7.550 -1.1852  0.1629 -0.9310
  163SAPE   C3818360   4.661   5.246   7.581 -0.2281 -0.0524  0.1231
  163SAPE   H8X18361   4.741   5.317   7.553  0.9133 -1.3992 -0.0736
  163SAPE   H8Y18362   4.697   5.145   7.550 -1.9421 -0.6838  0.1223
  163SAPE   C3918363   4.645   5.240   7.731 -0.2174  0.2398 -0.0195
  163SAPE   H9X18364   4.594   5.328   7.775 -4.1118 -1.4596 -0.8626
  163SAPE   H9Y18365   4.743   5.225   7.781 -0.2875  0.1387  0.0900
  163SAPE  C31018366   4.555   5.118   7.775  0.5201 -0.2995  0.6457
  163SAPE  H10X18367   4.573   5.023   7.721 -0.3764 -0.0196 -0.1582
  163SAPE  H10Y18368   4.448   5.141   7.758 -0.0148 -1.6023  2.1647
  163SAPE  C31118369   4.563   5.086   7.924  0.3899  0.5418  0.1268
  163SAPE  H11X18370   4.556   5.183   7.978 -2.7837  0.5568 -0.2271
  163SAPE  H11Y18371   4.663   5.042   7.944  0.6232  0.8582 -0.3453
  163SAPE  C31218372   4.452   4.991   7.971  0.1887  0.1557  0.6895
  163SAPE  H12X18373   4.451   4.893   7.918 -0.3954  0.5579 -0.0462
  163SAPE  H12Y18374   4.364   5.055   7.951 -1.5218 -2.0483  0.9445
  163SAPE  C31318375   4.455   4.964   8.119 -0.3800 -0.3478 -0.8192
  163SAPE  H13X18376   4.563   4.945   8.137 -0.1551  0.4689 -1.2881
  163SAPE  H13Y18377   4.401   4.868   8.132 -0.2459 -0.6609 -2.4376
  163SAPE  C31418378   4.410   5.069   8.216 -0.1552 -0.1642 -0.8083
  163SAPE  H14X18379   4.308   5.108   8.195 -0.7137 -1.5341 -0.6903
  163SAPE  H14Y18380   4.481   5.151   8.190 -0.6524  0.2069 -1.0024
  163SAPE  C31518381   4.423   5.058   8.367 -0.2366 -0.1582 -0.2976
  163SAPE  H15X18382   4.530   5.035   8.388 -0.1595 -0.5648 -1.1314
  163SAPE  H15Y18383   4.343   4.991   8.406 -0.4274 -0.2000 -0.7661
  163SAPE  C31618384   4.386   5.182   8.453  0.3303  0.7712  0.2398
  163SAPE  H16X18385   4.284   5.224   8.438  0.7408  1.5060 -0.5224
  163SAPE  H16Y18386   4.464   5.257   8.430 -0.3601  1.5849  0.5552
  163SAPE  C31718387   4.402   5.150   8.610  0.4868  0.1100  0.7629
  163SAPE  H17X18388   4.505   5.110   8.627  1.3115  0.6599 -2.4544
  163SAPE  H17Y18389   4.324   5.076   8.638  0.1678 -0.3372 -1.2131
  163SAPE  C31818390   4.393   5.278   8.693 -0.0820  0.4637  0.0015
  163SAPE  H18X18391   4.481   5.344   8.677 -0.1693  0.9523  1.4448
  163SAPE  H18Y18392   4.399   5.262   8.803  0.4252  2.2062  0.2415
  163SAPE  H18Z18393   4.295   5.323   8.667 -0.3753 -0.1215  0.0907
  164SAPE     N18394   1.359   2.265   5.519 -0.0725 -0.3703  0.7615
  164SAPE   HN118395   1.347   2.253   5.417 -0.3883 -0.4210  0.8060
  164SAPE   HN218396   1.267   2.261   5.567 -0.6833  1.8535 -0.1530
  164SAPE   HN318397   1.402   2.360   5.529  1.8621 -0.9674 -1.3985
  164SAPE   C1218398   1.447   2.151   5.554 -0.7281  0.3506 -0.2456
  164SAPE  H12A18399   1.545   2.157   5.502  1.6016 -3.0799  3.5180
  164SAPE  H12B18400   1.406   2.057   5.511  0.4919  0.2445 -1.1989
  164SAPE   C1118401   1.474   2.149   5.706 -0.9985 -0.6559  0.0521
  164SAPE  H11A18402   1.519   2.050   5.733  1.4222  0.2531 -0.5238
  164SAPE  H11B18403   1.382   2.160   5.767 -0.2076  0.2320  1.0797
  164SAPE     P18404   1.608   2.243   5.906  0.1138  0.0268  0.1321
  164SAPE   O1318405   1.735   2.313   5.914 -0.1499 -0.0497  0.9056
  164SAPE   O1418406   1.496   2.298   5.989  0.0076 -0.0136 -0.0022
  164SAPE   O1218407   1.566   2.249   5.755  0.6214  0.4042 -0.5429
  164SAPE   O1118408   1.627   2.090   5.940 -0.0830  0.5507  0.4666
  164SAPE    C118409   1.755   2.029   5.943  0.3620  0.0214 -0.3768
  164SAPE    HA18410   1.737   1.930   5.896  0.7832  0.4336 -1.4085
  164SAPE    HB18411   1.829   2.072   5.872  0.3823  0.3667 -0.1508
  164SAPE    C218412   1.800   1.998   6.092  0.5149 -0.4198  0.7061
  164SAPE    HS18413   1.707   1.972   6.146 -0.5567 -2.1253 -1.8548
  164SAPE   O2118414   1.856   2.120   6.145 -0.1388 -0.7556 -0.1224
  164SAPE   C2118415   1.817   2.155   6.270  0.3579 -0.8399 -0.4634
  164SAPE   O2218416   1.758   2.083   6.351  0.7360 -0.1126  0.1796
  164SAPE   C2218417   1.862   2.297   6.300  0.6310  0.3029  0.3138
  164SAPE   H2R18418   1.965   2.295   6.343  0.7347  1.6842  0.1523
  164SAPE   H2S18419   1.871   2.367   6.214  0.6197  2.3756  1.9699
  164SAPE    C318420   1.896   1.879   6.109 -0.9616  0.4321  0.3905
  164SAPE    HX18421   2.000   1.915   6.091 -0.4752 -1.1415 -0.0421
  164SAPE    HY18422   1.890   1.802   6.029  2.3291  0.0104  0.4599
  164SAPE   O3118423   1.886   1.825   6.243 -0.5891 -0.3277  0.0816
  164SAPE   C3118424   1.997   1.769   6.288  0.5650 -0.0240 -0.2788
  164SAPE   O3218425   2.097   1.747   6.221 -0.2298  0.1016  0.4155
  164SAPE   C3218426   1.988   1.739   6.441 -0.1310  0.5882 -0.3210
  164SAPE   H2X18427   2.005   1.629   6.442  1.7791  0.8685 -0.5334
  164SAPE   H2Y18428   1.888   1.750   6.488 -0.8420  2.7128 -2.2843
  164SAPE   C2318429   1.764   2.361   6.395  0.1787  0.6567 -0.2449
  164SAPE   H3R18430   1.765   2.307   6.493  2.8524 -1.2875 -1.2645
  164SAPE   H3S18431   1.657   2.361   6.366  0.1736  1.2765 -0.2206
  164SAPE   C2418432   1.806   2.510   6.430  0.3204 -0.0368  0.0408
  164SAPE   H4R18433   1.728   2.547   6.500 -0.3173  1.4611 -1.4527
  164SAPE   H4S18434   1.800   2.584   6.348  1.6609 -1.1573 -1.0935
  164SAPE   C2518435   1.933   2.533   6.505 -0.1394  0.8096 -0.6637
  164SAPE   H5R18436   2.025   2.525   6.444  0.6100  0.2565  0.5260
  164SAPE   C2618437   1.949   2.574   6.635  0.1816 -0.4426 -0.3308
  164SAPE   H6R18438   2.052   2.600   6.666 -0.3302 -0.6465  1.5548
  164SAPE   C2718439   1.844   2.595   6.747  0.1024 -1.2961  0.7276
  164SAPE   H7R18440   1.880   2.562   6.847  0.2458  1.3510  1.6041
  164SAPE   H7S18441   1.759   2.525   6.733 -1.0485  0.5163 -1.6732
  164SAPE   C2818442   1.775   2.732   6.739 -0.0352  0.3962 -0.5879
  164SAPE   H8R18443   1.732   2.759   6.642 -1.5194 -0.3444 -0.1562
  164SAPE   C2918444   1.795   2.830   6.831 -0.0993 -0.3064  0.0291
  164SAPE   H9R18445   1.753   2.929   6.811  2.3691  1.4211  3.0419
  164SAPE  C21018446   1.859   2.810   6.968 -0.1465  0.1404  0.3257
  164SAPE  H10R18447   1.967   2.806   6.944 -0.1994 -0.3469  0.1741
  164SAPE  H10S18448   1.844   2.717   7.026 -1.7079 -0.6291 -1.2577
  164SAPE  C21118449   1.845   2.931   7.058 -0.2263 -0.8302  0.3226
  164SAPE  H11R18450   1.808   3.023   7.011 -0.5515 -0.1097  1.9315
  164SAPE  C21218451   1.878   2.933   7.190 -0.1355  0.0489 -0.8323
  164SAPE  H12R18452   1.883   3.029   7.243 -2.4502 -1.2917  2.0127
  164SAPE  C21318453   1.930   2.816   7.272  0.2290  0.2579  0.2117
  164SAPE  H13R18454   1.860   2.732   7.286 -0.7374  1.2261  1.2156
  164SAPE  H13S18455   1.956   2.859   7.371  3.5147 -2.6345  0.7451
  164SAPE  C21418456   2.061   2.753   7.238 -0.0551 -0.5734 -0.1497
  164SAPE  H14R18457   2.098   2.759   7.135  2.0271 -2.9805  0.4247
  164SAPE  C21518458   2.145   2.691   7.318  0.0278 -0.4838  0.0616
  164SAPE  H15R18459   2.230   2.640   7.270 -0.6835 -1.4641 -0.1703
  164SAPE  C21618460   2.131   2.658   7.464 -0.2845  0.2953  0.2266
  164SAPE  H16R18461   2.150   2.551   7.487 -2.1255  0.2197  1.5101
  164SAPE  H16S18462   2.026   2.663   7.499 -0.2412  3.2267  0.0001
  164SAPE  C21718463   2.234   2.744   7.537  0.0018 -0.0043  0.2079
  164SAPE  H17R18464   2.339   2.740   7.499  0.1131  0.1844  0.4946
  164SAPE  H17S18465   2.234   2.724   7.646 -0.2812 -0.1510  0.1809
  164SAPE  C21818466   2.184   2.889   7.528  0.8093  0.2879  0.3723
  164SAPE  H18R18467   2.074   2.890   7.545  0.7469 -1.8816  0.1746
  164SAPE  H18S18468   2.195   2.935   7.427 -1.1850  0.3552  0.1599
  164SAPE  C21918469   2.255   2.979   7.635 -0.6741 -0.0356 -0.8157
  164SAPE  H19R18470   2.272   3.084   7.603  3.9064 -1.1031 -2.2805
  164SAPE  H19S18471   2.361   2.947   7.645 -0.0916  1.9839 -0.4096
  164SAPE  C22018472   2.191   2.963   7.769  0.1719 -0.7513 -0.5085
  164SAPE  H20R18473   2.205   2.861   7.811 -0.3099 -1.3561 -1.7991
  164SAPE  H20S18474   2.082   2.981   7.756  0.0760 -0.4519  0.6348
  164SAPE  H20T18475   2.242   3.027   7.844  1.3742 -3.4624  1.1019
  164SAPE   C3318476   2.094   1.827   6.511  0.0698 -0.2044  0.0608
  164SAPE   H3X18477   2.194   1.819   6.464  0.5078  2.8533  0.3614
  164SAPE   H3Y18478   2.098   1.776   6.610  1.0291 -0.0593  0.0988
  164SAPE   C3418479   2.058   1.973   6.534 -0.0976  0.4872 -0.0270
  164SAPE   H4X18480   1.950   1.996   6.542  0.6063  3.2062  2.1921
  164SAPE   H4Y18481   2.105   2.035   6.455 -0.0480  1.7442  0.9841
  164SAPE   C3518482   2.120   2.027   6.662 -0.6932  0.8683 -0.3222
  164SAPE   H5X18483   2.224   1.990   6.673 -1.0425  0.2663  1.0006
  164SAPE   H5Y18484   2.075   1.989   6.756  1.6823 -1.1498  0.0433
  164SAPE   C3618485   2.115   2.181   6.663  0.4906 -0.6388 -0.1737
  164SAPE   H6X18486   2.013   2.224   6.655  0.4143 -1.3326 -3.2555
  164SAPE   H6Y18487   2.177   2.217   6.579  0.1976 -0.5764 -0.3614
  164SAPE   C3718488   2.192   2.247   6.778  0.1646 -0.5927  0.8980
  164SAPE   H7X18489   2.196   2.354   6.748 -0.4468 -0.5821  0.8447
  164SAPE   H7Y18490   2.293   2.200   6.777 -0.1801 -1.3272 -0.3901
  164SAPE   C3818491   2.125   2.241   6.913  0.3447 -0.0447 -0.6281
  164SAPE   H8X18492   2.205   2.266   6.987  0.2789  2.6469 -1.4060
  164SAPE   H8Y18493   2.079   2.141   6.928  0.8682 -0.4557 -1.6996
  164SAPE   C3918494   2.003   2.338   6.934  0.0702 -0.0237 -0.6156
  164SAPE   H9X18495   1.933   2.332   6.848 -1.2543 -2.5328  0.6150
  164SAPE   H9Y18496   2.043   2.442   6.934  1.5768 -0.5870 -1.4103
  164SAPE  C31018497   1.925   2.313   7.060  0.3260 -0.0771  0.8773
  164SAPE  H10X18498   1.996   2.312   7.145  2.2863  2.1988 -0.6774
  164SAPE  H10Y18499   1.874   2.214   7.056 -1.0735  0.6406  0.5596
  164SAPE  C31118500   1.816   2.414   7.088  0.0400  0.5106  0.4927
  164SAPE  H11X18501   1.738   2.426   7.010  1.9722  0.8687 -1.4148
  164SAPE  H11Y18502   1.859   2.515   7.104  0.7979  0.2983 -0.1698
  164SAPE  C31218503   1.746   2.398   7.222 -0.5436 -0.2925  0.2046
  164SAPE  H12X18504   1.670   2.318   7.221 -1.8150  0.8944  0.5054
  164SAPE  H12Y18505   1.686   2.490   7.236  1.0807  0.6275  1.3496
  164SAPE  C31318506   1.831   2.376   7.349  0.1334 -0.4610 -0.2972
  164SAPE  H13X18507   1.917   2.446   7.340 -0.1739 -0.0242  0.0863
  164SAPE  H13Y18508   1.867   2.272   7.363  1.1794 -0.0644  0.0263
  164SAPE  C31418509   1.743   2.404   7.465  0.3293  0.6823 -0.9823
  164SAPE  H14X18510   1.660   2.330   7.467 -0.5928  1.7158 -0.0056
  164SAPE  H14Y18511   1.679   2.495   7.456 -3.2315 -1.6740 -0.3950
  164SAPE  C31518512   1.822   2.416   7.601  0.1430 -0.1774  0.0417
  164SAPE  H15X18513   1.897   2.497   7.590 -0.4258  0.4446  0.6676
  164SAPE  H15Y18514   1.870   2.317   7.616 -2.1819 -1.7063 -2.1756
  164SAPE  C31618515   1.745   2.446   7.730  0.1010 -0.3804  0.3683
  164SAPE  H16X18516   1.668   2.366   7.743  0.9178 -1.2324  0.0089
  164SAPE  H16Y18517   1.684   2.537   7.712  0.6553 -0.3071 -1.2225
  164SAPE  C31718518   1.834   2.459   7.855 -0.4079 -0.4776  0.8685
  164SAPE  H17X18519   1.916   2.532   7.838  0.0049 -0.6080  2.2747
  164SAPE  H17Y18520   1.887   2.364   7.878 -0.1344 -0.3049  0.9535
  164SAPE  C31818521   1.772   2.502   7.985  0.1205 -0.1929 -0.0769
  164SAPE  H18X18522   1.694   2.577   7.958 -0.7739 -0.5155  1.5269
  164SAPE  H18Y18523   1.847   2.548   8.053 -0.8322  1.6509 -0.2325
  164SAPE  H18Z18524   1.718   2.419   8.036 -1.1495  0.4325 -0.4037
  165SAPE     N18525   1.336   5.104   6.458 -0.3608  0.6277 -0.2062
  165SAPE   HN118526   1.440   5.109   6.461 -0.3990  1.2303  0.0874
  165SAPE   HN218527   1.300   5.198   6.482  2.5462  2.1628 -1.5390
  165SAPE   HN318528   1.305   5.031   6.525  3.6198 -2.4746 -1.4866
  165SAPE   C1218529   1.312   5.062   6.317  0.6840  0.1855  0.0555
  165SAPE  H12A18530   1.204   5.049   6.298  0.2516  0.1022  2.4269
  165SAPE  H12B18531   1.357   4.963   6.291 -0.0190 -0.3285  0.7758
  165SAPE   C1118532   1.375   5.176   6.230 -0.4162  0.2978  0.5493
  165SAPE  H11A18533   1.359   5.151   6.123  1.7339 -0.4637  0.3796
  165SAPE  H11B18534   1.485   5.163   6.241 -0.0149  1.4104 -1.7904
  165SAPE     P18535   1.191   5.361   6.261  0.2246 -0.0656  0.1116
  165SAPE   O1318536   1.195   5.507   6.241 -0.1017 -0.2372  0.3749
  165SAPE   O1418537   1.110   5.283   6.167  0.5220  0.4454  0.1000
  165SAPE   O1218538   1.342   5.312   6.257 -0.3793  0.2920  0.0639
  165SAPE   O1118539   1.147   5.327   6.414  0.6035  0.3768  0.4634
  165SAPE    C118540   1.198   5.413   6.513 -0.6807 -0.3384 -0.5139
  165SAPE    HA18541   1.308   5.423   6.498 -1.0033  4.5048 -0.3313
  165SAPE    HB18542   1.149   5.510   6.493  0.5034  0.4041  0.1256
  165SAPE    C218543   1.167   5.367   6.659 -0.1570 -0.5854  0.0430
  165SAPE    HS18544   1.180   5.454   6.726 -0.0108  1.0783 -2.0878
  165SAPE   O2118545   1.261   5.260   6.688 -0.4316 -0.8086 -0.7231
  165SAPE   C2118546   1.302   5.243   6.813  0.5960 -0.1004 -0.1068
  165SAPE   O2218547   1.274   5.320   6.904 -0.1791 -0.2425 -0.0311
  165SAPE   C2218548   1.387   5.114   6.831 -0.8080 -0.1286  0.0543
  165SAPE   H2R18549   1.334   5.030   6.781 -1.8372  0.5214  0.0368
  165SAPE   H2S18550   1.476   5.134   6.767 -0.8229  0.5565  0.2370
  165SAPE    C318551   1.013   5.327   6.673 -0.3520  0.1427 -0.1183
  165SAPE    HX18552   1.002   5.245   6.599  0.1982  2.4033 -2.7900
  165SAPE    HY18553   0.954   5.412   6.635 -1.1269  0.6133  2.0860
  165SAPE   O3118554   0.973   5.279   6.803 -0.1771 -0.0128 -0.0040
  165SAPE   C3118555   0.940   5.375   6.883 -0.6172 -0.1550  0.3104
  165SAPE   O3218556   0.947   5.495   6.861 -0.8071 -0.1230 -0.5396
  165SAPE   C3218557   0.907   5.319   7.014 -0.1789  0.8299 -0.4517
  165SAPE   H2X18558   0.954   5.219   7.016  1.2193  1.3818 -3.2297
  165SAPE   H2Y18559   0.797   5.305   7.029  0.1663 -1.0453  0.4138
  165SAPE   C2318560   1.424   5.081   6.982  0.8805  0.0048  0.1226
  165SAPE   H3R18561   1.444   5.179   7.031  1.9225  1.1590 -2.4802
  165SAPE   H3S18562   1.519   5.023   6.986  1.5483  1.0783 -0.0211
  165SAPE   C2418563   1.321   4.992   7.057  0.5594 -0.2971 -0.1488
  165SAPE   H4R18564   1.218   5.029   7.043  0.1341 -0.8404  1.4782
  165SAPE   H4S18565   1.347   5.009   7.164 -0.3027 -1.3625  0.2293
  165SAPE   C2518566   1.321   4.847   7.017  0.7619  0.0278  0.1435
  165SAPE   H5R18567   1.329   4.826   6.909  0.6424  0.6321  0.0125
  165SAPE   C2618568   1.331   4.742   7.102  0.2245  0.3681  0.1330
  165SAPE   H6R18569   1.328   4.641   7.059 -2.5672  0.2547  0.4511
  165SAPE   C2718570   1.339   4.758   7.254  0.3357  0.7981  0.4867
  165SAPE   H7R18571   1.419   4.827   7.288  2.0486 -1.0681  0.3734
  165SAPE   H7S18572   1.364   4.660   7.299 -1.7606  0.2071  0.4421
  165SAPE   C2818573   1.210   4.782   7.324 -0.2925 -0.0401 -0.3212
  165SAPE   H8R18574   1.131   4.838   7.273  1.4014  2.1814 -0.5973
  165SAPE   C2918575   1.209   4.801   7.456 -0.0503  0.5881  0.1146
  165SAPE   H9R18576   1.111   4.809   7.503 -0.4649 -3.6877  0.1636
  165SAPE  C21018577   1.327   4.798   7.548 -0.3033 -0.3189  1.0451
  165SAPE  H10R18578   1.419   4.758   7.499 -0.1664 -0.2817  1.2762
  165SAPE  H10S18579   1.309   4.719   7.624 -0.1006 -2.3375 -0.9252
  165SAPE  C21118580   1.343   4.935   7.607 -0.4717  0.3404  0.1857
  165SAPE  H11R18581   1.384   5.006   7.534 -1.0015 -1.2994 -1.7551
  165SAPE  C21218582   1.310   4.983   7.724 -0.2566 -0.1457  0.5686
  165SAPE  H12R18583   1.343   5.086   7.747 -1.0338  0.3719 -0.5882
  165SAPE  C21318584   1.236   4.916   7.836 -0.0870 -0.0634 -0.0393
  165SAPE  H13R18585   1.295   4.896   7.928 -0.6707 -0.0113  0.3500
  165SAPE  H13S18586   1.199   4.817   7.802 -1.5730  0.7723 -0.9076
  165SAPE  C21418587   1.105   4.988   7.859 -0.2145  0.0754  0.0048
  165SAPE  H14R18588   1.041   5.001   7.770  0.5202  1.9324 -0.2755
  165SAPE  C21518589   1.048   5.021   7.978  0.6563 -0.3416 -0.2071
  165SAPE  H15R18590   0.943   5.053   7.972  1.6586  3.0192 -0.7830
  165SAPE  C21618591   1.102   5.009   8.119  0.1400  0.2750  0.5591
  165SAPE  H16R18592   1.079   5.100   8.178 -1.3917  1.6535 -2.0466
  165SAPE  H16S18593   1.211   4.989   8.114 -0.1480 -1.3051  0.3080
  165SAPE  C21718594   1.021   4.901   8.193 -0.8655 -0.0247 -0.2062
  165SAPE  H17R18595   1.075   4.853   8.277  0.1840  2.0239  0.3214
  165SAPE  H17S18596   1.000   4.822   8.118  0.8249 -0.0470 -0.6636
  165SAPE  C21818597   0.887   4.962   8.240  0.0323  0.3343 -0.7616
  165SAPE  H18R18598   0.820   4.874   8.254  2.3619 -0.9496  3.1386
  165SAPE  H18S18599   0.839   5.036   8.172 -0.6396  0.0366 -0.6208
  165SAPE  C21918600   0.894   5.031   8.371  0.1921 -0.0408  0.1046
  165SAPE  H19R18601   0.925   5.138   8.362 -0.9916  0.6434  3.3248
  165SAPE  H19S18602   0.968   4.986   8.441  2.7641  1.9772 -1.2326
  165SAPE  C22018603   0.753   5.028   8.433  0.3103 -0.1143  0.1174
  165SAPE  H20R18604   0.680   5.083   8.371  1.3573  2.9988  1.5192
  165SAPE  H20S18605   0.741   5.072   8.534 -0.4524  0.8291 -0.3801
  165SAPE  H20T18606   0.728   4.920   8.444  0.1700 -0.1213 -0.2571
  165SAPE   C3318607   0.959   5.403   7.131 -0.9327 -0.6030  0.1027
  165SAPE   H3X18608   0.930   5.510   7.129  0.9866 -0.0742 -0.7701
  165SAPE   H3Y18609   1.070   5.400   7.129 -0.9575 -2.8487  0.7401
  165SAPE   C3418610   0.926   5.339   7.262 -0.5109 -0.4630  0.0432
  165SAPE   H4X18611   0.940   5.229   7.258  1.9923 -0.2166  1.1177
  165SAPE   H4Y18612   0.817   5.356   7.274 -0.2226  0.5302  1.3302
  165SAPE   C3518613   0.993   5.398   7.391  0.0743 -0.5826  0.6152
  165SAPE   H5X18614   0.932   5.356   7.474 -0.3715  0.0755  0.6219
  165SAPE   H5Y18615   0.983   5.509   7.393 -1.6269 -0.7369  1.7307
  165SAPE   C3618616   1.138   5.356   7.406  0.7129  0.0773  0.4839
  165SAPE   H6X18617   1.208   5.418   7.347 -0.5022  0.0605 -0.9959
  165SAPE   H6Y18618   1.132   5.251   7.370 -3.1883  0.2551  0.3846
  165SAPE   C3718619   1.171   5.333   7.551  0.4864 -0.3429  0.5268
  165SAPE   H7X18620   1.263   5.273   7.567  1.6794  1.8647  2.3096
  165SAPE   H7Y18621   1.091   5.286   7.611  1.7347  0.7517  3.1324
  165SAPE   C3818622   1.200   5.462   7.632  0.0166  0.5070 -1.0715
  165SAPE   H8X18623   1.111   5.528   7.641 -2.2060 -2.5569 -0.0749
  165SAPE   H8Y18624   1.286   5.520   7.592 -0.2824  0.3416 -1.9593
  165SAPE   C3918625   1.236   5.433   7.778 -0.1278 -0.1630 -0.0224
  165SAPE   H9X18626   1.329   5.372   7.770  0.4217  0.5674  0.6794
  165SAPE   H9Y18627   1.155   5.376   7.828 -0.5900  0.9063  0.4579
  165SAPE  C31018628   1.272   5.562   7.853 -0.2904  0.2401 -0.2122
  165SAPE  H10X18629   1.191   5.638   7.858  0.1394  0.6102  1.4492
  165SAPE  H10Y18630   1.339   5.618   7.784 -0.1663  0.8123  0.3642
  165SAPE  C31118631   1.335   5.534   7.987 -0.4705 -0.3363  0.5743
  165SAPE  H11X18632   1.434   5.485   7.974 -0.3416  0.3169 -1.0324
  165SAPE  H11Y18633   1.272   5.465   8.047 -0.7963 -0.8202 -0.3133
  165SAPE  C31218634   1.355   5.664   8.074 -0.1216 -0.1824  0.7778
  165SAPE  H12X18635   1.258   5.703   8.113 -1.0700 -0.4892 -1.1778
  165SAPE  H12Y18636   1.401   5.730   7.997  0.0807 -0.1317  0.9404
  165SAPE  C31318637   1.446   5.655   8.192 -0.2014  0.4225  0.1594
  165SAPE  H13X18638   1.531   5.589   8.165  0.6902  1.4220  0.4417
  165SAPE  H13Y18639   1.380   5.604   8.265 -2.9530  1.2319 -1.6937
  165SAPE  C31418640   1.479   5.785   8.259  0.1420  0.9785 -0.4617
  165SAPE  H14X18641   1.381   5.831   8.281 -0.5575 -1.1271  1.0697
  165SAPE  H14Y18642   1.522   5.851   8.181 -1.5950  1.2674 -1.1983
  165SAPE  C31518643   1.567   5.769   8.387 -0.4716  0.2102  0.1831
  165SAPE  H15X18644   1.509   5.709   8.460 -1.3614  0.4203 -0.3443
  165SAPE  H15Y18645   1.586   5.869   8.432  1.6190  0.7058 -1.6819
  165SAPE  C31618646   1.718   5.731   8.368  0.2773  0.1661 -0.2714
  165SAPE  H16X18647   1.768   5.812   8.310 -3.7105  3.2632  0.3992
  165SAPE  H16Y18648   1.716   5.633   8.315 -1.1927  1.6357 -3.0768
  165SAPE  C31718649   1.789   5.728   8.505  0.3247  0.4626 -0.2740
  165SAPE  H17X18650   1.712   5.691   8.575 -0.3563  0.9174 -0.7730
  165SAPE  H17Y18651   1.813   5.835   8.527  1.5658  0.1027  0.1636
  165SAPE  C31818652   1.912   5.631   8.510 -0.3227 -0.2666 -0.3058
  165SAPE  H18X18653   1.877   5.526   8.497  3.1438 -1.6696  0.8177
  165SAPE  H18Y18654   1.979   5.639   8.599  0.2752 -1.2952 -0.6474
  165SAPE  H18Z18655   1.969   5.642   8.415  1.0182  1.0942  0.6224
  166SAPE     N18656   0.769   2.306   5.793  0.4786  0.5617 -0.1180
  166SAPE   HN118657   0.839   2.275   5.723 -0.6238 -0.3878 -0.8275
  166SAPE   HN218658   0.710   2.221   5.808  0.1516  0.8474  0.2351
  166SAPE   HN318659   0.713   2.382   5.749 -1.5982  0.6930  2.6103
  166SAPE   C1218660   0.831   2.348   5.924 -0.2848 -0.1679  0.3748
  166SAPE  H12A18661   0.765   2.409   5.989 -2.1346 -0.1995 -1.4347
  166SAPE  H12B18662   0.918   2.410   5.893 -1.6861  2.4786  1.6414
  166SAPE   C1118663   0.897   2.229   6.003 -0.3434  0.8313 -0.3174
  166SAPE  H11A18664   0.812   2.176   6.051  0.5695 -1.4785 -1.1484
  166SAPE  H11B18665   0.957   2.265   6.089 -0.2128 -1.2667  0.4976
  166SAPE     P18666   1.040   2.012   5.972  0.1011  0.2695 -0.3030
  166SAPE   O1318667   0.942   1.906   5.981 -0.5302  0.1352 -0.0902
  166SAPE   O1418668   1.154   1.983   5.883  0.6825  0.4800  0.2931
  166SAPE   O1218669   0.969   2.143   5.912  0.2077  0.4972 -0.0099
  166SAPE   O1118670   1.087   2.052   6.114  0.3482 -0.1005  0.0845
  166SAPE    C118671   1.210   2.112   6.139  0.3593 -0.3746  0.1532
  166SAPE    HA18672   1.289   2.084   6.066  1.3665  2.8863 -0.0630
  166SAPE    HB18673   1.209   2.222   6.152  0.4874 -0.3046 -0.4341
  166SAPE    C218674   1.261   2.054   6.281 -0.1724  0.0464  0.3886
  166SAPE    HS18675   1.229   1.948   6.284 -1.5684  0.4259 -0.4374
  166SAPE   O2118676   1.196   2.130   6.388  0.1025 -0.0907 -0.0948
  166SAPE   C2118677   1.134   2.055   6.477  0.3064  0.1494 -0.8052
  166SAPE   O2218678   1.127   1.934   6.491  0.1965 -0.0285  0.3154
  166SAPE   C2218679   1.059   2.149   6.574  0.0202  0.0145 -0.0436
  166SAPE   H2R18680   1.096   2.254   6.575  1.2958 -0.4339  1.7262
  166SAPE   H2S18681   0.960   2.171   6.528  0.3086  0.8583 -0.2740
  166SAPE    C318682   1.411   2.059   6.294  0.5447 -0.0475 -0.2678
  166SAPE    HX18683   1.446   2.163   6.275 -1.3720  0.8892  1.0840
  166SAPE    HY18684   1.453   1.988   6.219  0.3734 -0.8410  0.3780
  166SAPE   O3118685   1.469   1.999   6.418  0.2257  0.1323  0.6302
  166SAPE   C3118686   1.502   2.089   6.507  0.3550 -0.6125 -0.3017
  166SAPE   O3218687   1.473   2.209   6.500 -0.4062 -0.0918 -0.4393
  166SAPE   C3218688   1.567   2.027   6.628 -0.1717 -0.4697 -0.3496
  166SAPE   H2X18689   1.604   1.927   6.598  1.0402 -0.3620  0.7444
  166SAPE   H2Y18690   1.482   2.008   6.697 -0.8379  0.7833 -0.8019
  166SAPE   C2318691   1.043   2.098   6.720  0.4873 -0.4019 -0.4391
  166SAPE   H3R18692   0.992   2.000   6.709 -0.6103 -0.1143  1.7747
  166SAPE   H3S18693   0.979   2.167   6.779  2.0279  1.5066 -0.9759
  166SAPE   C2418694   1.182   2.074   6.790 -0.5799  0.4274 -0.6838
  166SAPE   H4R18695   1.233   1.984   6.750 -1.9722 -0.5679 -0.2792
  166SAPE   H4S18696   1.161   2.054   6.898  0.7670  1.8764 -0.1373
  166SAPE   C2518697   1.276   2.191   6.793  0.2816 -0.0434  0.9418
  166SAPE   H5R18698   1.337   2.202   6.702 -0.1108  1.8928  0.8908
  166SAPE   C2618699   1.284   2.289   6.880 -0.0075 -0.0450  0.6044
  166SAPE   H6R18700   1.357   2.368   6.858 -0.8869  0.7814  0.5999
  166SAPE   C2718701   1.202   2.302   7.012  0.3262  0.1897 -0.1541
  166SAPE   H7R18702   1.114   2.234   7.019 -1.0108  2.0298  1.5066
  166SAPE   H7S18703   1.150   2.399   7.026 -2.0034 -0.8970 -0.8712
  166SAPE   C2818704   1.293   2.265   7.124 -0.9071  0.3487 -0.4906
  166SAPE   H8R18705   1.386   2.216   7.091 -0.0144  0.9005  1.1678
  166SAPE   C2918706   1.277   2.303   7.257  0.1998 -0.8755 -0.2059
  166SAPE   H9R18707   1.357   2.285   7.329  2.3955  0.2405 -2.2962
  166SAPE  C21018708   1.152   2.379   7.319  0.0445 -0.0440  0.6812
  166SAPE  H10R18709   1.106   2.450   7.248 -2.3045  0.5051  2.6996
  166SAPE  H10S18710   1.177   2.452   7.398 -1.1774  2.1595 -0.9337
  166SAPE  C21118711   1.055   2.280   7.374  0.2702 -0.0699 -0.4675
  166SAPE  H11R18712   0.980   2.244   7.302  0.8058  0.3545 -1.2406
  166SAPE  C21218713   1.039   2.229   7.499 -0.5805  0.2253 -0.3090
  166SAPE  H12R18714   0.955   2.159   7.512 -2.0146  2.0799  0.6407
  166SAPE  C21318715   1.117   2.253   7.623  0.3656  0.3182 -0.5273
  166SAPE  H13R18716   1.063   2.205   7.707  3.4504 -1.1953  0.6926
  166SAPE  H13S18717   1.116   2.363   7.634 -0.5296  0.3510 -0.8933
  166SAPE  C21418718   1.263   2.212   7.634  0.0621 -1.2479  0.5607
  166SAPE  H14R18719   1.301   2.166   7.542  2.2729  1.3833  0.0682
  166SAPE  C21518720   1.350   2.239   7.740 -0.2851 -0.0814  0.0601
  166SAPE  H15R18721   1.455   2.207   7.727 -0.7249 -1.8083  0.6932
  166SAPE  C21618722   1.323   2.308   7.875  0.0838  0.1111 -0.4197
  166SAPE  H16R18723   1.244   2.383   7.853  0.8119  1.0770  0.1910
  166SAPE  H16S18724   1.415   2.359   7.911  0.6125 -1.0300 -0.1363
  166SAPE  C21718725   1.303   2.214   7.987 -0.5988  0.6450  0.0517
  166SAPE  H17R18726   1.223   2.138   7.975 -0.8706  0.8834  0.3602
  166SAPE  H17S18727   1.279   2.269   8.080 -0.6778 -0.9953  1.0378
  166SAPE  C21818728   1.427   2.127   8.018 -0.6901  0.6643  0.7564
  166SAPE  H18R18729   1.506   2.195   8.056  0.5590  2.8877 -5.2084
  166SAPE  H18S18730   1.467   2.076   7.928  1.1316  0.3604  1.7161
  166SAPE  C21918731   1.395   2.020   8.125 -0.0471 -0.2237 -0.3705
  166SAPE  H19R18732   1.315   1.956   8.081  0.8196 -1.0806 -0.7051
  166SAPE  H19S18733   1.351   2.073   8.213  0.6774 -0.8477  0.3780
  166SAPE  C22018734   1.518   1.948   8.176  0.1499 -0.1218  0.0095
  166SAPE  H20R18735   1.492   1.860   8.238  0.0943 -2.1163 -2.7837
  166SAPE  H20S18736   1.579   2.016   8.239  2.0709 -0.7095 -1.1814
  166SAPE  H20T18737   1.574   1.910   8.088 -0.5000 -1.2667  0.0890
  166SAPE   C3318738   1.668   2.124   6.693 -0.4644  0.6430 -0.7881
  166SAPE   H3X18739   1.634   2.228   6.712 -1.1027  0.1670  0.7220
  166SAPE   H3Y18740   1.752   2.129   6.620 -1.0025  0.7969 -1.4024
  166SAPE   C3418741   1.715   2.065   6.824 -0.2700 -0.0901  0.6016
  166SAPE   H4X18742   1.789   2.133   6.871 -0.3487 -1.7244  3.1709
  166SAPE   H4Y18743   1.767   1.969   6.801  1.8991  1.5785 -1.8403
  166SAPE   C3518744   1.612   2.026   6.932  0.0619 -0.0322  0.4182
  166SAPE   H5X18745   1.571   1.926   6.905 -2.7676  1.6218 -1.5559
  166SAPE   H5Y18746   1.532   2.103   6.929 -0.5181 -0.5228  2.3653
  166SAPE   C3618747   1.673   2.036   7.068 -0.1150 -0.2847 -0.0210
  166SAPE   H6X18748   1.684   2.143   7.097  0.5783 -0.2540 -0.3706
  166SAPE   H6Y18749   1.771   1.983   7.067  1.1635  2.0101 -0.3067
  166SAPE   C3718750   1.586   1.975   7.177  0.5471 -0.1990  0.1350
  166SAPE   H7X18751   1.592   1.867   7.152  1.8663 -0.0882 -0.0226
  166SAPE   H7Y18752   1.483   2.018   7.172  0.8727  0.7870  1.6542
  166SAPE   C3818753   1.634   2.011   7.317  0.1820 -0.3882 -0.5119
  166SAPE   H8X18754   1.624   2.121   7.322  2.1071 -0.2087 -0.1539
  166SAPE   H8Y18755   1.743   1.993   7.326  0.3269  0.1854 -1.0937
  166SAPE   C3918756   1.563   1.939   7.433 -0.9857 -0.2719 -0.2434
  166SAPE   H9X18757   1.563   1.833   7.401 -2.5592 -0.7023  1.1382
  166SAPE   H9Y18758   1.452   1.953   7.429 -1.0615 -0.9212 -0.3900
  166SAPE  C31018759   1.619   1.986   7.561  0.4075 -0.3626 -0.2990
  166SAPE  H10X18760   1.551   1.962   7.645 -0.3643 -0.5333 -0.9634
  166SAPE  H10Y18761   1.651   2.092   7.567 -2.5105  0.5522 -0.2365
  166SAPE  C31118762   1.739   1.896   7.606 -0.0621 -0.0589 -0.2539
  166SAPE  H11X18763   1.822   1.917   7.535  0.1242  1.9457  0.5069
  166SAPE  H11Y18764   1.715   1.788   7.603  0.2894 -0.1155 -1.1286
  166SAPE  C31218765   1.798   1.940   7.741  0.4075 -0.5102  0.4015
  166SAPE  H12X18766   1.754   2.037   7.773 -0.4230 -0.6800 -0.2287
  166SAPE  H12Y18767   1.909   1.948   7.734  0.3103  0.7207  0.0980
  166SAPE  C31318768   1.768   1.846   7.860  0.0129  0.3211 -0.0825
  166SAPE  H13X18769   1.808   1.744   7.840 -2.4588 -0.2589 -2.4205
  166SAPE  H13Y18770   1.658   1.834   7.873 -0.0456  0.1208 -0.7522
  166SAPE  C31418771   1.841   1.892   7.984  0.1349 -0.1450  0.0967
  166SAPE  H14X18772   1.781   1.978   8.022  1.5412  0.9915 -0.1866
  166SAPE  H14Y18773   1.944   1.921   7.956 -0.8045  1.4059 -1.8486
  166SAPE  C31518774   1.840   1.794   8.102 -0.2673 -0.3989  0.0616
  166SAPE  H15X18775   1.907   1.708   8.081 -0.1133 -0.1801 -0.3482
  166SAPE  H15Y18776   1.739   1.749   8.108  0.0964 -1.1970  0.2329
  166SAPE  C31618777   1.873   1.846   8.239  0.4184  0.3021  0.2896
  166SAPE  H16X18778   1.845   1.762   8.305 -0.2631  0.3655  0.0794
  166SAPE  H16Y18779   1.808   1.934   8.259  2.0147  0.9122  2.9636
  166SAPE  C31718780   2.024   1.884   8.262  0.2159  0.3618 -0.3735
  166SAPE  H17X18781   2.023   1.920   8.368 -1.2481 -1.2677  0.1854
  166SAPE  H17Y18782   2.061   1.960   8.191 -2.5144 -0.0163 -2.2921
  166SAPE  C31818783   2.122   1.767   8.265  0.6865 -0.2139  0.0516
  166SAPE  H18X18784   2.221   1.807   8.295  1.2638 -1.3585 -0.2903
  166SAPE  H18Y18785   2.136   1.734   8.160 -2.0180  2.1686 -1.1293
  166SAPE  H18Z18786   2.095   1.685   8.335 -1.0580  1.3384  1.2480
  167SAPE     N18787   1.355   0.941   6.272  1.1834 -0.2866 -0.3797
  167SAPE   HN118788   1.282   1.014   6.258  1.1960 -0.5775 -2.1444
  167SAPE   HN218789   1.317   0.848   6.298 -2.6107  0.5382 -2.5362
  167SAPE   HN318790   1.410   0.982   6.350  0.1926  0.6934 -0.1840
  167SAPE   C1218791   1.456   0.916   6.167  0.3304  0.0578 -0.3287
  167SAPE  H12A18792   1.508   1.011   6.145 -1.2968  0.7413 -1.3736
  167SAPE  H12B18793   1.410   0.882   6.072  1.4186  1.6375 -1.4315
  167SAPE   C1118794   1.565   0.819   6.217  0.0799  0.1443 -0.5769
  167SAPE  H11A18795   1.600   0.850   6.318 -0.7890  0.0361 -0.2371
  167SAPE  H11B18796   1.650   0.833   6.147  0.8174 -1.3082  0.0121
  167SAPE     P18797   1.560   0.570   6.116 -0.0240 -0.2242  0.1584
  167SAPE   O1318798   1.461   0.459   6.129  0.8596  0.3227 -0.5728
  167SAPE   O1418799   1.576   0.629   5.982 -0.3652 -0.2613  0.5609
  167SAPE   O1218800   1.525   0.685   6.217 -0.0385 -0.3836  0.5230
  167SAPE   O1118801   1.706   0.521   6.171 -0.5608  1.0100 -0.2454
  167SAPE    C118802   1.718   0.446   6.291 -0.0379 -0.4771 -0.3033
  167SAPE    HA18803   1.648   0.360   6.286  0.1982 -0.6941  0.1926
  167SAPE    HB18804   1.818   0.398   6.286  0.5531  0.5838  1.1746
  167SAPE    C218805   1.705   0.516   6.430 -0.6943  0.5554 -0.2285
  167SAPE    HS18806   1.606   0.566   6.431 -2.2762 -2.4632 -1.2325
  167SAPE   O2118807   1.821   0.604   6.450  0.1434 -0.9457 -0.3431
  167SAPE   C2118808   1.801   0.706   6.534  0.3469  0.3519 -0.4410
  167SAPE   O2218809   1.694   0.730   6.587 -0.1976 -0.0548 -0.4504
  167SAPE   C2218810   1.919   0.794   6.547 -0.3913 -0.0280 -0.7033
  167SAPE   H2R18811   1.979   0.780   6.454  1.2659  0.8340  0.2071
  167SAPE   H2S18812   1.883   0.898   6.557 -2.0441 -0.5941 -0.5216
  167SAPE    C318813   1.709   0.407   6.543 -0.6724  0.6686  0.5807
  167SAPE    HX18814   1.799   0.341   6.542 -2.2974 -1.6432  2.7843
  167SAPE    HY18815   1.624   0.344   6.510  0.9611 -0.6656 -1.1897
  167SAPE   O3118816   1.682   0.468   6.675  0.6981  0.3012 -0.3374
  167SAPE   C3118817   1.770   0.480   6.772 -0.3574  0.4792 -0.3832
  167SAPE   O3218818   1.886   0.443   6.764  0.1452 -0.0449  0.3547
  167SAPE   C3218819   1.719   0.566   6.887 -0.6263  0.2633  0.0574
  167SAPE   H2X18820   1.618   0.526   6.910 -0.3464  0.1912  1.2015
  167SAPE   H2Y18821   1.701   0.671   6.855  1.9197  0.7648  0.1810
  167SAPE   C2318822   2.013   0.767   6.669 -0.0366  0.3442  0.2997
  167SAPE   H3R18823   2.036   0.658   6.670 -1.5403 -0.0007  2.0536
  167SAPE   H3S18824   1.972   0.794   6.769  0.9809 -0.7876  1.0327
  167SAPE   C2418825   2.152   0.836   6.653 -0.0644 -0.3270  0.2994
  167SAPE   H4R18826   2.198   0.805   6.557  0.5376  0.4756  0.3189
  167SAPE   H4S18827   2.216   0.783   6.726 -0.2296  0.1159  0.7688
  167SAPE   C2518828   2.135   0.988   6.674  0.9999  0.3142  0.0955
  167SAPE   H5R18829   2.121   1.055   6.588 -3.1830  0.0338  0.4855
  167SAPE   C2618830   2.149   1.040   6.796 -0.4186 -0.8616 -0.6938
  167SAPE   H6R18831   2.155   1.150   6.804  0.8854 -1.0286  1.0077
  167SAPE   C2718832   2.180   0.976   6.925  0.1349 -0.1595  0.5437
  167SAPE   H7R18833   2.252   1.053   6.963  1.0816  0.2834 -2.0711
  167SAPE   H7S18834   2.245   0.887   6.915  0.9573  0.6765 -1.9894
  167SAPE   C2818835   2.059   0.962   7.007  0.2290 -0.0477 -0.2510
  167SAPE   H8R18836   1.959   0.950   6.963  0.6169 -1.3376 -0.8258
  167SAPE   C2918837   2.065   0.950   7.139 -0.7697  0.0525 -0.4477
  167SAPE   H9R18838   1.972   0.958   7.198 -0.6138  0.7371 -0.2904
  167SAPE  C21018839   2.187   0.966   7.220 -0.2426  0.3168  0.3163
  167SAPE  H10R18840   2.263   1.025   7.165 -0.1965 -1.1043 -1.1747
  167SAPE  H10S18841   2.223   0.863   7.239 -0.6500 -0.4994 -3.0184
  167SAPE  C21118842   2.156   1.052   7.343 -1.4720  0.0646 -1.0159
  167SAPE  H11R18843   2.088   1.138   7.338  0.4258  1.5563 -1.5981
  167SAPE  C21218844   2.206   1.026   7.465  0.0468  1.1353 -0.6147
  167SAPE  H12R18845   2.177   1.096   7.544  0.7588 -0.7393  1.3615
  167SAPE  C21318846   2.292   0.921   7.521 -0.1176 -0.3060  0.0685
  167SAPE  H13R18847   2.396   0.957   7.537 -0.5002  1.0791 -0.4647
  167SAPE  H13S18848   2.307   0.838   7.449  0.9194  0.0686 -0.1596
  167SAPE  C21418849   2.233   0.867   7.646  0.1831  0.7477 -0.0068
  167SAPE  H14R18850   2.175   0.774   7.640 -0.3764  0.9524  2.0128
  167SAPE  C21518851   2.259   0.917   7.768  0.0619 -0.7359  0.5052
  167SAPE  H15R18852   2.216   0.876   7.860 -0.8256  0.3734  0.5853
  167SAPE  C21618853   2.347   1.037   7.791  0.6177 -0.5033 -0.1765
  167SAPE  H16R18854   2.284   1.127   7.771 -0.6638 -1.4542 -0.4786
  167SAPE  H16S18855   2.435   1.049   7.724  1.6505 -1.4511  0.9800
  167SAPE  C21718856   2.388   1.040   7.943  0.5715 -0.1074  0.6051
  167SAPE  H17R18857   2.459   0.955   7.947  1.7508  0.8450 -0.0063
  167SAPE  H17S18858   2.295   1.044   8.005  0.2849  0.0444  0.1665
  167SAPE  C21818859   2.465   1.166   7.973 -0.6984 -0.1341 -1.0993
  167SAPE  H18R18860   2.394   1.241   7.932 -2.2459 -0.0677  1.5726
  167SAPE  H18S18861   2.559   1.172   7.914 -1.0491  1.9171 -1.4982
  167SAPE  C21918862   2.494   1.193   8.122  0.6380 -0.3031  0.5561
  167SAPE  H19R18863   2.550   1.106   8.163  0.4135  0.1160  1.7656
  167SAPE  H19S18864   2.397   1.201   8.176 -0.6381  0.0350 -1.7232
  167SAPE  C22018865   2.576   1.319   8.148  0.1776 -0.3832  0.1371
  167SAPE  H20R18866   2.683   1.302   8.125  0.9373  3.4612  0.3955
  167SAPE  H20S18867   2.561   1.349   8.254  0.8678 -2.8712  0.9529
  167SAPE  H20T18868   2.535   1.404   8.089 -0.5335 -0.8888 -0.1029
  167SAPE   C3318869   1.815   0.561   7.009 -0.0703 -0.3114  0.1748
  167SAPE   H3X18870   1.908   0.612   6.974 -0.6277  0.8937  0.4228
  167SAPE   H3Y18871   1.843   0.454   7.020 -1.7757 -0.7790  0.0258
  167SAPE   C3418872   1.752   0.614   7.139 -0.0664 -0.2106 -0.4959
  167SAPE   H4X18873   1.651   0.569   7.154  0.5971 -1.1400  1.3618
  167SAPE   H4Y18874   1.738   0.723   7.118  0.0924  0.1006  0.9364
  167SAPE   C3518875   1.833   0.588   7.269  0.0917 -0.0359  0.4689
  167SAPE   H5X18876   1.908   0.669   7.277 -1.3309  1.3663 -0.2718
  167SAPE   H5Y18877   1.899   0.499   7.260 -1.1963 -0.9285 -0.3068
  167SAPE   C3618878   1.752   0.575   7.392  0.4329 -0.1174 -0.1256
  167SAPE   H6X18879   1.693   0.481   7.400 -0.4298  0.5046  0.8521
  167SAPE   H6Y18880   1.679   0.658   7.390 -1.8880 -2.0234  1.9204
  167SAPE   C3718881   1.852   0.594   7.513 -0.2446  1.6012  0.1318
  167SAPE   H7X18882   1.903   0.690   7.489  0.0068  1.5587  0.4957
  167SAPE   H7Y18883   1.929   0.514   7.515 -1.5731  0.0634 -4.1774
  167SAPE   C3818884   1.790   0.587   7.650 -0.1985 -0.5784 -0.0748
  167SAPE   H8X18885   1.751   0.484   7.671  1.9615 -1.3721  0.1544
  167SAPE   H8Y18886   1.720   0.673   7.656  1.2744  0.5711  0.8586
  167SAPE   C3918887   1.901   0.611   7.757  0.6023  0.0001  0.4311
  167SAPE   H9X18888   1.960   0.702   7.737 -1.8297  1.6240  0.3619
  167SAPE   H9Y18889   1.958   0.516   7.764 -0.0326 -0.4589 -0.4316
  167SAPE  C31018890   1.831   0.626   7.895 -0.2968  0.1716  0.2749
  167SAPE  H10X18891   1.751   0.549   7.893  0.0904 -0.2039 -3.7377
  167SAPE  H10Y18892   1.784   0.725   7.914  0.0491  0.3729  0.0977
  167SAPE  C31118893   1.920   0.585   8.014  0.0197  0.0102 -0.5018
  167SAPE  H11X18894   1.960   0.484   7.992 -1.2630 -0.6081 -0.0309
  167SAPE  H11Y18895   1.848   0.578   8.099 -1.4267  1.0484 -1.6171
  167SAPE  C31218896   2.030   0.692   8.045 -0.1345 -0.0083  0.0733
  167SAPE  H12X18897   1.977   0.789   8.031 -0.2636 -0.3099 -1.6572
  167SAPE  H12Y18898   2.116   0.689   7.974 -0.9515  2.0935 -1.0616
  167SAPE  C31318899   2.091   0.693   8.191 -0.2540  0.0585  0.2193
  167SAPE  H13X18900   2.182   0.631   8.178 -0.1551  0.5407 -1.6143
  167SAPE  H13Y18901   2.028   0.642   8.266 -3.3224  0.0607 -2.2582
  167SAPE  C31418902   2.130   0.836   8.230  0.2466 -0.7887 -0.0442
  167SAPE  H14X18903   2.038   0.898   8.229 -1.3204 -3.0251  1.2771
  167SAPE  H14Y18904   2.201   0.874   8.154 -0.7794 -0.4250 -0.8419
  167SAPE  C31518905   2.205   0.845   8.365  0.0686 -0.1749 -0.4404
  167SAPE  H15X18906   2.270   0.755   8.371 -1.7630 -1.4188  1.7218
  167SAPE  H15Y18907   2.144   0.844   8.458 -0.1733 -0.3873 -0.6009
  167SAPE  C31618908   2.300   0.968   8.364  0.1001  0.0136  0.3641
  167SAPE  H16X18909   2.248   1.056   8.319  0.6605 -0.8317 -1.9926
  167SAPE  H16Y18910   2.365   0.953   8.276 -0.2024  3.4819 -0.5257
  167SAPE  C31718911   2.375   0.977   8.499 -0.2747  0.0196 -0.5595
  167SAPE  H17X18912   2.447   0.893   8.504 -0.3497 -0.0383 -0.4502
  167SAPE  H17Y18913   2.299   0.980   8.580  2.0640  0.1978  1.6983
  167SAPE  C31818914   2.453   1.105   8.510  0.1453  0.1963  0.6030
  167SAPE  H18X18915   2.394   1.199   8.519  0.2506  0.3708 -0.4549
  167SAPE  H18Y18916   2.528   1.117   8.429  0.2850 -1.1834  0.5226
  167SAPE  H18Z18917   2.515   1.092   8.601  1.2109 -0.1863 -0.1706
  168SAPE     N18918   3.210   2.829   6.649  0.3825 -0.2320  0.9257
  168SAPE   HN118919   3.242   2.792   6.558  0.4218  0.2129  0.7555
  168SAPE   HN218920   3.219   2.755   6.721 -0.5438 -1.0153  0.2359
  168SAPE   HN318921   3.112   2.862   6.637  0.9420  1.8990  1.9413
  168SAPE   C1218922   3.283   2.955   6.689 -0.4272 -0.3792  0.1141
  168SAPE  H12A18923   3.392   2.934   6.682 -0.1317  1.6525 -1.7906
  168SAPE  H12B18924   3.263   2.971   6.797  2.9771  3.2201  0.3358
  168SAPE   C1118925   3.238   3.066   6.595 -0.6140  0.2986 -0.5084
  168SAPE  H11A18926   3.287   3.155   6.640 -3.4211  0.6091  2.1318
  168SAPE  H11B18927   3.132   3.088   6.621  0.4580  1.7176  3.0797
  168SAPE     P18928   3.366   3.124   6.375 -0.0854  0.1541 -0.2649
  168SAPE   O1318929   3.498   3.056   6.387 -0.2827 -0.2132  0.2479
  168SAPE   O1418930   3.306   3.132   6.236  0.0771 -0.5070 -0.4596
  168SAPE   O1218931   3.262   3.044   6.457  0.5137 -0.3198  0.0349
  168SAPE   O1118932   3.378   3.264   6.455  0.2889 -0.3024  0.3599
  168SAPE    C118933   3.505   3.321   6.461 -0.4135  1.0037  0.0305
  168SAPE    HA18934   3.573   3.305   6.375 -0.0707 -0.6583  0.6001
  168SAPE    HB18935   3.490   3.431   6.470 -2.4310  0.8373 -1.0164
  168SAPE    C218936   3.595   3.282   6.578 -0.1614 -0.2594 -0.4585
  168SAPE    HS18937   3.619   3.174   6.573 -1.3317 -0.5658  0.5565
  168SAPE   O2118938   3.539   3.322   6.703  1.0807 -0.8225 -0.2443
  168SAPE   C2118939   3.565   3.247   6.808  0.8333 -0.3431 -0.2978
  168SAPE   O2218940   3.607   3.132   6.810 -0.2568  0.4318  0.2561
  168SAPE   C2218941   3.513   3.324   6.928 -0.2248  0.3153  0.2359
  168SAPE   H2R18942   3.575   3.416   6.930  2.9839 -1.7879  3.1159
  168SAPE   H2S18943   3.407   3.346   6.903 -0.1031 -0.5819 -1.1561
  168SAPE    C318944   3.742   3.345   6.554  0.3327 -0.0046  0.0046
  168SAPE    HX18945   3.734   3.447   6.511 -2.5378 -0.0435  0.3614
  168SAPE    HY18946   3.784   3.278   6.476  1.6612 -0.1714  0.8538
  168SAPE   O3118947   3.828   3.346   6.670  0.2269 -0.0060  0.3425
  168SAPE   C3118948   3.905   3.239   6.691  0.2468  0.4182 -0.1832
  168SAPE   O3218949   3.919   3.143   6.613 -0.4334  0.1108  0.5554
  168SAPE   C3218950   3.967   3.249   6.832 -0.4586  0.1282  0.5752
  168SAPE   H2X18951   4.075   3.227   6.822  0.1579  1.9174  2.8762
  168SAPE   H2Y18952   3.923   3.166   6.892 -0.5758 -1.5322 -1.7127
  168SAPE   C2318953   3.532   3.241   7.057  0.4064  0.7878 -0.8176
  168SAPE   H3R18954   3.633   3.193   7.064  0.6533  1.1920 -1.6000
  168SAPE   H3S18955   3.446   3.172   7.069 -0.1160  1.2031 -2.1973
  168SAPE   C2418956   3.531   3.339   7.179  0.5204  0.4604  0.2770
  168SAPE   H4R18957   3.427   3.378   7.182 -0.4695 -2.0907  0.0722
  168SAPE   H4S18958   3.602   3.421   7.151 -0.1836  1.4174  1.2473
  168SAPE   C2518959   3.585   3.272   7.300  0.2985  0.0163 -0.7044
  168SAPE   H5R18960   3.669   3.204   7.282  0.1832 -0.2166 -0.3603
  168SAPE   C2618961   3.537   3.279   7.425 -0.2517 -1.1631 -0.7440
  168SAPE   H6R18962   3.580   3.219   7.507  1.3206  3.1020  1.7355
  168SAPE   C2718963   3.419   3.367   7.472 -0.0853  0.4751 -0.3460
  168SAPE   H7R18964   3.334   3.299   7.498 -0.9973  0.3427 -3.4352
  168SAPE   H7S18965   3.388   3.433   7.388  1.4130  0.5386 -0.8605
  168SAPE   C2818966   3.449   3.463   7.585 -1.0832  0.1856 -0.0402
  168SAPE   H8R18967   3.451   3.571   7.563 -2.4901  0.1605 -0.3381
  168SAPE   C2918968   3.470   3.433   7.717  0.0927  0.1830  0.2656
  168SAPE   H9R18969   3.486   3.509   7.795 -3.1752  1.2874 -0.0606
  168SAPE  C21018970   3.487   3.294   7.768 -0.6920  0.2942 -0.6463
  168SAPE  H10R18971   3.431   3.224   7.702  0.3075  0.3408 -1.5748
  168SAPE  H10S18972   3.438   3.289   7.867  1.0592 -1.9388  0.1619
  168SAPE  C21118973   3.630   3.263   7.783 -0.2491  0.4541  0.3017
  168SAPE  H11R18974   3.688   3.266   7.690 -1.6955 -0.9437 -0.6695
  168SAPE  C21218975   3.689   3.232   7.899 -0.6902 -0.8207 -0.3093
  168SAPE  H12R18976   3.796   3.207   7.891 -1.1003 -2.1478 -2.0349
  168SAPE  C21318977   3.635   3.201   8.033 -0.3090  0.3840  0.5493
  168SAPE  H13R18978   3.551   3.272   8.048  0.3180  1.4173 -0.8374
  168SAPE  H13S18979   3.701   3.225   8.119  0.3747 -2.5822  0.9269
  168SAPE  C21418980   3.588   3.055   8.052 -0.4062  0.0240 -0.3708
  168SAPE  H14R18981   3.605   2.989   7.966  1.3072  1.1317 -0.8944
  168SAPE  C21518982   3.518   3.009   8.149  1.0054  0.1999 -0.6617
  168SAPE  H15R18983   3.500   2.901   8.152  0.4365  0.3405  1.8811
  168SAPE  C21618984   3.480   3.085   8.271 -0.6140 -1.3320 -0.1386
  168SAPE  H16R18985   3.377   3.126   8.262 -0.7270 -1.8086 -1.1018
  168SAPE  H16S18986   3.553   3.168   8.276 -1.5111 -0.4745 -1.1019
  168SAPE  C21718987   3.508   2.996   8.399 -0.4922  0.3692  0.1280
  168SAPE  H17R18988   3.610   2.955   8.391 -0.5382  0.3294 -0.2518
  168SAPE  H17S18989   3.437   2.911   8.390  4.0637 -3.6777  0.3929
  168SAPE  C21818990   3.480   3.060   8.533  0.1173 -0.2140 -0.2334
  168SAPE  H18R18991   3.452   2.981   8.606 -0.6021  0.1820 -0.0769
  168SAPE  H18S18992   3.389   3.121   8.547  1.5527  2.1459 -0.8201
  168SAPE  C21918993   3.603   3.139   8.586 -0.6437 -0.2387  0.0091
  168SAPE  H19R18994   3.647   3.211   8.514  0.2816  0.8877  1.6588
  168SAPE  H19S18995   3.678   3.061   8.609  1.8757  1.3404 -2.4783
  168SAPE  C22018996   3.590   3.213   8.720  0.2981  0.3191 -0.0782
  168SAPE  H20R18997   3.691   3.231   8.763 -0.7366 -0.6714  2.8833
  168SAPE  H20S18998   3.543   3.151   8.799 -0.3310  2.3247  1.1420
  168SAPE  H20T18999   3.536   3.310   8.716 -1.2440 -0.5647 -1.4247
  168SAPE   C3319000   3.952   3.381   6.910 -0.0290 -0.3362 -0.4400
  168SAPE   H3X19001   3.848   3.417   6.893  0.2404  0.0773 -1.2393
  168SAPE   H3Y19002   4.023   3.454   6.866 -0.0057 -0.4776 -0.6400
  168SAPE   C3419003   3.976   3.372   7.063  0.2141  0.6349  0.3350
  168SAPE   H4X19004   4.083   3.364   7.090  0.0449  1.7349  1.3798
  168SAPE   H4Y19005   3.924   3.279   7.094  1.7686  0.2618  1.9481
  168SAPE   C3519006   3.926   3.491   7.139  0.0184 -0.0230  0.6058
  168SAPE   H5X19007   3.820   3.511   7.113 -0.2278 -0.8858  0.9175
  168SAPE   H5Y19008   3.987   3.578   7.108  2.0544 -1.5984  0.1028
  168SAPE   C3619009   3.942   3.474   7.289 -0.2966 -1.0437  0.3602
  168SAPE   H6X19010   4.051   3.473   7.309 -0.2765 -0.2836  0.2824
  168SAPE   H6Y19011   3.898   3.376   7.317 -1.5187 -0.8330 -0.7852
  168SAPE   C3719012   3.873   3.587   7.364  0.5298 -0.1763 -0.2038
  168SAPE   H7X19013   3.775   3.608   7.317 -0.5183 -0.4948  1.7885
  168SAPE   H7Y19014   3.933   3.680   7.365  0.1602  0.0856 -1.9360
  168SAPE   C3819015   3.850   3.541   7.507 -0.0286 -0.2918  0.7963
  168SAPE   H8X19016   3.780   3.456   7.515  0.9775 -1.3366 -1.1224
  168SAPE   H8Y19017   3.807   3.618   7.575  0.0324  0.1300  0.3611
  168SAPE   C3919018   3.978   3.499   7.584 -0.0887 -0.7094  0.0228
  168SAPE   H9X19019   4.052   3.580   7.602 -0.5464 -0.6782  1.7951
  168SAPE   H9Y19020   4.034   3.411   7.547  0.9810 -0.1557  0.3132
  168SAPE  C31019021   3.946   3.444   7.717  0.2351 -0.5064 -0.1300
  168SAPE  H10X19022   3.882   3.353   7.703 -2.7250  0.8920  3.6636
  168SAPE  H10Y19023   3.883   3.514   7.775  1.5188  0.5426  0.0107
  168SAPE  C31119024   4.069   3.416   7.804 -0.1641  0.4702  0.0453
  168SAPE  H11X19025   4.141   3.499   7.785 -0.5937  0.5728 -1.1683
  168SAPE  H11Y19026   4.108   3.321   7.762 -0.7173  0.5817 -0.7330
  168SAPE  C31219027   4.028   3.395   7.950 -0.2674 -0.2077  0.1148
  168SAPE  H12X19028   3.932   3.339   7.956 -0.8005  0.3278 -2.7270
  168SAPE  H12Y19029   4.013   3.493   8.002 -0.3994  0.3626 -0.9850
  168SAPE  C31319030   4.143   3.335   8.031 -0.2679 -0.4019  0.6416
  168SAPE  H13X19031   4.227   3.405   8.012 -0.2056  0.5118  3.9342
  168SAPE  H13Y19032   4.178   3.236   7.994  1.4095  0.1756  0.6215
  168SAPE  C31419033   4.109   3.327   8.178 -0.6929 -0.0649  0.2858
  168SAPE  H14X19034   4.093   3.433   8.205  2.3432  0.8787 -1.4064
  168SAPE  H14Y19035   4.202   3.283   8.219 -0.3737 -1.0359 -1.4034
  168SAPE  C31519036   3.979   3.249   8.207 -0.8280 -0.4063  0.4248
  168SAPE  H15X19037   3.968   3.166   8.134  0.3060  0.6431 -0.9985
  168SAPE  H15Y19038   3.887   3.310   8.197 -0.8196  0.3014  4.0127
  168SAPE  C31619039   3.975   3.191   8.347 -0.6860 -0.2711 -0.0532
  168SAPE  H16X19040   3.911   3.249   8.417 -0.7018 -2.1126  1.5125
  168SAPE  H16Y19041   4.080   3.200   8.381 -1.5213 -0.4496  2.7551
  168SAPE  C31719042   3.935   3.053   8.342  0.1880 -0.1289  0.2545
  168SAPE  H17X19043   3.974   3.004   8.251 -2.7970 -1.1404 -0.5408
  168SAPE  H17Y19044   3.824   3.041   8.339  0.4453 -2.2666 -2.3069
  168SAPE  C31819045   3.979   2.965   8.461 -0.3048  0.4017  0.0711
  168SAPE  H18X19046   4.089   2.979   8.468 -0.2525  0.0725 -0.0943
  168SAPE  H18Y19047   3.957   2.861   8.430 -2.6471  1.4162 -1.9239
  168SAPE  H18Z19048   3.921   2.989   8.552  0.5999  0.8090  0.5435
  169SAPE     N19049   2.386   5.078   6.236  0.4700  0.0866  0.0860
  169SAPE   HN119050   2.475   5.131   6.248  0.3796  0.6413 -1.5277
  169SAPE   HN219051   2.355   5.099   6.139 -0.3034  0.1042  0.3346
  169SAPE   HN319052   2.320   5.124   6.302  0.2641 -1.6968  1.1573
  169SAPE   C1219053   2.414   4.940   6.254 -0.3322  0.7701 -0.4694
  169SAPE  H12A19054   2.477   4.928   6.345 -1.7504  2.5730  0.7767
  169SAPE  H12B19055   2.477   4.901   6.172  0.9167 -0.1644  0.8878
  169SAPE   C1119056   2.286   4.867   6.291  0.5779  0.0279 -0.0284
  169SAPE  H11A19057   2.236   4.925   6.371 -0.9877 -1.7889  0.3596
  169SAPE  H11B19058   2.314   4.763   6.320 -0.2440 -0.7415 -1.9493
  169SAPE     P19059   2.105   4.752   6.143 -0.5221 -0.0701  0.0467
  169SAPE   O1319060   2.001   4.802   6.054 -0.0137 -0.5189 -0.1058
  169SAPE   O1419061   2.184   4.647   6.083 -0.4756 -0.6791  0.2622
  169SAPE   O1219062   2.196   4.873   6.185 -0.1814 -0.2618  0.4116
  169SAPE   O1119063   2.032   4.700   6.272 -0.0771  0.0298  0.1489
  169SAPE    C119064   1.955   4.775   6.359 -0.1362 -0.4559  0.0200
  169SAPE    HA19065   1.961   4.884   6.344  2.6064 -0.3828  1.2493
  169SAPE    HB19066   1.852   4.737   6.344  0.8797 -3.0538 -0.7254
  169SAPE    C219067   1.990   4.734   6.502  0.5057 -0.1650  0.1992
  169SAPE    HS19068   1.895   4.740   6.559  0.6269  4.0724  0.1148
  169SAPE   O2119069   2.095   4.813   6.548  0.2649  0.3966 -0.2604
  169SAPE   C2119070   2.058   4.928   6.587  0.4114  0.8028 -0.2272
  169SAPE   O2219071   1.945   4.972   6.578  0.0401  0.8947 -0.1695
  169SAPE   C2219072   2.173   5.003   6.649  0.7677  0.1401  0.0132
  169SAPE   H2R19073   2.262   4.938   6.665 -0.3934 -1.6107 -0.4242
  169SAPE   H2S19074   2.198   5.081   6.575  2.7660  0.1887  0.7330
  169SAPE    C319075   2.029   4.583   6.523  0.4434 -0.9685 -0.2726
  169SAPE    HX19076   2.133   4.568   6.486  0.9933 -0.6975  1.1662
  169SAPE    HY19077   1.960   4.519   6.464 -1.9862  0.2890  1.1574
  169SAPE   O3119078   2.020   4.540   6.661 -0.0137 -0.0561 -0.1136
  169SAPE   C3119079   2.094   4.424   6.681 -0.9782  0.7347 -0.6169
  169SAPE   O3219080   2.165   4.366   6.601  0.1394  0.7072 -0.6435
  169SAPE   C3219081   2.083   4.377   6.828 -0.0381 -0.1581  0.0885
  169SAPE   H2X19082   2.118   4.272   6.834 -1.2816 -0.6429 -0.8279
  169SAPE   H2Y19083   1.976   4.376   6.856  0.5468 -1.4718  2.3439
  169SAPE   C2319084   2.144   5.075   6.780  0.3719  0.0982  0.0695
  169SAPE   H3R19085   2.124   4.995   6.854  2.4920  0.2227  0.7900
  169SAPE   H3S19086   2.054   5.140   6.777  1.0448  1.0463  0.3730
  169SAPE   C2419087   2.261   5.157   6.834  0.9617  0.0728  0.5096
  169SAPE   H4R19088   2.221   5.220   6.917  1.2618  0.2344  0.5320
  169SAPE   H4S19089   2.283   5.230   6.753 -0.2986 -0.9702 -0.7907
  169SAPE   C2519090   2.377   5.076   6.874 -0.4671  0.2009  0.6854
  169SAPE   H5R19091   2.463   5.078   6.805 -1.4880  2.2108 -0.5727
  169SAPE   C2619092   2.384   5.005   6.991 -0.2519 -0.2053 -0.1306
  169SAPE   H6R19093   2.478   4.958   7.025 -0.4405 -0.0333  0.6230
  169SAPE   C2719094   2.288   5.016   7.105  0.3070  0.1668  0.2305
  169SAPE   H7R19095   2.238   4.921   7.134  0.8288 -0.6900 -1.5707
  169SAPE   H7S19096   2.206   5.080   7.066  1.8514  1.3168 -1.2274
  169SAPE   C2819097   2.355   5.082   7.232  0.6856  0.5479 -0.1328
  169SAPE   H8R19098   2.409   5.174   7.207 -1.4231  2.1653  1.0106
  169SAPE   C2919099   2.349   5.033   7.360  0.3751 -0.9782 -0.3022
  169SAPE   H9R19100   2.410   5.086   7.435  0.6541 -1.0716 -0.4622
  169SAPE  C21019101   2.272   4.909   7.404 -0.5865 -0.2069 -0.2321
  169SAPE  H10R19102   2.342   4.830   7.438  0.9500  0.4727 -1.7272
  169SAPE  H10S19103   2.213   4.866   7.320  1.2086 -1.7019 -0.7528
  169SAPE  C21119104   2.170   4.933   7.511 -1.0844 -0.7883 -0.3556
  169SAPE  H11R19105   2.072   4.958   7.467 -0.8280 -0.2173 -0.6027
  169SAPE  C21219106   2.184   4.922   7.648  0.3828 -0.4424  0.3043
  169SAPE  H12R19107   2.096   4.962   7.701 -1.0319  1.3336 -3.1982
  169SAPE  C21319108   2.307   4.891   7.726  0.7449 -0.4956 -0.1069
  169SAPE  H13R19109   2.384   4.971   7.721  1.7601 -1.4981 -1.1608
  169SAPE  H13S19110   2.351   4.796   7.688 -0.5545 -1.5302  0.9510
  169SAPE  C21419111   2.268   4.857   7.865  0.5308  0.2870 -0.5798
  169SAPE  H14R19112   2.162   4.863   7.895  0.4265  0.6570 -1.0109
  169SAPE  C21519113   2.349   4.796   7.951  0.2134  0.3912 -0.3679
  169SAPE  H15R19114   2.317   4.754   8.047 -1.8822 -0.0020 -1.2242
  169SAPE  C21619115   2.490   4.771   7.937 -0.3073  0.2798 -0.6913
  169SAPE  H16R19116   2.532   4.864   7.892 -0.3686  0.4326 -0.4342
  169SAPE  H16S19117   2.495   4.686   7.866  0.7333 -0.0026 -0.2997
  169SAPE  C21719118   2.572   4.731   8.056 -0.1523  0.1912 -0.2567
  169SAPE  H17R19119   2.562   4.802   8.141  0.1897  0.0069 -0.0612
  169SAPE  H17S19120   2.674   4.728   8.013  0.7188  0.2947  1.7433
  169SAPE  C21819121   2.533   4.584   8.106 -0.4992  1.0407 -0.1338
  169SAPE  H18R19122   2.555   4.525   8.014 -0.3916  0.3131  0.3508
  169SAPE  H18S19123   2.427   4.565   8.134 -0.0835  0.0433  0.8274
  169SAPE  C21919124   2.628   4.554   8.227  0.2542 -0.0593 -0.2471
  169SAPE  H19R19125   2.612   4.627   8.309  0.2794 -1.1434  0.7351
  169SAPE  H19S19126   2.736   4.555   8.201  0.4632 -1.7203  0.5038
  169SAPE  C22019127   2.612   4.416   8.291 -0.3465 -0.2786  0.5701
  169SAPE  H20R19128   2.619   4.343   8.208  0.8342  1.1251 -0.5805
  169SAPE  H20S19129   2.512   4.400   8.338 -0.4433  0.9099  0.7889
  169SAPE  H20T19130   2.692   4.392   8.365  1.8110  2.3760 -0.8266
  169SAPE   C3319131   2.169   4.471   6.922 -0.5340  0.3841 -0.1118
  169SAPE   H3X19132   2.135   4.574   6.900  1.2075  1.1556  0.6545
  169SAPE   H3Y19133   2.277   4.485   6.899  0.1912 -0.1922  2.7038
  169SAPE   C3419134   2.153   4.443   7.074 -0.7992  0.1871 -0.5289
  169SAPE   H4X19135   2.215   4.354   7.095 -0.4224  0.3408 -0.9934
  169SAPE   H4Y19136   2.047   4.428   7.104 -0.2454 -1.3522  0.7083
  169SAPE   C3519137   2.205   4.563   7.157  0.5363 -0.2288  0.2206
  169SAPE   H5X19138   2.150   4.657   7.134  1.8909  0.1076 -1.8301
  169SAPE   H5Y19139   2.307   4.576   7.115  0.9367 -1.5002  0.7711
  169SAPE   C3619140   2.214   4.548   7.306  0.7308 -0.0055 -0.0311
  169SAPE   H6X19141   2.248   4.648   7.341  1.2840  1.1002 -3.5346
  169SAPE   H6Y19142   2.297   4.477   7.327 -0.3824 -1.1291  0.6192
  169SAPE   C3719143   2.078   4.515   7.377 -1.3535  0.6938 -0.1911
  169SAPE   H7X19144   2.066   4.407   7.353  0.6369  0.1857  1.0438
  169SAPE   H7Y19145   1.993   4.575   7.337 -2.5434 -0.9513 -0.1664
  169SAPE   C3819146   2.095   4.524   7.528 -0.2639  0.1481  0.0606
  169SAPE   H8X19147   2.084   4.631   7.555  1.0166 -0.0244  1.3158
  169SAPE   H8Y19148   2.199   4.492   7.549  0.0090 -0.3588 -2.0149
  169SAPE   C3919149   2.019   4.438   7.624 -0.3463  0.2841  0.8621
  169SAPE   H9X19150   2.023   4.331   7.596  0.5404 -0.0467  2.2017
  169SAPE   H9Y19151   1.913   4.471   7.629 -0.4663 -0.0101  0.2496
  169SAPE  C31019152   2.077   4.451   7.761  0.0365  0.0312  0.3362
  169SAPE  H10X19153   2.096   4.555   7.796 -0.2026  0.5330 -0.9958
  169SAPE  H10Y19154   2.182   4.417   7.759  0.6408  1.5171  3.3684
  169SAPE  C31119155   1.991   4.392   7.877  0.2413 -0.0292  0.0469
  169SAPE  H11X19156   1.947   4.297   7.840 -0.3951  0.9438 -1.7798
  169SAPE  H11Y19157   1.898   4.451   7.891 -0.6875 -1.8131  1.6166
  169SAPE  C31219158   2.077   4.385   7.999 -0.2142 -0.1932 -0.7377
  169SAPE  H12X19159   2.106   4.488   8.031  2.7150 -1.3672  0.5772
  169SAPE  H12Y19160   2.167   4.320   7.986  0.8746  0.4473  2.9394
  169SAPE  C31319161   1.999   4.332   8.128  0.9735  0.0637  0.3189
  169SAPE  H13X19162   1.953   4.239   8.086  1.9707 -0.2561 -0.0776
  169SAPE  H13Y19163   1.920   4.402   8.164  2.7169  3.4191 -2.2128
  169SAPE  C31419164   2.091   4.287   8.243 -0.3583 -0.4271  0.7624
  169SAPE  H14X19165   2.160   4.362   8.288 -2.1800  0.6843  1.7698
  169SAPE  H14Y19166   2.162   4.216   8.196 -1.8064 -1.4893  0.1625
  169SAPE  C31519167   2.017   4.222   8.359  0.2269  0.1948  0.4462
  169SAPE  H15X19168   2.070   4.157   8.431  1.3154  0.9517  0.3452
  169SAPE  H15Y19169   1.938   4.154   8.322  1.1343 -2.7209  3.5764
  169SAPE  C31619170   1.948   4.330   8.441 -0.0791  0.3393  0.4985
  169SAPE  H16X19171   1.876   4.382   8.373  0.0850  0.1384  0.1684
  169SAPE  H16Y19172   2.019   4.407   8.477 -0.6202 -0.3613  3.1387
  169SAPE  C31719173   1.886   4.270   8.565 -0.7136 -0.4455 -0.2861
  169SAPE  H17X19174   1.964   4.221   8.626 -1.1356 -0.9364 -0.1320
  169SAPE  H17Y19175   1.823   4.187   8.525 -0.2079 -0.9501 -0.0347
  169SAPE  C31819176   1.804   4.370   8.652 -0.6030 -0.0119  0.3444
  169SAPE  H18X19177   1.860   4.465   8.653 -0.9728  0.2066  3.4405
  169SAPE  H18Y19178   1.794   4.330   8.755 -0.1166 -0.2463  0.3038
  169SAPE  H18Z19179   1.702   4.386   8.611  0.1913 -1.5471 -2.3666
  170SAPE     N19180   4.278   1.164   6.376  0.1010 -0.4513 -0.1602
  170SAPE   HN119181   4.271   1.226   6.293  0.0756 -2.5932 -1.7944
  170SAPE   HN219182   4.368   1.186   6.423 -0.1003  0.4825 -0.2066
  170SAPE   HN319183   4.269   1.064   6.350 -0.1864 -0.1762 -1.1365
  170SAPE   C1219184   4.174   1.198   6.472 -0.4833 -0.7391 -0.3314
  170SAPE  H12A19185   4.175   1.309   6.477 -0.0982 -0.6358 -2.0881
  170SAPE  H12B19186   4.198   1.145   6.567 -2.7865 -1.0651  0.1078
  170SAPE   C1119187   4.037   1.153   6.419 -0.5559  0.5198  0.7893
  170SAPE  H11A19188   3.957   1.180   6.492 -0.9327 -0.7536  0.8606
  170SAPE  H11B19189   4.028   1.043   6.417 -0.3994  0.4707  2.1811
  170SAPE     P19190   3.989   1.359   6.267 -0.3443  0.1328 -0.1281
  170SAPE   O1319191   4.127   1.417   6.250  0.2903 -0.0818  0.3143
  170SAPE   O1419192   3.898   1.388   6.153 -0.3604 -0.3029  0.1069
  170SAPE   O1219193   3.995   1.209   6.298  0.4334 -0.5743  0.0709
  170SAPE   O1119194   3.924   1.409   6.399  0.2433 -0.0122 -0.3044
  170SAPE    C119195   3.798   1.372   6.453  0.3473  0.1670  0.5549
  170SAPE    HA19196   3.752   1.296   6.387 -0.9376  1.7006 -0.3475
  170SAPE    HB19197   3.810   1.330   6.555 -1.1079 -0.9210  0.2836
  170SAPE    C219198   3.705   1.497   6.453 -0.2555  0.2838 -0.8353
  170SAPE    HS19199   3.697   1.540   6.351  0.0753  0.1330 -0.9220
  170SAPE   O2119200   3.760   1.600   6.541 -0.1740 -0.8320 -0.0906
  170SAPE   C2119201   3.704   1.717   6.529 -0.5587 -0.6103 -0.2709
  170SAPE   O2219202   3.616   1.748   6.452  0.0021 -0.7206 -0.3311
  170SAPE   C2219203   3.770   1.815   6.628 -0.0987  0.2886  0.9514
  170SAPE   H2R19204   3.713   1.805   6.723 -2.0454 -1.8452 -0.3831
  170SAPE   H2S19205   3.880   1.799   6.638  0.1270 -0.1035 -1.8837
  170SAPE    C319206   3.555   1.457   6.494  0.1971  0.2673  0.6597
  170SAPE    HX19207   3.527   1.366   6.436  1.0962 -0.1085  0.8151
  170SAPE    HY19208   3.497   1.550   6.475  1.3089  1.1201  1.3771
  170SAPE   O3119209   3.528   1.402   6.630  0.2420 -0.0738  0.4423
  170SAPE   C3119210   3.478   1.493   6.715 -0.3985 -0.1037 -0.8216
  170SAPE   O3219211   3.493   1.617   6.699 -0.2927  0.1547  0.5426
  170SAPE   C3219212   3.431   1.432   6.843 -0.4099  0.2287  0.3052
  170SAPE   H2X19213   3.499   1.353   6.884  2.1990  1.8935 -0.6558
  170SAPE   H2Y19214   3.337   1.381   6.814  0.6310 -1.3810 -0.3308
  170SAPE   C2319215   3.768   1.958   6.585 -0.2177 -0.1820  0.1035
  170SAPE   H3R19216   3.669   2.001   6.611 -0.9181  0.8765 -3.9121
  170SAPE   H3S19217   3.794   1.963   6.477 -0.2826 -1.1686  0.0384
  170SAPE   C2419218   3.874   2.045   6.650  0.2354 -0.5426 -0.0310
  170SAPE   H4R19219   3.879   2.137   6.589 -0.3455  0.1726  0.9967
  170SAPE   H4S19220   3.972   1.996   6.632  1.0822  0.4413  1.8196
  170SAPE   C2519221   3.837   2.094   6.794 -0.1209 -0.2299  0.4166
  170SAPE   H5R19222   3.769   2.031   6.853 -1.3847 -2.6142 -3.4128
  170SAPE   C2619223   3.868   2.207   6.855 -0.1478 -0.3287  0.0404
  170SAPE   H6R19224   3.834   2.220   6.959  0.5754  0.2072  0.2149
  170SAPE   C2719225   3.964   2.300   6.797 -0.8817 -1.0941 -0.5330
  170SAPE   H7R19226   3.964   2.297   6.686 -1.7639  1.6460 -0.6266
  170SAPE   H7S19227   4.065   2.261   6.820 -0.4011  1.3490  1.7892
  170SAPE   C2819228   3.936   2.436   6.856 -0.2987 -0.1840 -0.2715
  170SAPE   H8R19229   3.882   2.498   6.783 -0.4043  0.1906  0.1243
  170SAPE   C2919230   3.977   2.490   6.973  0.0044  0.2138 -0.3856
  170SAPE   H9R19231   3.942   2.593   6.989  0.5135  0.4638 -0.8576
  170SAPE  C21019232   4.057   2.421   7.083 -0.0377  0.1171  0.0185
  170SAPE  H10R19233   4.160   2.460   7.078 -0.0657  0.0587 -1.0903
  170SAPE  H10S19234   4.048   2.311   7.072  0.7849 -0.2014  2.1962
  170SAPE  C21119235   4.025   2.474   7.221  0.7050 -0.4894  0.1378
  170SAPE  H11R19236   4.002   2.397   7.295 -2.4393  0.9079  0.7065
  170SAPE  C21219237   4.022   2.603   7.261  0.0533  0.7710  0.2898
  170SAPE  H12R19238   4.010   2.618   7.369 -2.4794  1.3091 -0.0453
  170SAPE  C21319239   4.042   2.731   7.186 -0.0117  0.0768  0.1386
  170SAPE  H13R19240   4.070   2.720   7.079 -1.9279 -2.3698 -0.1621
  170SAPE  H13S19241   4.138   2.778   7.217 -1.3637  1.6489  2.0488
  170SAPE  C21419242   3.932   2.834   7.206 -0.8668  0.0082  0.5780
  170SAPE  H14R19243   3.846   2.828   7.138 -0.7640  0.0664  0.4429
  170SAPE  C21519244   3.944   2.942   7.289  0.1050 -0.2407 -0.5407
  170SAPE  H15R19245   3.851   3.000   7.296 -1.1803 -2.3550  0.3954
  170SAPE  C21619246   4.063   2.970   7.382  0.6187 -0.8803 -0.5371
  170SAPE  H16R19247   4.107   3.071   7.368 -1.4557  0.5441  2.6309
  170SAPE  H16S19248   4.142   2.893   7.375  1.2197 -0.2078 -1.2463
  170SAPE  C21719249   4.012   2.969   7.529  1.2299 -0.4034  0.8152
  170SAPE  H17R19250   3.962   2.875   7.563  1.8887 -0.1785  2.4560
  170SAPE  H17S19251   3.951   3.060   7.547  1.3751 -0.2373  0.4673
  170SAPE  C21819252   4.116   2.986   7.638 -0.2976  0.8214  0.7844
  170SAPE  H18R19253   4.200   3.048   7.600 -1.9151  2.1836 -0.6884
  170SAPE  H18S19254   4.153   2.883   7.655  0.2852  0.5573 -1.8849
  170SAPE  C21919255   4.055   3.028   7.776 -0.3739 -0.3509  0.2701
  170SAPE  H19R19256   3.974   2.953   7.789 -0.9471  0.1713 -0.2645
  170SAPE  H19S19257   4.028   3.134   7.763  1.1702 -0.0379 -0.4995
  170SAPE  C22019258   4.165   3.012   7.885  0.3071 -0.3058  0.1019
  170SAPE  H20R19259   4.128   3.042   7.986 -1.0627 -0.5380 -0.3254
  170SAPE  H20S19260   4.258   3.072   7.868 -0.0471 -0.1992 -1.5136
  170SAPE  H20T19261   4.196   2.905   7.889 -0.0011 -0.4098 -0.3827
  170SAPE   C3319262   3.402   1.540   6.953  0.4984 -0.0414  0.4848
  170SAPE   H3X19263   3.307   1.590   6.921 -0.5916 -0.7272  2.5846
  170SAPE   H3Y19264   3.480   1.618   6.955  1.3647 -0.8785 -0.1327
  170SAPE   C3419265   3.393   1.482   7.090  0.4790  0.5665  0.3973
  170SAPE   H4X19266   3.487   1.437   7.127 -1.0479 -2.0760  1.1545
  170SAPE   H4Y19267   3.315   1.403   7.088 -0.7684  1.7864 -0.7878
  170SAPE   C3519268   3.354   1.593   7.198  0.8146 -0.1668  0.5517
  170SAPE   H5X19269   3.263   1.644   7.159  1.2796 -0.3891 -0.8778
  170SAPE   H5Y19270   3.452   1.644   7.209  2.4516 -1.6985 -4.9220
  170SAPE   C3619271   3.323   1.519   7.329  0.1506 -0.5707 -0.4883
  170SAPE   H6X19272   3.410   1.454   7.351  0.9915  1.4588  2.5800
  170SAPE   H6Y19273   3.234   1.457   7.305 -1.8533  2.0521 -0.1548
  170SAPE   C3719274   3.292   1.621   7.433 -0.2210 -0.3411  0.3560
  170SAPE   H7X19275   3.192   1.668   7.420  0.8917  1.5008 -2.2833
  170SAPE   H7Y19276   3.375   1.695   7.429  0.3433 -1.0134 -0.5216
  170SAPE   C3819277   3.273   1.559   7.572  0.4941 -0.2022 -0.2204
  170SAPE   H8X19278   3.367   1.504   7.597  0.0375 -0.6959  0.4228
  170SAPE   H8Y19279   3.194   1.482   7.571  0.4291 -0.2058  2.3216
  170SAPE   C3919280   3.241   1.665   7.677 -0.4107  0.3237  0.5413
  170SAPE   H9X19281   3.137   1.703   7.664 -0.8719 -0.8340  0.8188
  170SAPE   H9Y19282   3.312   1.745   7.647 -0.6357  0.0494 -0.7556
  170SAPE  C31019283   3.262   1.616   7.820 -0.0232  0.6480 -0.7859
  170SAPE  H10X19284   3.351   1.550   7.821 -0.8575 -0.5377  2.4294
  170SAPE  H10Y19285   3.177   1.548   7.842  0.7981 -0.5576 -1.2763
  170SAPE  C31119286   3.263   1.718   7.929 -0.2989  0.1215 -0.1488
  170SAPE  H11X19287   3.160   1.751   7.953 -0.2941 -1.2263  1.7540
  170SAPE  H11Y19288   3.320   1.811   7.909  0.3052 -0.3461 -0.6330
  170SAPE  C31219289   3.325   1.652   8.050 -0.2820 -0.1666  0.2888
  170SAPE  H12X19290   3.424   1.613   8.016 -0.3970  0.8273 -1.2424
  170SAPE  H12Y19291   3.260   1.564   8.071 -0.6359  0.9418  4.1352
  170SAPE  C31319292   3.345   1.753   8.163 -0.4291  0.0357 -0.0260
  170SAPE  H13X19293   3.253   1.804   8.198 -0.6692 -0.2909 -0.1782
  170SAPE  H13Y19294   3.413   1.836   8.133 -2.1048  1.7553  0.8447
  170SAPE  C31419295   3.400   1.680   8.284 -0.0043 -0.1175  0.2126
  170SAPE  H14X19296   3.504   1.655   8.254 -0.1864  0.3764 -0.8495
  170SAPE  H14Y19297   3.336   1.596   8.319 -0.5408  0.3987  0.4786
  170SAPE  C31519298   3.427   1.772   8.413 -0.2128 -0.5245 -0.3153
  170SAPE  H15X19299   3.326   1.805   8.445  0.6742  0.7292  1.2464
  170SAPE  H15Y19300   3.488   1.861   8.387 -1.7358  0.5412 -0.2756
  170SAPE  C31619301   3.484   1.703   8.536 -0.0536  0.6125  0.0853
  170SAPE  H16X19302   3.579   1.656   8.501 -0.3372 -0.9340  1.3843
  170SAPE  H16Y19303   3.420   1.622   8.575  0.9793  0.9251  2.5396
  170SAPE  C31719304   3.488   1.794   8.658 -0.5116  0.5110 -1.2811
  170SAPE  H17X19305   3.394   1.851   8.674 -0.1017  1.3630 -1.8840
  170SAPE  H17Y19306   3.549   1.881   8.627  0.3146 -0.5950 -2.8488
  170SAPE  C31819307   3.542   1.733   8.789  0.0347 -1.1541 -0.6349
  170SAPE  H18X19308   3.467   1.707   8.868  1.2418  0.3056  1.0335
  170SAPE  H18Y19309   3.611   1.804   8.837 -0.0291 -2.8653  2.1262
  170SAPE  H18Z19310   3.604   1.642   8.774  1.9427 -0.1823  1.1679
  171SAPE     N19311   4.136   2.871   6.289  0.4498 -0.1498  0.4053
  171SAPE   HN119312   4.166   2.829   6.379  0.0245  0.2840  0.7551
  171SAPE   HN219313   4.068   2.805   6.246  0.0545  0.1079  0.6291
  171SAPE   HN319314   4.219   2.903   6.234 -0.2752  0.6956 -0.2234
  171SAPE   C1219315   4.071   3.006   6.308 -0.2650 -0.5491 -0.1264
  171SAPE  H12A19316   3.976   2.985   6.360 -2.1060  0.4039 -2.9459
  171SAPE  H12B19317   4.054   3.043   6.204 -0.2811  0.6223  0.2882
  171SAPE   C1119318   4.174   3.091   6.392 -0.4139 -0.5794  0.1568
  171SAPE  H11A19319   4.212   3.050   6.488  1.3866  0.6260 -0.0183
  171SAPE  H11B19320   4.120   3.181   6.430 -0.6943 -0.5130 -0.4035
  171SAPE     P19321   4.342   3.269   6.319 -0.3032  0.4767  0.3089
  171SAPE   O1319322   4.404   3.296   6.188 -0.6409  0.2761  0.1501
  171SAPE   O1419323   4.236   3.366   6.351  0.0048  0.6683 -0.2498
  171SAPE   O1219324   4.283   3.120   6.313  0.4905  0.0246 -0.5968
  171SAPE   O1119325   4.464   3.266   6.428 -0.5299 -0.1142  0.5928
  171SAPE    C119326   4.465   3.171   6.529 -0.5439  0.8399  0.3628
  171SAPE    HA19327   4.373   3.176   6.590  0.3171  1.0540  1.6646
  171SAPE    HB19328   4.477   3.067   6.490 -0.3584  1.3605 -1.0083
  171SAPE    C219329   4.576   3.171   6.636  0.9357  0.2160  0.5456
  171SAPE    HS19330   4.538   3.102   6.714 -0.9070 -0.6845 -1.1082
  171SAPE   O2119331   4.596   3.302   6.688  0.3595  0.1243  0.0496
  171SAPE   C2119332   4.612   3.301   6.820  0.1508  0.2798  0.6053
  171SAPE   O2219333   4.589   3.206   6.895  0.5514  0.0178  0.9036
  171SAPE   C2219334   4.647   3.436   6.879 -0.7289 -0.3065 -0.6512
  171SAPE   H2R19335   4.635   3.523   6.811 -0.5999  1.4101  1.4841
  171SAPE   H2S19336   4.576   3.447   6.963 -0.2037 -1.7330  0.0010
  171SAPE    C319337   4.710   3.109   6.594  0.0822 -0.1098  0.0892
  171SAPE    HX19338   4.767   3.184   6.534 -0.8118 -0.0584 -0.7127
  171SAPE    HY19339   4.685   3.025   6.526 -0.1198  0.2173 -0.2450
  171SAPE   O3119340   4.787   3.086   6.713 -0.1813  0.1088  0.2919
  171SAPE   C3119341   4.765   2.966   6.769  0.0547  0.5317 -0.2825
  171SAPE   O3219342   4.698   2.872   6.721  0.5429  0.2450 -0.3037
  171SAPE   C3219343   4.848   2.947   6.906 -0.2794 -0.4751  0.5391
  171SAPE   H2X19344   4.882   3.050   6.929  1.6627 -0.8611 -0.5209
  171SAPE   H2Y19345   4.932   2.876   6.895 -0.7273 -1.1064  1.1404
  171SAPE   C2319346   4.797   3.436   6.921 -0.1777  0.2163  0.6997
  171SAPE   H3R19347   4.828   3.540   6.942  0.8476 -0.4182  2.4924
  171SAPE   H3S19348   4.861   3.413   6.833 -2.2728 -0.8505 -0.5979
  171SAPE   C2419349   4.818   3.346   7.049 -0.1425 -0.0500  0.1978
  171SAPE   H4R19350   4.804   3.239   7.027  1.1472 -0.5984  1.9289
  171SAPE   H4S19351   4.727   3.353   7.112 -1.8039  0.0782 -2.1381
  171SAPE   C2519352   4.945   3.371   7.121  0.2489 -0.3513  0.7201
  171SAPE   H5R19353   5.022   3.415   7.056  0.0641 -2.8568 -1.2594
  171SAPE   C2619354   4.964   3.366   7.255  0.2786  0.1959 -0.6552
  171SAPE   H6R19355   5.067   3.375   7.291 -0.0798  1.1058  0.1646
  171SAPE   C2719356   4.868   3.332   7.369  0.4039  0.1869  0.8457
  171SAPE   H7R19357   4.914   3.242   7.415 -0.9181 -0.2529  1.3290
  171SAPE   H7S19358   4.765   3.316   7.331 -0.0851 -1.0315  2.6082
  171SAPE   C2819359   4.847   3.445   7.456 -0.1477 -0.3369 -0.1664
  171SAPE   H8R19360   4.810   3.537   7.407 -1.0244  0.0373  1.1698
  171SAPE   C2919361   4.876   3.450   7.590 -0.8374  0.1035  0.2449
  171SAPE   H9R19362   4.842   3.539   7.644  3.1461  2.1460 -0.4217
  171SAPE  C21019363   4.947   3.337   7.673 -0.0856  0.0026 -0.4158
  171SAPE  H10R19364   5.038   3.307   7.618  2.2336 -0.6839  3.5465
  171SAPE  H10S19365   4.873   3.253   7.673  0.6518 -0.7197 -4.3386
  171SAPE  C21119366   4.997   3.369   7.813  0.1879  0.6452 -0.9695
  171SAPE  H11R19367   4.959   3.461   7.860 -0.7035 -0.1010 -0.2108
  171SAPE  C21219368   5.096   3.306   7.879  0.5798 -0.0867 -0.7566
  171SAPE  H12R19369   5.122   3.348   7.978 -0.3172  1.2014 -1.0476
  171SAPE  C21319370   5.169   3.185   7.826  0.1002  0.1936 -0.3317
  171SAPE  H13R19371   5.237   3.144   7.903  0.8146 -0.4827 -1.3037
  171SAPE  H13S19372   5.241   3.210   7.745  2.7028 -2.0190  1.2283
  171SAPE  C21419373   5.081   3.066   7.792  0.4606  0.2009 -0.0958
  171SAPE  H14R19374   5.023   3.030   7.879  1.0410  0.7310  0.5213
  171SAPE  C21519375   5.084   2.996   7.677  0.1394 -0.2814 -0.3834
  171SAPE  H15R19376   5.009   2.916   7.667 -1.4015  1.1184 -0.3199
  171SAPE  C21619377   5.164   3.031   7.550  0.6416  0.7891 -0.3954
  171SAPE  H16R19378   5.268   3.058   7.579  1.0804  0.5872 -1.7577
  171SAPE  H16S19379   5.122   3.117   7.494  0.2256  0.3274 -0.7919
  171SAPE  C21719380   5.177   2.924   7.440  0.3541  0.2611  0.4214
  171SAPE  H17R19381   5.079   2.873   7.443  0.1446  0.4182 -2.2069
  171SAPE  H17S19382   5.248   2.843   7.470 -0.9046 -0.6963  0.8573
  171SAPE  C21819383   5.212   2.977   7.298 -0.6078 -0.5682 -0.1213
  171SAPE  H18R19384   5.311   3.028   7.299  0.6294 -2.9402  1.5629
  171SAPE  H18S19385   5.145   3.062   7.270 -1.4873 -1.6541 -1.3911
  171SAPE  C21919386   5.207   2.866   7.190 -0.0018 -0.1327  0.1325
  171SAPE  H19R19387   5.103   2.827   7.193  0.1622 -0.5678  0.1722
  171SAPE  H19S19388   5.280   2.788   7.221  0.4487  0.7065  1.2065
  171SAPE  C22019389   5.222   2.916   7.040  0.0590 -0.6431  0.0415
  171SAPE  H20R19390   5.223   2.836   6.962 -0.2532  0.4370 -1.0780
  171SAPE  H20S19391   5.323   2.963   7.042  0.5179 -1.6550  1.3643
  171SAPE  H20T19392   5.145   2.992   7.014 -0.2316 -0.6496  0.8920
  171SAPE   C3319393   4.752   2.916   7.021 -0.4689 -0.0488  0.3335
  171SAPE   H3X19394   4.728   2.808   7.014  2.8641 -0.7258 -1.5830
  171SAPE   H3Y19395   4.655   2.968   7.008 -0.9568 -0.3704  2.5381
  171SAPE   C3419396   4.805   2.960   7.164 -0.8497  0.2985 -0.3021
  171SAPE   H4X19397   4.827   3.068   7.155  1.2263 -0.1118 -0.5020
  171SAPE   H4Y19398   4.904   2.917   7.188 -0.6587  1.0991  0.3511
  171SAPE   C3519399   4.722   2.917   7.287 -0.0816  0.4479  0.2043
  171SAPE   H5X19400   4.737   2.807   7.291 -2.2759 -0.0227 -2.4041
  171SAPE   H5Y19401   4.615   2.942   7.269 -0.3424 -0.0570  1.0380
  171SAPE   C3619402   4.750   2.990   7.417 -0.3951 -0.0804 -0.1480
  171SAPE   H6X19403   4.733   3.099   7.405 -0.9989 -0.2236 -0.6511
  171SAPE   H6Y19404   4.852   2.971   7.456 -0.4639  1.9840  1.1192
  171SAPE   C3719405   4.646   2.956   7.519  0.7258 -0.2155  0.2324
  171SAPE   H7X19406   4.653   2.847   7.539 -1.1644 -0.1474  1.3955
  171SAPE   H7Y19407   4.545   2.980   7.479  1.0493 -0.1514 -0.5523
  171SAPE   C3819408   4.675   3.030   7.647 -0.1708  0.6496 -0.5703
  171SAPE   H8X19409   4.644   3.134   7.626 -1.0462  1.1481  2.8895
  171SAPE   H8Y19410   4.785   3.026   7.658 -0.0529  3.0272 -0.7381
  171SAPE   C3919411   4.583   2.981   7.756 -0.0637  0.4023 -0.0597
  171SAPE   H9X19412   4.603   2.873   7.776  0.1935  0.1244 -1.7455
  171SAPE   H9Y19413   4.479   2.996   7.721 -0.0761 -0.9524 -0.6506
  171SAPE  C31019414   4.597   3.058   7.883 -0.2293  0.7124 -0.4682
  171SAPE  H10X19415   4.524   3.047   7.965  2.0000  0.0656  1.4641
  171SAPE  H10Y19416   4.597   3.165   7.855  1.2988  0.7183 -0.5276
  171SAPE  C31119417   4.726   3.034   7.955 -0.5195  0.3821 -0.0227
  171SAPE  H11X19418   4.816   3.031   7.890 -0.0844 -1.6804  0.6372
  171SAPE  H11Y19419   4.716   2.936   8.008 -0.7882  1.2516  1.5802
  171SAPE  C31219420   4.743   3.133   8.068 -0.0550 -0.2897 -0.5977
  171SAPE  H12X19421   4.646   3.139   8.121  0.5444 -0.7633  0.5604
  171SAPE  H12Y19422   4.767   3.231   8.020  1.9998  0.3901  1.7267
  171SAPE  C31319423   4.853   3.093   8.169 -0.3655  0.5062 -0.1514
  171SAPE  H13X19424   4.940   3.064   8.108 -1.6137  0.9236 -2.1640
  171SAPE  H13Y19425   4.842   3.000   8.228  2.8286  1.3467  1.9082
  171SAPE  C31419426   4.897   3.206   8.264 -0.0359  0.2360 -0.4290
  171SAPE  H14X19427   4.806   3.242   8.316  0.1168  0.4478 -0.3054
  171SAPE  H14Y19428   4.922   3.301   8.211  1.1257  1.3747  2.0689
  171SAPE  C31519429   5.000   3.174   8.377 -0.7878 -0.0242  0.4550
  171SAPE  H15X19430   5.094   3.149   8.324 -0.1482  3.1045  0.0181
  171SAPE  H15Y19431   4.961   3.084   8.429 -2.4263  1.8009  2.4703
  171SAPE  C31619432   5.019   3.287   8.469  0.0520  0.2279 -0.6615
  171SAPE  H16X19433   5.043   3.386   8.424 -0.1741  0.9826  0.8415
  171SAPE  H16Y19434   5.107   3.268   8.534  0.3973  0.8181 -0.9549
  171SAPE  C31719435   4.900   3.292   8.572  0.3708  0.5963  0.0126
  171SAPE  H17X19436   4.889   3.193   8.620  1.0001  0.7978  0.5783
  171SAPE  H17Y19437   4.810   3.316   8.512  0.2753 -2.3845 -1.1233
  171SAPE  C31819438   4.928   3.393   8.689  0.2002  0.1281  0.4795
  171SAPE  H18X19439   4.852   3.360   8.762  0.8553 -2.6842 -0.0782
  171SAPE  H18Y19440   4.898   3.493   8.650  0.0924  0.3157  1.0493
  171SAPE  H18Z19441   5.035   3.392   8.720  0.6322  2.7101 -0.7123
  172SAPE     N19442   4.249   1.611   6.105 -0.3939 -0.1351  0.1453
  172SAPE   HN119443   4.169   1.651   6.052  0.2664 -0.4489 -1.1172
  172SAPE   HN219444   4.307   1.550   6.043  1.7414  0.2973  1.6520
  172SAPE   HN319445   4.202   1.547   6.173 -1.9856  2.3688  1.4544
  172SAPE   C1219446   4.317   1.706   6.189 -0.2840  0.0110 -0.9042
  172SAPE  H12A19447   4.240   1.764   6.244  1.2440  0.0845  1.2351
  172SAPE  H12B19448   4.383   1.763   6.120 -0.2393  1.0893  0.0069
  172SAPE   C1119449   4.411   1.625   6.294  0.2017  0.1203 -0.0892
  172SAPE  H11A19450   4.337   1.551   6.329 -0.2898  0.8658  0.4669
  172SAPE  H11B19451   4.434   1.694   6.378 -1.9652  1.4001 -0.5250
  172SAPE     P19452   4.566   1.427   6.243 -0.0691 -0.0500  0.0449
  172SAPE   O1319453   4.447   1.344   6.243  0.3498  0.0220  0.1045
  172SAPE   O1419454   4.674   1.395   6.147 -0.1911 -0.3303 -0.3868
  172SAPE   O1219455   4.536   1.580   6.251 -0.2810 -0.3545  0.0046
  172SAPE   O1119456   4.635   1.405   6.385 -0.5349 -0.1704 -0.4286
  172SAPE    C119457   4.744   1.487   6.426 -0.2206  0.1393 -0.9207
  172SAPE    HA19458   4.837   1.431   6.405 -0.7390 -0.9854 -0.2528
  172SAPE    HB19459   4.743   1.586   6.376  0.1760  0.2725 -0.6765
  172SAPE    C219460   4.721   1.505   6.583 -0.6011 -0.3549 -0.2267
  172SAPE    HS19461   4.796   1.578   6.620  0.8636 -0.5192 -2.7013
  172SAPE   O2119462   4.737   1.374   6.638 -0.3472  0.2397 -0.3093
  172SAPE   C2119463   4.856   1.325   6.651 -0.0962  0.3053  0.4928
  172SAPE   O2219464   4.960   1.385   6.628 -0.4056 -0.0042 -0.3562
  172SAPE   C2219465   4.857   1.181   6.700  0.0312 -0.0854  0.6277
  172SAPE   H2R19466   4.761   1.166   6.754  0.4248 -2.7069  0.6569
  172SAPE   H2S19467   4.857   1.104   6.620 -2.8285  1.2778 -0.7598
  172SAPE    C319468   4.588   1.573   6.625  0.9597 -0.4289  0.9634
  172SAPE    HX19469   4.497   1.526   6.581  1.3136 -1.2749  1.1390
  172SAPE    HY19470   4.595   1.670   6.571  4.3534  0.6740  3.2328
  172SAPE   O3119471   4.569   1.604   6.763 -0.1190 -0.4882 -0.8662
  172SAPE   C3119472   4.483   1.521   6.827 -0.1916  0.5041 -0.3415
  172SAPE   O3219473   4.423   1.432   6.772  0.6021  0.4967  0.1245
  172SAPE   C3219474   4.458   1.567   6.972  0.1942 -0.6793 -0.2959
  172SAPE   H2X19475   4.354   1.604   6.983  0.9932  0.8925  2.3403
  172SAPE   H2Y19476   4.526   1.654   6.986  0.6630 -1.2478  1.0140
  172SAPE   C2319477   4.955   1.134   6.814 -0.3151 -0.0392 -0.5497
  172SAPE   H3R19478   5.054   1.182   6.800 -0.7378  0.7846 -0.7101
  172SAPE   H3S19479   4.953   1.023   6.806 -1.4491  0.0067 -0.9552
  172SAPE   C2419480   4.904   1.179   6.958 -0.0143 -0.1108  1.0781
  172SAPE   H4R19481   4.965   1.133   7.038  1.2123  0.4269  0.4597
  172SAPE   H4S19482   4.804   1.130   6.966  0.0118 -0.2565  0.5290
  172SAPE   C2519483   4.916   1.326   6.975  0.1224  0.5376  0.5262
  172SAPE   H5R19484   4.854   1.380   6.902  0.9536  1.0361  0.1760
  172SAPE   C2619485   4.980   1.397   7.070  0.0836  0.2227 -0.1177
  172SAPE   H6R19486   4.977   1.504   7.046  0.7513  0.0349 -1.0834
  172SAPE   C2719487   5.059   1.334   7.190 -0.2597 -0.7122 -0.2934
  172SAPE   H7R19488   5.169   1.342   7.176  0.0308 -2.9184  0.4984
  172SAPE   H7S19489   5.038   1.226   7.204 -0.4790 -0.4018  1.9673
  172SAPE   C2819490   5.026   1.391   7.325  0.1729 -0.2892  0.0844
  172SAPE   H8R19491   4.918   1.410   7.336  0.2292  0.5728 -0.7830
  172SAPE   C2919492   5.108   1.409   7.433  0.6773  1.0445 -0.2019
  172SAPE   H9R19493   5.066   1.451   7.525 -0.0721 -2.1898  1.0224
  172SAPE  C21019494   5.251   1.373   7.432 -0.2402 -1.2325 -0.1325
  172SAPE  H10R19495   5.312   1.457   7.470 -0.0113 -0.0577 -2.9365
  172SAPE  H10S19496   5.288   1.375   7.327 -0.8950  0.9909 -0.3549
  172SAPE  C21119497   5.277   1.248   7.502  0.6169  0.3312 -0.4223
  172SAPE  H11R19498   5.259   1.157   7.442  0.3193 -0.5542  0.9632
  172SAPE  C21219499   5.294   1.226   7.634  0.1868  0.3903  0.2726
  172SAPE  H12R19500   5.311   1.122   7.666 -1.8860  0.4006  1.5115
  172SAPE  C21319501   5.297   1.328   7.751  0.0077 -0.6294 -0.3723
  172SAPE  H13R19502   5.229   1.307   7.837  0.4615 -0.3040  0.0682
  172SAPE  H13S19503   5.261   1.425   7.711  0.4447 -0.2866  0.0475
  172SAPE  C21419504   5.434   1.350   7.807  0.2273 -0.6987  1.1406
  172SAPE  H14R19505   5.487   1.433   7.759 -1.7276 -0.0573  0.0446
  172SAPE  C21519506   5.494   1.290   7.908 -0.4314  0.4391  0.7239
  172SAPE  H15R19507   5.593   1.335   7.930 -0.0090  0.1944 -0.6150
  172SAPE  C21619508   5.432   1.182   7.992  1.4651 -0.0639  0.4662
  172SAPE  H16R19509   5.443   1.089   7.932 -1.6416 -0.2264  0.0702
  172SAPE  H16S19510   5.327   1.212   8.012  1.7628  1.4972 -0.2742
  172SAPE  C21719511   5.496   1.156   8.128  0.8914 -0.3408  0.4149
  172SAPE  H17R19512   5.606   1.170   8.117  0.9281  0.1795  1.3752
  172SAPE  H17S19513   5.478   1.053   8.165  2.1127  0.3501  3.0637
  172SAPE  C21819514   5.434   1.257   8.237 -0.5156  0.1306  0.3367
  172SAPE  H18R19515   5.333   1.215   8.256  1.1244 -3.1915  2.2750
  172SAPE  H18S19516   5.418   1.354   8.185 -0.9965  0.2786  0.7548
  172SAPE  C21919517   5.516   1.266   8.366 -0.3011 -0.2173  0.6022
  172SAPE  H19R19518   5.505   1.169   8.418  2.0458 -0.7638  0.1511
  172SAPE  H19S19519   5.466   1.336   8.437  1.3075  1.1187  0.4470
  172SAPE  C22019520   5.661   1.295   8.357  0.5385 -0.1337  0.2344
  172SAPE  H20R19521   5.715   1.264   8.450 -1.6879 -0.9691  1.2914
  172SAPE  H20S19522   5.661   1.404   8.376 -2.6363 -0.4937  2.7907
  172SAPE  H20T19523   5.706   1.271   8.259 -0.0627  1.1713 -0.3582
  172SAPE   C3319524   4.504   1.460   7.078 -0.0698 -0.1668  0.1601
  172SAPE   H3X19525   4.607   1.424   7.057 -0.0456  0.5694 -1.0753
  172SAPE   H3Y19526   4.429   1.381   7.057 -1.2063  0.0221  3.2511
  172SAPE   C3419527   4.505   1.509   7.227 -0.5236  0.0965  0.3448
  172SAPE   H4X19528   4.410   1.561   7.252 -0.9494  0.1923 -1.4295
  172SAPE   H4Y19529   4.588   1.583   7.227  1.3918 -1.9762 -1.9922
  172SAPE   C3519530   4.548   1.398   7.327  0.8982 -0.2064 -0.2887
  172SAPE   H5X19531   4.641   1.342   7.302 -0.8719 -3.5296  0.3242
  172SAPE   H5Y19532   4.461   1.330   7.331  0.7480  0.0547  1.2798
  172SAPE   C3619533   4.580   1.454   7.468 -0.8316  0.1016  0.7735
  172SAPE   H6X19534   4.658   1.532   7.451 -2.1232  0.8342 -2.1266
  172SAPE   H6Y19535   4.597   1.370   7.539 -3.2872 -0.8591  0.2718
  172SAPE   C3719536   4.456   1.520   7.528  0.3694  0.0963 -0.4351
  172SAPE   H7X19537   4.387   1.436   7.549  0.2598  0.4306  0.5676
  172SAPE   H7Y19538   4.412   1.597   7.461 -2.4055 -1.7508 -0.7994
  172SAPE   C3819539   4.489   1.598   7.655  0.4279 -0.1536 -0.3350
  172SAPE   H8X19540   4.578   1.661   7.635 -0.4844  1.4154  0.4188
  172SAPE   H8Y19541   4.508   1.525   7.736 -1.1893 -1.2751 -0.9516
  172SAPE   C3919542   4.365   1.691   7.695 -0.4254  0.2734  0.1932
  172SAPE   H9X19543   4.304   1.632   7.766  1.0942 -0.0371  1.2697
  172SAPE   H9Y19544   4.293   1.697   7.610  0.8957  1.0690 -0.8969
  172SAPE  C31019545   4.411   1.824   7.751  0.0327 -0.5110  0.6664
  172SAPE  H10X19546   4.458   1.898   7.682 -1.1146 -0.0063  0.4237
  172SAPE  H10Y19547   4.494   1.802   7.822  0.9006 -0.3089 -0.2782
  172SAPE  C31119548   4.303   1.903   7.828 -0.0390 -0.4136  0.2221
  172SAPE  H11X19549   4.234   1.949   7.755 -1.2025 -0.4010  1.2985
  172SAPE  H11Y19550   4.355   1.992   7.869 -0.3841 -0.9175  1.8050
  172SAPE  C31219551   4.225   1.831   7.935 -0.4451  0.5593  0.2762
  172SAPE  H12X19552   4.294   1.791   8.013 -1.7489 -0.7463  0.8133
  172SAPE  H12Y19553   4.171   1.747   7.885 -0.7098 -0.2163  1.8167
  172SAPE  C31319554   4.121   1.920   8.010 -0.9017 -0.0147  0.5954
  172SAPE  H13X19555   4.058   1.964   7.930  1.8565 -0.2915 -1.8496
  172SAPE  H13Y19556   4.171   1.998   8.072  1.2587  0.8396 -2.0811
  172SAPE  C31419557   4.037   1.841   8.112  0.2104 -0.5403  0.8250
  172SAPE  H14X19558   4.002   1.761   8.042  2.0547 -0.8336  0.2258
  172SAPE  H14Y19559   3.954   1.905   8.149  0.7078  0.9138 -0.5048
  172SAPE  C31519560   4.108   1.787   8.231  0.3029  0.2387  0.0755
  172SAPE  H15X19561   4.148   1.874   8.287 -0.9820 -0.3993  2.0193
  172SAPE  H15Y19562   4.192   1.720   8.203  1.4851 -0.4252  4.7239
  172SAPE  C31619563   4.017   1.702   8.329  0.1398  0.5370 -0.1147
  172SAPE  H16X19564   4.077   1.647   8.404  2.3065  0.9263 -1.4998
  172SAPE  H16Y19565   3.975   1.620   8.268 -3.3842  2.1329  0.0746
  172SAPE  C31719566   3.911   1.784   8.401  0.1388  0.2472 -0.0406
  172SAPE  H17X19567   3.842   1.829   8.327  0.9573  1.6520  0.0331
  172SAPE  H17Y19568   3.955   1.869   8.458 -0.0523 -2.0948  3.8348
  172SAPE  C31819569   3.832   1.706   8.499  0.6029  0.0436 -0.7382
  172SAPE  H18X19570   3.776   1.619   8.457  1.7790 -1.8770  1.5351
  172SAPE  H18Y19571   3.763   1.772   8.556 -0.7370  1.0072 -3.4329
  172SAPE  H18Z19572   3.901   1.668   8.577  0.9958  1.5617 -0.3377
  173SOPE     N19573   5.732   5.481  10.888  1.0091 -0.1916 -0.0105
  173SOPE   HN119574   5.790   5.451  10.969  0.6339  0.8047  0.6316
  173SOPE   HN219575   5.790   5.544  10.830  0.3423  1.1241  0.7327
  173SOPE   HN319576   5.648   5.529  10.926  0.7770 -0.7923  0.2437
  173SOPE   C1219577   5.699   5.351  10.824 -0.1692  0.0372  0.3940
  173SOPE  H12A19578   5.789   5.285  10.825  1.0108  1.6381  1.9606
  173SOPE  H12B19579   5.663   5.375  10.721  1.7622 -0.0364 -0.3198
  173SOPE   C1119580   5.597   5.263  10.900 -0.3069 -0.0889  0.4586
  173SOPE  H11A19581   5.650   5.229  10.992  1.7022 -0.7786 -0.9318
  173SOPE  H11B19582   5.581   5.173  10.837 -1.7751  2.1570 -2.4863
  173SOPE     P19583   5.339   5.280  10.975 -0.2308  0.0925  0.2103
  173SOPE   O1319584   5.249   5.389  11.026  0.3368 -0.0410  0.0402
  173SOPE   O1419585   5.360   5.159  11.055  1.0714  0.4777  0.0139
  173SOPE   O1219586   5.479   5.343  10.937  0.4807 -1.1047 -0.2447
  173SOPE   O1119587   5.283   5.236  10.837  0.0564  0.5080 -0.6615
  173SOPE    C119588   5.303   5.306  10.711  0.3021 -0.1594 -0.2947
  173SOPE    HA19589   5.393   5.371  10.713  0.3536 -0.2118 -0.8094
  173SOPE    HB19590   5.223   5.383  10.703  1.5039  0.9836 -1.6196
  173SOPE    C219591   5.306   5.210  10.580  0.0815 -0.0422  0.0512
  173SOPE    HS19592   5.317   5.283  10.496  0.1307  0.1542  0.2295
  173SOPE   O2119593   5.195   5.124  10.572 -0.6372 -0.6161  0.2026
  173SOPE   C2119594   5.122   5.135  10.461 -0.6963  0.4848  0.3652
  173SOPE   O2219595   5.141   5.203  10.359  0.0976  0.2689 -0.2638
  173SOPE   C2219596   5.005   5.048  10.492 -0.0255 -1.0068 -0.0842
  173SOPE   H2R19597   4.953   5.101  10.575 -1.2224  1.2599 -2.1811
  173SOPE   H2S19598   5.028   4.943  10.519  0.0125 -1.6258 -2.4190
  173SOPE    C319599   5.438   5.126  10.583  0.2970 -0.0048  0.0071
  173SOPE    HX19600   5.433   5.051  10.665 -1.9258 -0.3940 -0.4360
  173SOPE    HY19601   5.520   5.194  10.612 -0.4919  0.3420  1.5310
  173SOPE   O3119602   5.460   5.052  10.459  0.4879 -0.0040  0.6502
  173SOPE   C3119603   5.519   5.130  10.370  0.3555  0.2244  0.3999
  173SOPE   O3219604   5.560   5.242  10.387  0.5042 -0.6767  0.2627
  173SOPE   C3219605   5.532   5.058  10.238 -0.4764  0.2449  0.1267
  173SOPE   H2X19606   5.510   4.950  10.254  1.3547 -0.1264  0.2318
  173SOPE   H2Y19607   5.637   5.064  10.203 -0.6765  0.7998 -0.3908
  173SOPE   C2319608   4.909   5.052  10.373  0.1953  0.1202  0.3570
  173SOPE   H3R19609   4.896   5.152  10.327  0.0685 -0.3891 -0.7284
  173SOPE   H3S19610   4.806   5.024  10.404 -0.7588  2.5643 -0.4848
  173SOPE   C2419611   4.937   4.952  10.262 -0.6666  0.1495 -0.2738
  173SOPE   H4R19612   5.042   4.964  10.226 -1.1958 -0.3211 -2.0649
  173SOPE   H4S19613   4.929   4.859  10.322  2.4945 -0.2997 -0.4169
  173SOPE   C2519614   4.834   4.947  10.144  0.2132  0.4544 -0.6904
  173SOPE   H5R19615   4.861   4.858  10.084 -0.1258  0.3744 -0.7269
  173SOPE   H5S19616   4.728   4.933  10.172 -0.4347  0.4474 -3.0220
  173SOPE   C2619617   4.836   5.065  10.052  0.6240 -0.4206 -0.0612
  173SOPE   H6R19618   4.762   5.044   9.972 -0.2142  1.9709  0.0601
  173SOPE   H6S19619   4.789   5.150  10.106  0.5538 -0.5799  0.1280
  173SOPE   C2719620   4.965   5.097   9.977  0.2469  0.5913 -0.6389
  173SOPE   H7R19621   5.033   5.130  10.058  0.4197 -0.0493 -0.5212
  173SOPE   H7S19622   5.014   5.007   9.935  3.2409  1.5011  0.8011
  173SOPE   C2819623   4.952   5.206   9.867 -0.3310 -0.4169 -0.5768
  173SOPE   H8R19624   4.865   5.270   9.893 -0.6425 -1.2095  0.3677
  173SOPE   H8S19625   5.042   5.272   9.864  0.5178 -1.5675 -0.8777
  173SOPE   C2919626   4.914   5.149   9.736 -0.2824  0.1668  0.7179
  173SOPE   H9119627   4.870   5.048   9.741 -0.0610  0.1301  2.5299
  173SOPE  C21019628   4.920   5.212   9.616 -0.3555 -0.0807  0.7951
  173SOPE  H10119629   4.877   5.174   9.522 -2.3079  2.9225  0.3913
  173SOPE  C21119630   4.960   5.355   9.595 -0.9302  0.4752  0.3441
  173SOPE  H11R19631   5.049   5.349   9.528 -1.3891 -3.2317  0.0111
  173SOPE  H11S19632   5.000   5.407   9.685 -0.7575  1.7851 -0.4745
  173SOPE  C21219633   4.860   5.442   9.530  0.0938  0.2300 -0.0933
  173SOPE  H12R19634   4.909   5.539   9.506  2.0177 -0.6650  0.1528
  173SOPE  H12S19635   4.773   5.470   9.593  1.2434  3.5946  0.1070
  173SOPE  C21319636   4.815   5.375   9.396  0.0739 -0.2067  1.1051
  173SOPE  H13R19637   4.763   5.278   9.412 -0.8094 -0.0044 -0.4692
  173SOPE  H13S19638   4.907   5.338   9.346 -0.1639  2.2634 -1.2581
  173SOPE  C21419639   4.738   5.470   9.306  0.0675  0.0717 -0.2940
  173SOPE  H14R19640   4.807   5.541   9.256 -1.5103  1.3149 -0.7756
  173SOPE  H14S19641   4.651   5.506   9.365 -0.3581 -1.9469  0.3388
  173SOPE  C21519642   4.670   5.397   9.196 -0.0727 -0.1964  0.4778
  173SOPE  H15R19643   4.577   5.348   9.233 -1.5312  0.7303 -1.8151
  173SOPE  H15S19644   4.735   5.320   9.150 -0.1039 -0.2397  0.5049
  173SOPE  C21619645   4.626   5.473   9.071 -0.2567  0.0491 -0.3309
  173SOPE  H16R19646   4.598   5.402   8.991  2.0322 -1.2811  0.0070
  173SOPE  H16S19647   4.710   5.540   9.044 -0.5129  0.0328 -1.1882
  173SOPE  C21719648   4.488   5.547   9.093 -0.0823 -0.1187  0.3325
  173SOPE  H17R19649   4.504   5.626   9.169  0.9558  0.4025 -0.4189
  173SOPE  H17S19650   4.423   5.470   9.141  0.8019 -1.9830 -1.3644
  173SOPE  C21819651   4.424   5.597   8.969 -0.3025 -0.2894  0.3436
  173SOPE  H18R19652   4.432   5.527   8.882  0.1370  1.5454 -1.1320
  173SOPE  H18S19653   4.484   5.684   8.935  1.3850 -1.8334 -0.7593
  173SOPE  H18T19654   4.320   5.634   8.979  0.0374  0.8000 -0.0206
  173SOPE   C3319655   5.439   5.115  10.129  0.6143  0.3305  0.3285
  173SOPE   H3X19656   5.434   5.226  10.123  1.7910  0.2807 -2.3706
  173SOPE   H3Y19657   5.334   5.086  10.149  0.7468  0.2970  0.9681
  173SOPE   C3419658   5.476   5.078   9.988  0.3570 -0.1885  0.2280
  173SOPE   H4X19659   5.462   4.969   9.969 -2.6925 -0.2726  2.6259
  173SOPE   H4Y19660   5.585   5.099   9.977  0.7957 -0.6309  3.3786
  173SOPE   C3519661   5.388   5.153   9.884 -0.0776  0.4485 -0.8864
  173SOPE   H5X19662   5.390   5.262   9.906 -1.4753  0.2615  0.2375
  173SOPE   H5Y19663   5.282   5.124   9.900 -0.0968  0.3918 -1.1153
  173SOPE   C3619664   5.429   5.133   9.737  0.0542  0.1615  0.2494
  173SOPE   H6X19665   5.457   5.028   9.712  0.7459  0.2062  0.7968
  173SOPE   H6Y19666   5.517   5.201   9.729 -0.5974  0.9168 -0.4801
  173SOPE   C3719667   5.316   5.175   9.641 -0.1721 -0.2523 -0.4218
  173SOPE   H7X19668   5.279   5.275   9.669 -0.1506 -0.1506 -0.7540
  173SOPE   H7Y19669   5.234   5.105   9.667  1.1430 -1.8026 -0.3284
  173SOPE   C3819670   5.370   5.175   9.493  0.0269 -0.1258  1.3010
  173SOPE   H8X19671   5.401   5.074   9.458 -1.7885 -0.4880  0.6682
  173SOPE   H8Y19672   5.462   5.237   9.482 -0.1120 -0.0417  0.5976
  173SOPE   C3919673   5.260   5.238   9.402 -0.7719 -0.6566 -0.0692
  173SOPE   H9X19674   5.221   5.334   9.443 -1.3505 -1.4325  1.2504
  173SOPE   H9Y19675   5.176   5.168   9.387  0.0171 -1.7681  0.6080
  173SOPE  C31019676   5.316   5.263   9.263 -0.4555  0.0821 -0.4649
  173SOPE  H10X19677   5.334   5.162   9.220  0.9504  0.0339  0.2014
  173SOPE  H10Y19678   5.410   5.323   9.272 -1.4813  1.6603 -0.0778
  173SOPE  C31119679   5.215   5.340   9.174 -0.2216 -0.6475 -0.1095
  173SOPE  H11X19680   5.279   5.373   9.089 -0.3009  0.1678  0.1428
  173SOPE  H11Y19681   5.174   5.428   9.227  2.8822  0.3340  0.8159
  173SOPE  C31219682   5.112   5.248   9.113  0.4403 -0.3884  0.0390
  173SOPE  H12X19683   5.030   5.219   9.182  1.5923 -0.0712  1.5617
  173SOPE  H12Y19684   5.166   5.159   9.074  0.9107 -0.4589  0.8427
  173SOPE  C31319685   5.046   5.324   8.998  0.2932  0.3998 -0.2826
  173SOPE  H13X19686   5.124   5.364   8.930 -0.0079 -0.8707 -1.4070
  173SOPE  H13Y19687   4.989   5.415   9.027 -0.5562 -0.1812 -0.1071
  173SOPE  C31419688   4.952   5.237   8.914 -0.5757 -0.0528 -0.6272
  173SOPE  H14X19689   4.875   5.197   8.983 -1.1149 -0.7430 -1.6197
  173SOPE  H14Y19690   5.013   5.161   8.861  1.1756  1.2499 -0.5383
  173SOPE  C31519691   4.863   5.316   8.809 -0.7425  0.2103  0.0991
  173SOPE  H15X19692   4.921   5.380   8.739 -0.4970  0.9275  0.9368
  173SOPE  H15Y19693   4.807   5.394   8.864 -0.1325  2.1450 -1.9378
  173SOPE  C31619694   4.765   5.220   8.731  0.0451  0.1104 -0.9744
  173SOPE  H16X19695   4.719   5.274   8.646  1.2775 -0.9916 -2.3663
  173SOPE  H16Y19696   4.681   5.195   8.800  0.6125  1.8014  0.3627
  173SOPE  C31719697   4.829   5.086   8.693 -0.8349 -0.6551  0.7684
  173SOPE  H17X19698   4.755   5.017   8.648 -0.2875  0.3103 -1.6797
  173SOPE  H17Y19699   4.858   5.038   8.789 -0.2919  1.9991  1.9529
  173SOPE  C31819700   4.948   5.098   8.596  0.1898  0.4574 -0.0799
  173SOPE  H18X19701   4.915   5.173   8.521 -0.7116  0.5326  0.3951
  173SOPE  H18Y19702   4.954   5.005   8.536  3.7698 -1.3899  2.9415
  173SOPE  H18Z19703   5.048   5.120   8.641  0.0279 -0.9067  0.9575
  174SOPE     N19704   5.228   4.915  11.051 -0.4032  0.1980 -0.2941
  174SOPE   HN119705   5.136   4.905  11.005  0.4936  1.5081 -2.4588
  174SOPE   HN219706   5.213   4.891  11.151  0.4009 -0.4906 -0.3373
  174SOPE   HN319707   5.266   5.012  11.045  3.3341 -1.2557 -1.7029
  174SOPE   C1219708   5.305   4.808  10.981  0.4873  0.3353 -0.4779
  174SOPE  H12A19709   5.256   4.709  10.988 -1.9393  1.6334  1.9772
  174SOPE  H12B19710   5.411   4.797  11.011  0.4088 -0.5497 -0.5390
  174SOPE   C1119711   5.297   4.835  10.820  0.5458 -0.4679  0.1219
  174SOPE  H11A19712   5.378   4.774  10.774  0.1836  1.1257 -2.7113
  174SOPE  H11B19713   5.321   4.943  10.820  0.1099 -0.3722  0.0882
  174SOPE     P19714   5.110   4.691  10.711  0.1625  0.1047  0.1168
  174SOPE   O1319715   4.967   4.718  10.685 -0.3734 -0.6511 -0.2056
  174SOPE   O1419716   5.122   4.583  10.812  0.2133  0.3361  0.0145
  174SOPE   O1219717   5.172   4.826  10.762  0.2644  0.0895  0.1992
  174SOPE   O1119718   5.192   4.647  10.587  0.5870  0.1586 -0.2467
  174SOPE    C119719   5.241   4.749  10.501 -0.4497 -0.4367 -0.1026
  174SOPE    HA19720   5.295   4.832  10.552  1.9599 -0.0447 -3.1225
  174SOPE    HB19721   5.164   4.788  10.431  2.1309 -0.4518 -3.0330
  174SOPE    C219722   5.345   4.676  10.405 -0.1115  0.2810 -0.1690
  174SOPE    HS19723   5.413   4.753  10.362  0.5937 -0.0284  0.3684
  174SOPE   O2119724   5.274   4.602  10.307  0.0610 -0.7627 -0.7270
  174SOPE   C2119725   5.223   4.686  10.215  0.1065  0.1545  0.0325
  174SOPE   O2219726   5.242   4.804  10.205  0.2885  0.4426  0.0889
  174SOPE   C2219727   5.115   4.612  10.140  0.7103  0.5091  0.2321
  174SOPE   H2R19728   5.017   4.642  10.183 -0.3167 -0.1804 -1.5463
  174SOPE   H2S19729   5.130   4.502  10.152 -0.0970  0.3417 -0.2146
  174SOPE    C319730   5.445   4.589  10.491 -0.4180 -0.1254 -0.4906
  174SOPE    HX19731   5.395   4.496  10.525  2.1713 -2.1583 -2.0320
  174SOPE    HY19732   5.465   4.643  10.586 -0.4096  0.1753 -0.6658
  174SOPE   O3119733   5.558   4.539  10.424 -0.0462 -0.7224 -1.3229
  174SOPE   C3119734   5.666   4.624  10.422 -0.3814 -0.5964 -1.1144
  174SOPE   O3219735   5.661   4.740  10.460  0.3247  0.2934  0.0555
  174SOPE   C3219736   5.793   4.563  10.376 -0.0099  0.0491 -0.1758
  174SOPE   H2X19737   5.773   4.454  10.366  0.7035 -0.1966  1.0714
  174SOPE   H2Y19738   5.871   4.581  10.452  2.2098  3.4516 -3.0572
  174SOPE   C2319739   5.105   4.660   9.992 -0.1842  0.3691  0.4035
  174SOPE   H3R19740   5.204   4.648   9.942 -0.5261  1.8253 -0.6498
  174SOPE   H3S19741   5.092   4.770   9.988  0.7505  0.5682  2.2897
  174SOPE   C2419742   5.002   4.586   9.903 -0.1542 -0.3781  1.0114
  174SOPE   H4R19743   5.015   4.477   9.917  1.7429 -0.5477 -1.5963
  174SOPE   H4S19744   4.900   4.608   9.941 -0.2777  1.0536 -0.0986
  174SOPE   C2519745   4.993   4.617   9.748  0.3838 -0.3443 -0.0690
  174SOPE   H5R19746   5.090   4.590   9.701 -0.1736  0.3487 -1.6611
  174SOPE   H5S19747   4.927   4.544   9.696 -0.1190 -0.4632  0.7180
  174SOPE   C2619748   4.964   4.769   9.718  0.1857  0.6166 -0.2784
  174SOPE   H6R19749   4.859   4.796   9.742 -0.1158 -0.9156  0.2097
  174SOPE   H6S19750   5.033   4.829   9.781  2.0916 -2.0215  0.2485
  174SOPE   C2719751   4.990   4.803   9.569  0.6801 -0.6685 -0.1650
  174SOPE   H7R19752   5.016   4.911   9.571 -0.9952 -0.2554  0.6077
  174SOPE   H7S19753   5.078   4.744   9.537  0.0560  0.6760 -4.6728
  174SOPE   C2819754   4.869   4.766   9.480 -0.0478  0.0487  0.0997
  174SOPE   H8R19755   4.806   4.677   9.497  0.2033 -0.3196 -0.8482
  174SOPE   H8S19756   4.793   4.841   9.508 -1.1655 -1.3328  0.8281
  174SOPE   C2919757   4.908   4.762   9.335 -0.6344 -0.3085 -0.2106
  174SOPE   H9119758   4.963   4.674   9.299 -0.1649  0.3100 -1.0229
  174SOPE  C21019759   4.870   4.862   9.250  0.5296 -0.2687  0.4686
  174SOPE  H10119760   4.911   4.850   9.149  1.0621 -0.8175  0.7408
  174SOPE  C21119761   4.790   4.984   9.274 -0.1517 -0.5064 -0.2098
  174SOPE  H11R19762   4.863   5.067   9.276 -2.1430  1.3131 -0.7454
  174SOPE  H11S19763   4.733   4.983   9.370 -0.1820 -0.8898 -0.2305
  174SOPE  C21219764   4.678   5.001   9.172  0.4992  0.1386 -0.2319
  174SOPE  H12R19765   4.716   4.989   9.068  1.1442  0.1754 -0.0011
  174SOPE  H12S19766   4.625   5.099   9.181  2.6907  1.4233 -0.8137
  174SOPE  C21319767   4.552   4.910   9.180 -0.0194 -0.0709  0.5318
  174SOPE  H13R19768   4.505   4.894   9.280  0.1463  3.2771  1.2080
  174SOPE  H13S19769   4.576   4.808   9.145 -1.3784  0.1344 -1.0496
  174SOPE  C21419770   4.432   4.965   9.095  0.6769  0.2398  0.2299
  174SOPE  H14R19771   4.454   4.936   8.990  0.3926 -0.4387  0.3494
  174SOPE  H14S19772   4.415   5.074   9.106  0.0109  0.2486 -0.7679
  174SOPE  C21519773   4.296   4.892   9.135  0.7821  0.1335 -0.5832
  174SOPE  H15R19774   4.275   4.946   9.229 -2.0088 -1.3666 -0.2813
  174SOPE  H15S19775   4.298   4.785   9.164 -1.3499 -0.1059 -1.2302
  174SOPE  C21619776   4.184   4.921   9.032  0.2827 -0.5647 -0.1996
  174SOPE  H16R19777   4.197   4.870   8.934  1.4853  0.3383 -0.5201
  174SOPE  H16S19778   4.196   5.030   9.011  2.3412 -0.7597 -0.1626
  174SOPE  C21719779   4.048   4.900   9.087  0.3345  0.1129 -0.3322
  174SOPE  H17R19780   4.036   4.929   9.193  1.2150 -0.3131 -0.1130
  174SOPE  H17S19781   4.040   4.789   9.089  2.5455 -0.0404  0.5484
  174SOPE  C21819782   3.935   4.962   9.008  0.1794  0.3337  0.0107
  174SOPE  H18R19783   3.910   4.904   8.917  0.4116  0.6902 -0.2751
  174SOPE  H18S19784   3.952   5.070   8.991 -2.2327  0.6804 -0.4147
  174SOPE  H18T19785   3.850   4.956   9.080 -0.1030 -1.7855 -0.4587
  174SOPE   C3319786   5.847   4.624  10.249 -0.4452  0.4240 -0.3923
  174SOPE   H3X19787   5.951   4.597  10.219  0.1922  1.3209  0.9603
  174SOPE   H3Y19788   5.849   4.735  10.255  0.8500  0.4514 -1.0515
  174SOPE   C3419789   5.755   4.595  10.137  0.1912 -0.0728  0.8930
  174SOPE   H4X19790   5.695   4.688  10.124  1.4532  0.7379  0.7560
  174SOPE   H4Y19791   5.678   4.517  10.154 -1.0351  0.5244 -1.5717
  174SOPE   C3519792   5.834   4.569  10.008  0.4048  0.0611  0.7147
  174SOPE   H5X19793   5.882   4.469  10.016  1.2006  0.4247  0.5583
  174SOPE   H5Y19794   5.916   4.645  10.009  3.6085 -3.1993 -1.9121
  174SOPE   C3619795   5.754   4.599   9.882  0.4148  0.3017  0.4385
  174SOPE   H6X19796   5.813   4.598   9.788  2.1928 -1.0987  1.5617
  174SOPE   H6Y19797   5.712   4.702   9.889  2.4336  1.1527  0.3693
  174SOPE   C3719798   5.634   4.513   9.854  0.1628 -0.1563  0.1539
  174SOPE   H7X19799   5.582   4.503   9.952 -3.7026 -2.1443 -1.9871
  174SOPE   H7Y19800   5.676   4.411   9.838  2.7871  0.8798  0.1366
  174SOPE   C3819801   5.551   4.574   9.735 -0.2372  0.0747  0.0298
  174SOPE   H8X19802   5.488   4.495   9.689 -0.4030 -0.5139  1.2310
  174SOPE   H8Y19803   5.618   4.586   9.647 -1.3443 -0.9623 -0.9623
  174SOPE   C3919804   5.451   4.692   9.759  0.2829  0.4369 -0.1235
  174SOPE   H9X19805   5.488   4.759   9.840 -0.4478  0.5752  0.1087
  174SOPE   H9Y19806   5.354   4.647   9.791 -0.0756  1.4024  0.1873
  174SOPE  C31019807   5.422   4.762   9.622  0.4444  0.0218  0.3631
  174SOPE  H10X19808   5.524   4.798   9.597  1.2224 -2.6346 -0.4941
  174SOPE  H10Y19809   5.353   4.845   9.647  2.3155  1.6143  0.3979
  174SOPE  C31119810   5.352   4.684   9.509  0.2137 -0.6146  0.3453
  174SOPE  H11X19811   5.264   4.630   9.552  0.7368 -1.5664  0.2504
  174SOPE  H11Y19812   5.410   4.594   9.481 -0.1171 -0.5312 -0.6012
  174SOPE  C31219813   5.323   4.768   9.384  0.2975  0.3852 -0.0899
  174SOPE  H12X19814   5.414   4.823   9.353  0.6863  0.5056  1.2255
  174SOPE  H12Y19815   5.253   4.849   9.414 -0.5666  0.8174 -3.0564
  174SOPE  C31319816   5.284   4.680   9.268  0.1276 -0.0677 -0.1844
  174SOPE  H13X19817   5.196   4.626   9.309 -0.1545  1.3584  1.1263
  174SOPE  H13Y19818   5.364   4.606   9.244 -0.8611 -1.2849  0.2078
  174SOPE  C31419819   5.251   4.755   9.133 -0.2711  0.1375 -0.1014
  174SOPE  H14X19820   5.344   4.812   9.114  0.0290 -0.0495  0.7776
  174SOPE  H14Y19821   5.162   4.821   9.145  0.3043  0.9059 -0.0794
  174SOPE  C31519822   5.234   4.676   9.010 -0.1059 -0.2780  0.0706
  174SOPE  H15X19823   5.142   4.615   9.015 -1.8759  2.2578 -0.8373
  174SOPE  H15Y19824   5.314   4.602   8.989 -1.6144 -2.1636  0.9099
  174SOPE  C31619825   5.229   4.779   8.899  0.1302 -0.4178 -0.0193
  174SOPE  H16X19826   5.316   4.845   8.917 -0.6594  0.8753 -0.8608
  174SOPE  H16Y19827   5.145   4.849   8.918 -0.3625 -0.6900 -1.1174
  174SOPE  C31719828   5.210   4.737   8.750 -0.5690 -0.6587 -0.7640
  174SOPE  H17X19829   5.112   4.685   8.738 -0.0304 -2.3021  1.6163
  174SOPE  H17Y19830   5.283   4.663   8.711  1.0765 -0.3626  1.6419
  174SOPE  C31819831   5.204   4.864   8.651 -0.2777  0.3154 -0.5847
  174SOPE  H18X19832   5.304   4.895   8.615  0.2168  1.0035  1.3006
  174SOPE  H18Y19833   5.155   4.947   8.707  0.1611 -1.1829  2.0903
  174SOPE  H18Z19834   5.134   4.849   8.566 -0.9562 -0.4951  0.0957
  175SOPE     N19835   6.718   6.106  10.585  0.5485 -0.3864 -0.2290
  175SOPE   HN119836   6.652   6.116  10.505  0.7831 -0.8273 -0.4795
  175SOPE   HN219837   6.706   6.010  10.624  0.3964  0.8641  2.9132
  175SOPE   HN319838   6.701   6.168  10.667  0.3778 -0.0394 -0.5249
  175SOPE   C1219839   6.862   6.138  10.555  0.4331  0.1862  0.4708
  175SOPE  H12A19840   6.892   6.068  10.474  0.1221 -1.2674  1.5971
  175SOPE  H12B19841   6.919   6.122  10.649  2.1485  0.4924 -0.4835
  175SOPE   C1119842   6.878   6.279  10.513  0.0175 -0.1323  0.1062
  175SOPE  H11A19843   6.829   6.305  10.417 -4.1741  0.7628  2.3750
  175SOPE  H11B19844   6.988   6.279  10.496  0.0928  0.4862  0.5523
  175SOPE     P19845   6.916   6.525  10.594 -0.4930 -0.0210  0.5745
  175SOPE   O1319846   7.061   6.520  10.613 -0.3377  0.2738  0.1530
  175SOPE   O1419847   6.849   6.628  10.673  0.1304  0.1891  0.5088
  175SOPE   O1219848   6.857   6.375  10.620  0.2793 -0.2466  0.4151
  175SOPE   O1119849   6.881   6.551  10.446 -0.5118  0.0330 -0.0708
  175SOPE    C119850   6.743   6.574  10.407  0.2659 -0.0746  0.2541
  175SOPE    HA19851   6.686   6.650  10.464  0.3462 -0.3668  0.7270
  175SOPE    HB19852   6.691   6.476  10.412  0.3059 -0.1328 -0.3722
  175SOPE    C219853   6.741   6.619  10.256 -0.3385  0.3271 -0.0425
  175SOPE    HS19854   6.637   6.628  10.218 -0.5616 -0.8979  0.2811
  175SOPE   O2119855   6.821   6.528  10.177  0.7828  0.2036  0.4910
  175SOPE   C2119856   6.759   6.413  10.151 -0.7777 -0.2617 -0.0736
  175SOPE   O2219857   6.647   6.387  10.182 -0.0661  0.0450 -0.6360
  175SOPE   C2219858   6.827   6.340  10.038  0.5862  0.4690  0.1486
  175SOPE   H2R19859   6.770   6.246  10.020  2.1889 -0.6520  0.8507
  175SOPE   H2S19860   6.928   6.314  10.074 -0.2023 -1.7607  0.8322
  175SOPE    C319861   6.809   6.756  10.240 -0.4073 -0.1265 -0.0704
  175SOPE    HX19862   6.911   6.756  10.283 -0.1745 -0.7420 -0.6096
  175SOPE    HY19863   6.753   6.837  10.292  1.4397  0.0721  1.6662
  175SOPE   O3119864   6.797   6.799  10.101 -0.2505 -0.1836  0.1959
  175SOPE   C3119865   6.902   6.783  10.034  0.0493  0.1446  0.2204
  175SOPE   O3219866   7.005   6.726  10.067  0.0601  0.2748 -0.0747
  175SOPE   C3219867   6.867   6.834   9.898  0.2061 -0.3728  0.0566
  175SOPE   H2X19868   6.797   6.920   9.895 -1.3300 -1.5782  0.8151
  175SOPE   H2Y19869   6.811   6.756   9.843 -2.4935 -0.3584  2.6678
  175SOPE   C2319870   6.848   6.427   9.917 -0.2719  0.3963  0.8307
  175SOPE   H3R19871   6.915   6.513   9.933 -1.6193  1.3978  1.1482
  175SOPE   H3S19872   6.749   6.467   9.885 -0.6146  0.2366  1.6760
  175SOPE   C2419873   6.891   6.356   9.787  0.4188  0.8560 -0.6243
  175SOPE   H4R19874   6.989   6.306   9.805 -0.4230 -0.8632 -0.6626
  175SOPE   H4S19875   6.830   6.263   9.779  1.5476  0.1560 -1.3055
  175SOPE   C2519876   6.893   6.453   9.668 -0.6800  0.2601  0.0438
  175SOPE   H5R19877   6.800   6.513   9.662  0.0910  1.6470  1.5766
  175SOPE   H5S19878   6.973   6.530   9.675 -0.4430  0.1557 -1.2706
  175SOPE   C2619879   6.899   6.368   9.542 -0.3543 -0.1783  0.8045
  175SOPE   H6R19880   6.999   6.320   9.549  0.3348  1.4264  2.1527
  175SOPE   H6S19881   6.822   6.288   9.548 -1.3334  0.7878  1.1663
  175SOPE   C2719882   6.882   6.457   9.414  0.2577 -0.2890 -0.5590
  175SOPE   H7R19883   6.772   6.465   9.401  0.1914  0.4837  0.3807
  175SOPE   H7S19884   6.917   6.559   9.441  0.4110 -0.7372  0.9987
  175SOPE   C2819885   6.948   6.398   9.292  0.7230 -0.8195  0.0778
  175SOPE   H8R19886   7.051   6.379   9.327  0.7956  0.5989  0.6628
  175SOPE   H8S19887   6.895   6.303   9.270  0.7927 -0.4568 -1.8332
  175SOPE   C2919888   6.944   6.495   9.178  0.2854 -0.4670 -0.0465
  175SOPE   H9119889   7.009   6.584   9.183  1.0778 -0.9849 -0.9879
  175SOPE  C21019890   6.873   6.485   9.060  0.0790 -0.4490 -0.1341
  175SOPE  H10119891   6.885   6.566   8.986  1.1830 -0.4082  0.0849
  175SOPE  C21119892   6.779   6.374   9.022 -0.1085 -0.5577  0.2163
  175SOPE  H11R19893   6.789   6.282   9.083 -0.1638 -0.3847  0.4862
  175SOPE  H11S19894   6.805   6.338   8.920 -2.5292  1.9835 -1.3782
  175SOPE  C21219895   6.636   6.419   9.018 -0.9152  0.1739 -0.1031
  175SOPE  H12R19896   6.582   6.326   8.990 -0.7980 -0.0682  0.4618
  175SOPE  H12S19897   6.617   6.507   8.954  1.2766  0.9951  0.3415
  175SOPE  C21319898   6.584   6.452   9.158 -0.2915  0.5617  0.1247
  175SOPE  H13R19899   6.618   6.553   9.191  1.5057 -0.1015  0.3825
  175SOPE  H13S19900   6.632   6.374   9.220  0.3505 -0.5911 -1.7786
  175SOPE  C21419901   6.433   6.447   9.160 -0.2953  0.7200 -0.0564
  175SOPE  H14R19902   6.389   6.353   9.121  2.0323  1.0303 -3.5957
  175SOPE  H14S19903   6.391   6.514   9.082 -2.1605 -1.3340 -0.8508
  175SOPE  C21519904   6.372   6.476   9.301  0.4363  0.6728 -0.0055
  175SOPE  H15R19905   6.262   6.490   9.292  0.4100 -0.5851 -2.1123
  175SOPE  H15S19906   6.416   6.565   9.351  1.5577 -0.2792  0.7189
  175SOPE  C21619907   6.394   6.360   9.397  0.8368 -0.3041 -0.3626
  175SOPE  H16R19908   6.498   6.364   9.436  1.0198  0.6350 -0.9463
  175SOPE  H16S19909   6.375   6.263   9.346  2.2870 -0.7513 -0.0834
  175SOPE  C21719910   6.310   6.364   9.523 -0.2181 -0.0375  0.5837
  175SOPE  H17R19911   6.202   6.371   9.498  0.3006  2.8828 -1.0191
  175SOPE  H17S19912   6.336   6.449   9.590 -2.5361  1.3555 -0.2177
  175SOPE  C21819913   6.335   6.241   9.607 -0.4715 -0.1791  0.4934
  175SOPE  H18R19914   6.304   6.156   9.542 -3.1987  1.7027 -0.7586
  175SOPE  H18S19915   6.272   6.226   9.697  2.0233 -0.3335  2.2473
  175SOPE  H18T19916   6.440   6.230   9.641 -0.1548 -1.2262 -0.8042
  175SOPE   C3319917   6.999   6.860   9.819  0.5443  0.8124  0.7326
  175SOPE   H3X19918   7.059   6.766   9.823 -1.4705 -0.5307  0.3346
  175SOPE   H3Y19919   7.064   6.940   9.861  1.8471 -0.1201  0.5534
  175SOPE   C3419920   6.983   6.901   9.668 -0.0822 -0.4675 -0.1294
  175SOPE   H4X19921   6.967   7.011   9.657  2.3312 -0.2885 -2.1645
  175SOPE   H4Y19922   6.903   6.844   9.615 -1.1445 -0.5957  1.5504
  175SOPE   C3519923   7.105   6.877   9.589  0.5998 -0.6158  0.5089
  175SOPE   H5X19924   7.114   6.767   9.576  1.6609 -0.6913  1.7973
  175SOPE   H5Y19925   7.194   6.908   9.648 -1.0492  0.4323  2.4784
  175SOPE   C3619926   7.114   6.927   9.444  0.8875  0.0751  0.3248
  175SOPE   H6X19927   7.084   7.034   9.436  0.7413 -0.1040 -1.6564
  175SOPE   H6Y19928   7.041   6.861   9.395  0.6343  0.5254  0.0899
  175SOPE   C3719929   7.247   6.897   9.382  0.0296  0.3372 -0.0557
  175SOPE   H7X19930   7.296   6.816   9.440 -1.2437 -0.0922  0.4274
  175SOPE   H7Y19931   7.302   6.993   9.396 -3.2886  2.5261 -1.3651
  175SOPE   C3819932   7.226   6.867   9.232 -0.7547  0.0385 -0.2620
  175SOPE   H8X19933   7.154   6.783   9.227 -1.6952  0.7986  0.5583
  175SOPE   H8Y19934   7.317   6.833   9.177 -0.9222  0.2965 -0.7042
  175SOPE   C3919935   7.161   6.990   9.154 -0.3442 -0.2136  0.1609
  175SOPE   H9X19936   7.221   7.079   9.183  1.8884 -1.3894 -0.6802
  175SOPE   H9Y19937   7.057   6.991   9.193 -0.4299 -0.3564 -0.0601
  175SOPE  C31019938   7.164   6.973   9.003  0.0401  0.5028 -0.2804
  175SOPE  H10X19939   7.113   6.880   8.968 -1.0467  1.0141 -0.0844
  175SOPE  H10Y19940   7.269   6.976   8.968  0.0577 -1.9858 -0.5798
  175SOPE  C31119941   7.089   7.088   8.930  0.7156  0.3488 -0.5242
  175SOPE  H11X19942   7.119   7.179   8.987 -1.2996  0.4751  0.3809
  175SOPE  H11Y19943   6.981   7.080   8.951  0.6114 -1.9353 -1.7717
  175SOPE  C31219944   7.110   7.109   8.781 -0.4506 -0.1640 -0.6428
  175SOPE  H12X19945   7.216   7.081   8.765  0.0093  2.4192 -2.3953
  175SOPE  H12Y19946   7.096   7.215   8.750  2.6010  0.0762 -1.3709
  175SOPE  C31319947   7.012   7.025   8.693 -0.7419  0.2882  0.5242
  175SOPE  H13X19948   6.921   7.085   8.669 -1.1479 -0.1957  0.8329
  175SOPE  H13Y19949   6.983   6.941   8.760 -1.9847  1.0042  0.9211
  175SOPE  C31419950   7.070   6.965   8.570  0.8852  0.4907  0.9906
  175SOPE  H14X19951   7.018   6.873   8.535  0.9909 -0.5843  3.5490
  175SOPE  H14Y19952   7.175   6.934   8.593  0.5868 -0.4948  1.0434
  175SOPE  C31519953   7.077   7.071   8.463 -0.3636  0.3636 -0.1746
  175SOPE  H15X19954   7.110   7.170   8.500 -1.3925  0.3796  0.7101
  175SOPE  H15Y19955   6.975   7.094   8.423 -0.8753  0.6354  1.2699
  175SOPE  C31619956   7.175   7.027   8.350  0.5479 -0.7359  0.0432
  175SOPE  H16X19957   7.144   6.930   8.306 -2.0790 -0.0406  0.2845
  175SOPE  H16Y19958   7.274   7.018   8.400 -0.2674 -0.0521  1.8042
  175SOPE  C31719959   7.203   7.132   8.239  0.3622 -0.4698  0.4094
  175SOPE  H17X19960   7.287   7.100   8.174  0.8616  2.1396 -0.3037
  175SOPE  H17Y19961   7.235   7.221   8.298  1.7115 -1.4948  1.2472
  175SOPE  C31819962   7.081   7.158   8.160 -0.5204  0.2290  0.1392
  175SOPE  H18X19963   7.044   7.082   8.088 -0.6180 -0.4239  0.8723
  175SOPE  H18Y19964   7.103   7.256   8.112 -1.7284  0.5264  0.1615
  175SOPE  H18Z19965   6.999   7.177   8.232 -0.1798  2.1183  0.0504
  176SOPE     N19966   0.078   5.943  11.139  0.0766  0.9017  0.3612
  176SOPE   HN119967   0.075   6.030  11.082  0.3869  0.4900 -0.2908
  176SOPE   HN219968  -0.007   5.945  11.199  0.7457  2.4834  1.2935
  176SOPE   HN319969   0.168   5.939  11.191  0.2867 -1.1910 -0.1379
  176SOPE   C1219970   0.085   5.837  11.035 -0.1405 -0.5072 -0.3724
  176SOPE  H12A19971   0.013   5.757  11.064 -0.8560  1.1660  2.6475
  176SOPE  H12B19972   0.190   5.808  11.015  0.0767  0.0702 -0.0724
  176SOPE   C1119973   0.030   5.905  10.913  0.1885 -0.4573  0.6233
  176SOPE  H11A19974   0.032   5.833  10.828  2.2520 -2.1301  2.0511
  176SOPE  H11B19975   0.096   5.988  10.879  4.3508 -4.1009 -0.5442
  176SOPE     P19976  -0.241   5.904  10.882 -0.1492 -0.6282 -0.4074
  176SOPE   O1319977  -0.350   5.997  10.927  0.2982  0.3046  0.1879
  176SOPE   O1419978  -0.252   5.765  10.924  0.4456 -0.0694  0.1745
  176SOPE   O1219979  -0.104   5.960  10.932  0.2224  0.4377  0.1134
  176SOPE   O1119980  -0.224   5.915  10.725  0.0367  0.8428 -0.3623
  176SOPE    C119981  -0.274   5.811  10.638 -0.6033  0.0403 -0.1630
  176SOPE    HA19982  -0.313   5.843  10.539 -1.2513  1.3807  0.5294
  176SOPE    HB19983  -0.356   5.750  10.683 -1.5417  1.6740  0.3563
  176SOPE    C219984  -0.161   5.712  10.596  0.1198  0.2531  0.1670
  176SOPE    HS19985  -0.108   5.684  10.689 -0.7818 -0.7231  0.3958
  176SOPE   O2119986  -0.069   5.775  10.505  0.8291 -0.0810  0.0517
  176SOPE   C2119987   0.033   5.700  10.483  0.0383  0.5952 -0.0065
  176SOPE   O2219988   0.058   5.595  10.541  0.2210  0.0563  0.0798
  176SOPE   C2219989   0.125   5.765  10.388  0.4166  0.0261  0.1753
  176SOPE   H2R19990   0.173   5.855  10.431 -0.8718  0.7735  0.0752
  176SOPE   H2S19991   0.063   5.794  10.300  0.0515 -0.7549  0.1673
  176SOPE    C319992  -0.238   5.583  10.547  0.2130 -0.6024 -0.6076
  176SOPE    HX19993  -0.276   5.538  10.641 -2.4818  2.1045 -0.3597
  176SOPE    HY19994  -0.168   5.516  10.492  0.4585  2.7968 -4.7056
  176SOPE   O3119995  -0.342   5.607  10.453  0.5102 -0.1172 -0.3956
  176SOPE   C3119996  -0.457   5.539  10.452 -0.2878 -0.4143  0.3363
  176SOPE   O3219997  -0.483   5.441  10.516 -0.5985 -0.2074  0.0757
  176SOPE   C3219998  -0.536   5.605  10.332  0.3732  0.2325 -0.1478
  176SOPE   H2X19999  -0.467   5.626  10.248 -0.3046  1.1067 -0.4858
  176SOPE   H2Y20000  -0.578   5.698  10.375  1.9143  1.1358 -0.5716
  176SOPE   C2320001   0.234   5.669  10.342  0.5071  0.2099  0.3251
  176SOPE   H3R20002   0.187   5.582  10.291  4.1281 -1.4462 -0.4006
  176SOPE   H3S20003   0.291   5.628  10.428 -0.0878 -0.2298  0.5150
  176SOPE   C2420004   0.328   5.744  10.248 -0.1769 -0.4679  0.0643
  176SOPE   H4R20005   0.366   5.833  10.303 -2.4158  0.0324  0.8798
  176SOPE   H4S20006   0.415   5.679  10.227  1.1855  1.5089 -0.5462
  176SOPE   C2520007   0.271   5.804  10.125  0.2069 -0.1435  0.3790
  176SOPE   H5R20008   0.222   5.732  10.055  0.5935  0.1764 -0.2315
  176SOPE   H5S20009   0.194   5.883  10.138  1.3653  1.3572 -1.5102
  176SOPE   C2620010   0.385   5.858  10.035 -0.3001  0.4037  0.5346
  176SOPE   H6R20011   0.457   5.908  10.103  1.6044 -1.0977 -0.3328
  176SOPE   H6S20012   0.443   5.772   9.995  2.1728  1.9268  0.7584
  176SOPE   C2720013   0.345   5.948   9.918  0.7148 -0.3129  0.4938
  176SOPE   H7R20014   0.284   6.035   9.952  1.3141  0.3482 -0.0902
  176SOPE   H7S20015   0.436   5.999   9.879  0.9580 -2.6323 -2.0757
  176SOPE   C2820016   0.299   5.878   9.788  0.4093  0.3468  0.4113
  176SOPE   H8R20017   0.384   5.814   9.759  0.4573  0.4901  0.2372
  176SOPE   H8S20018   0.209   5.815   9.807  0.0754  0.3753 -1.0396
  176SOPE   C2920019   0.258   5.979   9.682  0.7835  0.1890  0.3184
  176SOPE   H9120020   0.166   6.029   9.715  0.0411 -0.2816 -1.0277
  176SOPE  C21020021   0.329   6.013   9.571  0.2178  0.4870  0.2699
  176SOPE  H10120022   0.294   6.093   9.504  0.8000  1.2395  0.8558
  176SOPE  C21120023   0.463   5.953   9.537 -0.2087 -0.3353 -0.4097
  176SOPE  H11R20024   0.472   5.851   9.580 -1.7764 -0.2572  0.1264
  176SOPE  H11S20025   0.536   6.028   9.573 -3.1009  1.5434  1.7938
  176SOPE  C21220026   0.481   5.939   9.386  0.1087  0.0791  0.4030
  176SOPE  H12R20027   0.567   5.870   9.371  1.1228  1.4166 -0.0141
  176SOPE  H12S20028   0.502   6.037   9.338  1.8931 -0.2327  0.5045
  176SOPE  C21320029   0.363   5.869   9.307 -0.8453  0.7050 -0.0095
  176SOPE  H13R20030   0.281   5.945   9.302  0.3933  2.0483 -0.3852
  176SOPE  H13S20031   0.335   5.772   9.353 -0.7274  0.1987 -0.9937
  176SOPE  C21420032   0.410   5.831   9.163 -0.2287 -0.3989 -0.8677
  176SOPE  H14R20033   0.340   5.759   9.118  0.1328 -0.1954 -1.7841
  176SOPE  H14S20034   0.510   5.783   9.165 -0.1332 -0.1638  0.7088
  176SOPE  C21520035   0.419   5.947   9.067  0.0152  0.0458 -0.3229
  176SOPE  H15R20036   0.498   6.024   9.081  0.9457 -1.3313  2.2725
  176SOPE  H15S20037   0.321   5.998   9.073  0.8766  1.7485 -0.2407
  176SOPE  C21620038   0.419   5.901   8.925  1.0844 -0.1504  0.0448
  176SOPE  H16R20039   0.330   5.847   8.888  3.2524 -2.0842 -2.5500
  176SOPE  H16S20040   0.500   5.825   8.914  0.1744 -1.0744 -0.3210
  176SOPE  C21720041   0.438   6.015   8.829 -0.4609 -0.2229  0.4883
  176SOPE  H17R20042   0.535   6.060   8.860  0.5676 -1.7590 -0.4093
  176SOPE  H17S20043   0.349   6.080   8.835 -0.5540 -0.1753 -1.3319
  176SOPE  C21820044   0.451   5.965   8.687 -0.3476 -0.1051 -0.3864
  176SOPE  H18R20045   0.547   5.914   8.665 -0.2873 -0.0621 -0.2222
  176SOPE  H18S20046   0.447   6.054   8.621 -0.3461  0.0811 -0.1349
  176SOPE  H18T20047   0.374   5.895   8.648 -2.5868 -1.2996  5.5825
  176SOPE   C3320048  -0.642   5.506  10.282  0.1554 -0.0768 -0.3124
  176SOPE   H3X20049  -0.721   5.490  10.358  1.9913  1.1325  1.8847
  176SOPE   H3Y20050  -0.597   5.409  10.252 -1.1834 -0.4332 -1.1867
  176SOPE   C3420051  -0.712   5.554  10.156  0.4994  0.4625  0.0461
  176SOPE   H4X20052  -0.633   5.568  10.078  0.4015  0.8655  0.0172
  176SOPE   H4Y20053  -0.764   5.650  10.173 -2.1640 -1.1051  0.9990
  176SOPE   C3520054  -0.813   5.450  10.104  0.2665  0.6582  0.0876
  176SOPE   H5X20055  -0.872   5.419  10.193  0.6288 -2.2108 -0.6219
  176SOPE   H5Y20056  -0.756   5.363  10.065 -2.4909 -0.7243 -0.9545
  176SOPE   C3620057  -0.905   5.519  10.003  0.0347  0.8292  0.2313
  176SOPE   H6X20058  -0.846   5.591   9.942  0.7461 -2.1824 -2.8109
  176SOPE   H6Y20059  -0.973   5.578  10.067  1.6459  1.6375  1.2263
  176SOPE   C3720060  -0.966   5.413   9.906 -0.5083 -0.0478 -0.4214
  176SOPE   H7X20061  -0.991   5.328   9.973  2.2183 -1.2343 -0.8668
  176SOPE   H7Y20062  -0.882   5.371   9.847 -0.8732  0.1865 -1.1150
  176SOPE   C3820063  -1.092   5.451   9.821 -0.1902 -0.1994 -0.4254
  176SOPE   H8X20064  -1.169   5.502   9.883  1.6691  0.9453  1.0010
  176SOPE   H8Y20065  -1.123   5.349   9.791 -1.3397 -0.6340  2.0965
  176SOPE   C3920066  -1.064   5.525   9.686 -0.9587 -0.0663  0.5457
  176SOPE   H9X20067  -1.009   5.459   9.615 -0.8672 -0.2926  0.8270
  176SOPE   H9Y20068  -1.006   5.617   9.709 -1.0989  0.3241 -0.6286
  176SOPE  C31020069  -1.190   5.573   9.611  0.4396 -0.1613 -0.5655
  176SOPE  H10X20070  -1.243   5.635   9.687 -0.5022 -1.2947 -0.2870
  176SOPE  H10Y20071  -1.265   5.495   9.587  0.6440 -0.3063 -0.7205
  176SOPE  C31120072  -1.174   5.639   9.477  0.3094 -0.1383  0.3049
  176SOPE  H11X20073  -1.068   5.656   9.449 -0.7029  2.3278 -2.3624
  176SOPE  H11Y20074  -1.224   5.737   9.491 -1.1508 -0.6497 -1.1774
  176SOPE  C31220075  -1.234   5.565   9.359 -0.0469 -0.3340  0.7754
  176SOPE  H12X20076  -1.335   5.532   9.391  0.3928 -0.3459  2.1721
  176SOPE  H12Y20077  -1.177   5.471   9.341  1.8452  0.7849  0.6860
  176SOPE  C31320078  -1.235   5.650   9.224  1.1210 -0.4571 -0.5433
  176SOPE  H13X20079  -1.128   5.678   9.208  0.9479  0.3729 -0.2595
  176SOPE  H13Y20080  -1.297   5.737   9.252 -0.9946 -0.8769 -3.6829
  176SOPE  C31420081  -1.295   5.576   9.099 -0.9038 -0.2695  0.1829
  176SOPE  H14X20082  -1.401   5.547   9.114 -1.6297  2.2641  0.2389
  176SOPE  H14Y20083  -1.246   5.476   9.094  1.8176  1.0317 -0.1456
  176SOPE  C31520084  -1.283   5.665   8.976 -0.0436  0.5884 -0.4499
  176SOPE  H15X20085  -1.173   5.680   8.969  0.0055 -0.4579 -2.1020
  176SOPE  H15Y20086  -1.324   5.760   9.017  2.0939  1.0046  0.8208
  176SOPE  C31620087  -1.357   5.624   8.852 -0.1018  0.5748 -0.3308
  176SOPE  H16X20088  -1.464   5.607   8.876 -0.5462 -0.5864 -2.9362
  176SOPE  H16Y20089  -1.318   5.522   8.829 -1.7839 -0.1049 -0.1844
  176SOPE  C31720090  -1.336   5.702   8.728 -0.3554 -0.1799 -0.3363
  176SOPE  H17X20091  -1.350   5.811   8.745  1.4415  0.1362 -0.7681
  176SOPE  H17Y20092  -1.420   5.675   8.661 -0.2640  1.1693 -1.0088
  176SOPE  C31820093  -1.207   5.674   8.649 -0.3816 -0.0948 -0.1564
  176SOPE  H18X20094  -1.120   5.710   8.707 -0.9820  1.8666 -0.4461
  176SOPE  H18Y20095  -1.217   5.726   8.551  0.5585  0.7455  0.1817
  176SOPE  H18Z20096  -1.204   5.566   8.619 -2.4034 -0.6900  1.6810
  177SOPE     N20097   5.967   3.368  11.298 -0.1097 -0.2360  0.1744
  177SOPE   HN120098   5.958   3.365  11.401  1.1471 -5.5324  0.2638
  177SOPE   HN220099   6.054   3.422  11.279  0.8656 -1.8699 -0.0594
  177SOPE   HN320100   5.887   3.417  11.253  1.4939  2.1860 -0.1799
  177SOPE   C1220101   5.995   3.223  11.245  0.5201  0.6864 -0.3224
  177SOPE  H12A20102   5.896   3.174  11.242 -0.1278  1.8698  1.2028
  177SOPE  H12B20103   6.062   3.183  11.325 -1.3170 -0.3094  0.7375
  177SOPE   C1120104   6.081   3.228  11.117  0.6396 -0.4213 -0.3852
  177SOPE  H11A20105   6.030   3.268  11.027  0.4277 -1.6853 -0.8371
  177SOPE  H11B20106   6.108   3.124  11.090  0.4594 -0.8968  1.1863
  177SOPE     P20107   6.243   3.430  11.077  0.0828  0.1019  0.0883
  177SOPE   O1320108   6.391   3.447  11.067 -0.0954 -0.9750 -0.2124
  177SOPE   O1420109   6.149   3.531  11.141 -0.1263 -0.3478  0.4397
  177SOPE   O1220110   6.206   3.293  11.142 -0.6508  0.5708  0.6651
  177SOPE   O1120111   6.191   3.407  10.927  0.3462 -0.2930 -0.6381
  177SOPE    C120112   6.280   3.357  10.831  0.1811 -0.3605  0.3510
  177SOPE    HA20113   6.310   3.254  10.862  0.2387 -0.5077 -0.1757
  177SOPE    HB20114   6.376   3.411  10.816  0.7493 -1.0747  1.3253
  177SOPE    C220115   6.222   3.353  10.691 -0.2062  0.0377  0.6198
  177SOPE    HS20116   6.269   3.264  10.643  1.2906  0.8571  0.5542
  177SOPE   O2120117   6.235   3.479  10.620  0.0583  0.1007 -0.4527
  177SOPE   C2120118   6.240   3.475  10.487  0.2214  0.0967  0.1271
  177SOPE   O2220119   6.245   3.381  10.414 -0.3593  0.5020  0.0974
  177SOPE   C2220120   6.250   3.620  10.447 -0.5933  0.2097  0.1282
  177SOPE   H2R20121   6.356   3.648  10.466 -0.4096  1.7941 -2.8104
  177SOPE   H2S20122   6.193   3.693  10.508 -1.7323  0.5511 -1.2993
  177SOPE    C320123   6.069   3.315  10.688 -0.2194  0.6203  0.1398
  177SOPE    HX20124   6.006   3.401  10.719 -1.3134 -1.0000  2.5626
  177SOPE    HY20125   6.048   3.235  10.763  0.1100 -0.6458 -1.0864
  177SOPE   O3120126   6.018   3.258  10.562  0.0587  0.3430  0.2576
  177SOPE   C3120127   5.897   3.313  10.515 -0.7136 -0.4516  0.8409
  177SOPE   O3220128   5.855   3.417  10.557 -0.0143  0.4560 -0.0964
  177SOPE   C3220129   5.838   3.209  10.413 -0.5319 -0.3825  0.1245
  177SOPE   H2X20130   5.764   3.149  10.471  2.0396 -2.1384  1.7281
  177SOPE   H2Y20131   5.925   3.151  10.376 -0.2073  0.5243 -0.5272
  177SOPE   C2320132   6.222   3.648  10.302 -0.9911 -0.3685 -0.1290
  177SOPE   H3R20133   6.115   3.625  10.283 -1.0828 -1.5136  1.6609
  177SOPE   H3S20134   6.285   3.588  10.233  0.1856  2.2594 -1.3999
  177SOPE   C2420135   6.233   3.793  10.248 -0.4077  0.3232 -0.1752
  177SOPE   H4R20136   6.150   3.853  10.292 -0.0131  0.6997  0.0605
  177SOPE   H4S20137   6.326   3.839  10.288 -0.0184 -0.7240  0.1386
  177SOPE   C2520138   6.247   3.804  10.093 -0.1204  0.3445  0.4250
  177SOPE   H5R20139   6.282   3.906  10.070 -1.2980  0.1280 -2.5268
  177SOPE   H5S20140   6.336   3.741  10.071 -0.0899  0.7234 -0.5225
  177SOPE   C2620141   6.126   3.748  10.015  0.5585  0.2278  0.3868
  177SOPE   H6R20142   6.109   3.640  10.033  2.0327 -0.0868  0.0378
  177SOPE   H6S20143   6.036   3.800  10.052  0.7506  1.4177 -0.7990
  177SOPE   C2720144   6.143   3.774   9.857  0.3704  0.1848 -0.8106
  177SOPE   H7R20145   6.147   3.885   9.852  0.9826  0.1831 -0.4371
  177SOPE   H7S20146   6.240   3.734   9.821  0.9383 -0.5579  1.4632
  177SOPE   C2820147   6.026   3.732   9.769 -0.4482 -0.3890 -0.1801
  177SOPE   H8R20148   5.930   3.751   9.822 -0.7251 -1.6822 -0.2171
  177SOPE   H8S20149   6.031   3.787   9.673 -1.4792 -1.7240 -1.0163
  177SOPE   C2920150   6.031   3.584   9.742  0.1437 -0.6576  0.6243
  177SOPE   H9120151   6.058   3.526   9.832  0.8296  1.2400  1.6688
  177SOPE  C21020152   5.987   3.531   9.626 -0.6290 -0.3064  1.0278
  177SOPE  H10120153   6.001   3.422   9.617 -0.7837 -0.2003 -0.5092
  177SOPE  C21120154   5.926   3.591   9.501 -0.8340 -0.2055 -0.0404
  177SOPE  H11R20155   5.898   3.697   9.518  2.8162  0.9941 -0.9769
  177SOPE  H11S20156   5.844   3.532   9.455 -0.8742 -1.0757  1.1486
  177SOPE  C21220157   6.037   3.595   9.382  0.1915  0.3520 -0.2226
  177SOPE  H12R20158   6.066   3.493   9.349 -2.7211 -1.0471  1.3364
  177SOPE  H12S20159   6.122   3.662   9.409  0.2089  0.6871 -1.1028
  177SOPE  C21320160   5.976   3.665   9.251  0.1483  0.1434 -0.1040
  177SOPE  H13R20161   5.915   3.744   9.299  1.0053 -0.0391  1.3215
  177SOPE  H13S20162   5.904   3.601   9.196  0.9288  0.8752 -2.0166
  177SOPE  C21420163   6.088   3.712   9.154  0.0581 -0.1366 -0.3039
  177SOPE  H14R20164   6.117   3.615   9.109  0.4919  0.0966 -0.5252
  177SOPE  H14S20165   6.167   3.762   9.213  0.8763 -1.1692 -0.5121
  177SOPE  C21520166   6.043   3.806   9.039 -0.0802 -0.2716  0.7439
  177SOPE  H15R20167   6.008   3.904   9.077  0.0995  0.9462 -2.1355
  177SOPE  H15S20168   5.967   3.754   8.977 -0.3214 -0.2374  1.0108
  177SOPE  C21620169   6.153   3.841   8.940  0.5009 -0.3842 -0.3498
  177SOPE  H16R20170   6.181   3.741   8.901 -0.8130 -0.6241 -0.7247
  177SOPE  H16S20171   6.237   3.865   9.008  0.1397  0.6061 -0.2537
  177SOPE  C21720172   6.114   3.948   8.833  0.7652  0.1872 -0.4167
  177SOPE  H17R20173   6.058   4.030   8.882 -3.1666 -3.1815  0.9723
  177SOPE  H17S20174   6.048   3.898   8.759 -1.6165  2.2379  0.2628
  177SOPE  C21820175   6.242   4.002   8.756 -0.8568 -0.1369 -0.0390
  177SOPE  H18R20176   6.213   4.080   8.683 -0.3583  0.0347 -0.0589
  177SOPE  H18S20177   6.276   3.908   8.707  0.4743  0.5144 -0.3933
  177SOPE  H18T20178   6.319   4.038   8.828  1.0543 -0.6579 -1.7706
  177SOPE   C3320179   5.768   3.286  10.299  0.7833 -0.0571  0.2279
  177SOPE   H3X20180   5.683   3.348  10.334 -0.1489 -1.9650  1.4435
  177SOPE   H3Y20181   5.731   3.204  10.233 -0.1120  1.2547 -0.9145
  177SOPE   C3420182   5.855   3.397  10.230 -0.2960  0.3997 -0.2103
  177SOPE   H4X20183   5.876   3.489  10.289  0.0172  2.6549 -3.7399
  177SOPE   H4Y20184   5.797   3.427  10.141 -1.0065 -1.1449 -0.2830
  177SOPE   C3520185   5.993   3.344  10.184  0.1652 -0.8748 -0.0441
  177SOPE   H5X20186   6.068   3.339  10.266  2.3887 -0.6774 -1.9962
  177SOPE   H5Y20187   6.027   3.424  10.115  0.6461 -0.8573  0.2137
  177SOPE   C3620188   5.989   3.208  10.116  0.0480 -0.1199  0.2617
  177SOPE   H6X20189   5.953   3.123  10.180 -0.3830  0.7297  1.1648
  177SOPE   H6Y20190   6.088   3.169  10.085 -0.8040 -1.3695 -0.9656
  177SOPE   C3720191   5.910   3.215   9.985  0.7218 -0.2748  0.6172
  177SOPE   H7X20192   5.885   3.316   9.948 -1.0337 -1.1982 -0.7985
  177SOPE   H7Y20193   5.814   3.160   9.997  0.1119  0.0481 -2.4679
  177SOPE   C3820194   5.982   3.144   9.865  0.2361 -0.3601 -0.2308
  177SOPE   H8X20195   5.991   3.038   9.896 -0.3489 -0.5939 -0.8360
  177SOPE   H8Y20196   6.085   3.182   9.846  0.5415 -1.1891 -0.3049
  177SOPE   C3920197   5.898   3.136   9.736 -0.5062  0.2981  0.1558
  177SOPE   H9X20198   5.871   3.238   9.700 -1.2429 -0.2228 -0.8109
  177SOPE   H9Y20199   5.799   3.087   9.750 -0.4568  0.4746  1.1574
  177SOPE  C31020200   5.978   3.054   9.632 -0.2329 -0.0066 -0.1664
  177SOPE  H10X20201   6.006   2.950   9.661  1.1893  0.7128  1.0463
  177SOPE  H10Y20202   6.082   3.092   9.631  0.2975 -1.3509  1.7320
  177SOPE  C31120203   5.907   3.055   9.494 -0.1762  0.2379 -0.0227
  177SOPE  H11X20204   5.802   3.090   9.509 -0.5550 -0.3607 -1.1649
  177SOPE  H11Y20205   5.904   2.953   9.451  1.1137 -0.1265  0.7280
  177SOPE  C31220206   5.968   3.148   9.395 -0.6200  0.5800  1.1999
  177SOPE  H12X20207   6.079   3.149   9.408 -0.2419 -0.8259 -1.5654
  177SOPE  H12Y20208   5.940   3.251   9.427 -1.4514  0.3764  1.1239
  177SOPE  C31320209   5.925   3.127   9.245 -0.1272  0.2001 -0.6749
  177SOPE  H13X20210   5.815   3.127   9.232  0.1015  0.8033 -2.8193
  177SOPE  H13Y20211   5.967   3.029   9.213 -0.8407 -0.0860 -0.7249
  177SOPE  C31420212   5.997   3.236   9.161  0.1006  0.7774  0.0305
  177SOPE  H14X20213   6.104   3.208   9.149 -0.3752  0.0768 -2.9896
  177SOPE  H14Y20214   5.983   3.329   9.220  1.0287  1.5625 -0.9742
  177SOPE  C31520215   5.929   3.245   9.024  0.7719 -0.2942  0.0159
  177SOPE  H15X20216   5.828   3.285   9.046  1.1693  0.8536 -0.2307
  177SOPE  H15Y20217   5.917   3.146   8.974 -2.5288  0.0812 -0.0165
  177SOPE  C31620218   5.979   3.354   8.937  0.3083  0.1094 -0.3585
  177SOPE  H16X20219   6.088   3.339   8.917 -0.0578 -0.5161 -2.0044
  177SOPE  H16Y20220   5.959   3.451   8.988 -0.1294 -0.8942  1.4045
  177SOPE  C31720221   5.909   3.351   8.801  0.0538  0.4187  0.3971
  177SOPE  H17X20222   5.799   3.357   8.817  0.2044  1.4079  1.1351
  177SOPE  H17Y20223   5.923   3.254   8.749 -1.6449  0.6835 -0.5956
  177SOPE  C31820224   5.963   3.457   8.701 -0.1957  0.3759  1.0169
  177SOPE  H18X20225   5.981   3.555   8.751 -0.9156  1.8048 -1.4297
  177SOPE  H18Y20226   5.899   3.474   8.611  1.7011 -0.1672 -0.4713
  177SOPE  H18Z20227   6.065   3.431   8.666  0.0618  1.9091  0.5788
  178SOPE     N20228   3.384   2.487  10.902 -0.1835 -0.1699  0.4187
  178SOPE   HN120229   3.460   2.487  10.973  0.1163 -1.9598  0.1439
  178SOPE   HN220230   3.311   2.557  10.924 -1.1379 -0.6085 -1.3217
  178SOPE   HN320231   3.336   2.397  10.925  0.2685 -1.0675 -1.9948
  178SOPE   C1220232   3.442   2.478  10.766  0.4230  0.4539 -0.4938
  178SOPE  H12A20233   3.548   2.509  10.760  0.5555  0.4544  1.6348
  178SOPE  H12B20234   3.372   2.524  10.692 -0.3870 -0.8711 -0.5806
  178SOPE   C1120235   3.440   2.325  10.725 -0.8023 -0.2835  0.2904
  178SOPE  H11A20236   3.500   2.264  10.795  1.3862  2.6273  1.0673
  178SOPE  H11B20237   3.498   2.317  10.630 -1.6988  0.6675 -0.3554
  178SOPE     P20238   3.284   2.126  10.681  0.1371 -0.1297  0.3265
  178SOPE   O1320239   3.146   2.107  10.630  0.0545  0.3109 -0.5138
  178SOPE   O1420240   3.329   2.065  10.808 -0.4215 -0.7765  0.1121
  178SOPE   O1220241   3.306   2.276  10.709  0.1256 -0.1807  0.4864
  178SOPE   O1120242   3.391   2.089  10.567 -0.1176 -0.0651 -0.5689
  178SOPE    C120243   3.393   2.160  10.438  1.1958 -0.1346  0.6000
  178SOPE    HA20244   3.498   2.175  10.403  0.7268  0.8744 -0.4101
  178SOPE    HB20245   3.361   2.264  10.459  1.4012 -0.0291  0.3884
  178SOPE    C220246   3.315   2.084  10.329  0.0794  0.3019  0.6941
  178SOPE    HS20247   3.304   1.981  10.368  0.4487 -0.4826 -1.2337
  178SOPE   O2120248   3.390   2.086  10.211  0.0671 -0.3005 -0.4989
  178SOPE   C2120249   3.380   1.984  10.124  0.5516  0.2839 -0.5111
  178SOPE   O2220250   3.334   1.874  10.150  0.6684 -0.0383 -0.3966
  178SOPE   C2220251   3.450   2.025   9.994 -0.3513 -0.2855  0.7575
  178SOPE   H2R20252   3.560   2.036  10.011  0.0402 -0.3375 -1.5165
  178SOPE   H2S20253   3.422   2.131   9.981  1.4965  0.1669  0.3270
  178SOPE    C320254   3.169   2.151  10.316  0.7649  0.5111  0.3092
  178SOPE    HX20255   3.198   2.258  10.312  0.7789  0.4681 -1.1165
  178SOPE    HY20256   3.101   2.131  10.401 -0.0269  2.4004  0.1448
  178SOPE   O3120257   3.100   2.147  10.190 -0.0324  0.9723  0.2609
  178SOPE   C3120258   3.032   2.036  10.177 -0.2308  0.1829 -0.1720
  178SOPE   O3220259   3.012   1.949  10.257  0.0119  0.5212  0.1239
  178SOPE   C3220260   3.001   2.023  10.024  0.0077  0.8507  0.4881
  178SOPE   H2X20261   3.027   1.921   9.988 -0.6188  1.1443 -0.8293
  178SOPE   H2Y20262   3.077   2.089   9.977  0.1952  0.5038  0.3042
  178SOPE   C2320263   3.409   1.955   9.863 -0.1235 -0.5036 -0.6334
  178SOPE   H3R20264   3.299   1.942   9.857 -0.3856  1.1306  0.3195
  178SOPE   H3S20265   3.461   1.857   9.866 -3.1743 -2.1507  0.5913
  178SOPE   C2420266   3.446   2.042   9.740  0.5134  0.5331 -1.1010
  178SOPE   H4R20267   3.427   2.147   9.768  3.9787  1.5075 -2.1162
  178SOPE   H4S20268   3.556   2.037   9.723  0.5514 -0.8086 -0.5184
  178SOPE   C2520269   3.373   2.000   9.615  0.0816 -0.3781 -0.0628
  178SOPE   H5R20270   3.277   1.953   9.646  0.5618 -1.5491 -0.3360
  178SOPE   H5S20271   3.348   2.093   9.560  1.5133 -0.6941 -1.2545
  178SOPE   C2620272   3.462   1.921   9.522  0.6816  0.5637 -0.0739
  178SOPE   H6R20273   3.542   1.983   9.476  0.2571 -0.4938 -2.2981
  178SOPE   H6S20274   3.513   1.839   9.577 -0.6711 -1.7339 -2.1359
  178SOPE   C2720275   3.397   1.846   9.404  0.2046  1.0815 -0.3382
  178SOPE   H7R20276   3.472   1.773   9.365 -1.4812  0.1477 -1.9516
  178SOPE   H7S20277   3.319   1.780   9.446 -0.4831  2.6298  0.8547
  178SOPE   C2820278   3.354   1.943   9.292 -0.6242 -0.2822 -0.7949
  178SOPE   H8R20279   3.286   2.020   9.336 -0.4176 -1.5636  1.8652
  178SOPE   H8S20280   3.439   1.999   9.248 -1.6020  1.4895 -0.5014
  178SOPE   C2920281   3.265   1.868   9.197  0.6934 -0.0452  0.7437
  178SOPE   H9120282   3.196   1.792   9.237  1.8629 -1.4115  0.1926
  178SOPE  C21020283   3.277   1.888   9.063  1.1543  0.2254  0.0229
  178SOPE  H10120284   3.208   1.820   9.011  1.7039 -0.5581  0.3168
  178SOPE  C21120285   3.362   1.988   8.989  0.2842 -0.3136 -0.8062
  178SOPE  H11R20286   3.427   1.937   8.914 -0.3251 -1.5631 -0.5115
  178SOPE  H11S20287   3.406   2.057   9.064 -2.3260 -1.1745  1.6169
  178SOPE  C21220288   3.264   2.075   8.901  0.0994 -0.6922 -0.1242
  178SOPE  H12R20289   3.183   2.127   8.956  3.7391  4.7162  0.5458
  178SOPE  H12S20290   3.209   2.017   8.824 -0.4345  1.5902 -1.4960
  178SOPE  C21320291   3.348   2.182   8.834 -0.5676  0.0612  0.1216
  178SOPE  H13R20292   3.448   2.147   8.798  0.4933  3.0366  0.0302
  178SOPE  H13S20293   3.387   2.256   8.907 -0.4625 -1.6936  1.8767
  178SOPE  C21420294   3.269   2.257   8.723  0.5814  0.0338 -0.6615
  178SOPE  H14R20295   3.341   2.334   8.688  2.7287 -1.0611  1.1599
  178SOPE  H14S20296   3.170   2.286   8.764  1.3225  0.3390  0.9915
  178SOPE  C21520297   3.244   2.164   8.602  0.1573  0.7013 -0.0567
  178SOPE  H15R20298   3.142   2.121   8.611  0.1099  0.4069 -1.7606
  178SOPE  H15S20299   3.325   2.089   8.595  0.0891  0.4457  1.7400
  178SOPE  C21620300   3.248   2.249   8.473  0.3491  0.3147  0.2838
  178SOPE  H16R20301   3.354   2.281   8.480  0.4431  0.1952 -0.4818
  178SOPE  H16S20302   3.170   2.328   8.477  2.1577  2.3423 -2.4409
  178SOPE  C21720303   3.209   2.166   8.353 -0.5473 -0.0241 -0.0568
  178SOPE  H17R20304   3.106   2.125   8.351 -0.4404 -0.2383 -2.9174
  178SOPE  H17S20305   3.279   2.080   8.360  1.0321  1.2072 -0.3148
  178SOPE  C21820306   3.237   2.231   8.219 -0.0000 -0.1439 -0.2483
  178SOPE  H18R20307   3.345   2.256   8.211 -0.0138 -0.0994 -0.2924
  178SOPE  H18S20308   3.177   2.323   8.203  1.7445  0.8478 -1.1270
  178SOPE  H18T20309   3.210   2.149   8.148  0.5115 -3.3506  3.0963
  178SOPE   C3320310   2.847   2.043   9.982  0.1802 -0.1783  0.3060
  178SOPE   H3X20311   2.818   2.149   9.996  0.2170 -0.0646 -0.5184
  178SOPE   H3Y20312   2.785   1.991  10.060  0.2139 -0.9502 -0.1788
  178SOPE   C3420313   2.803   1.986   9.845 -0.5231 -0.3279  0.3691
  178SOPE   H4X20314   2.694   1.976   9.823 -0.2721 -2.2216 -0.0975
  178SOPE   H4Y20315   2.843   1.883   9.838  0.8546  0.0247  2.6543
  178SOPE   C3520316   2.861   2.084   9.747  0.1654  0.3016  0.3688
  178SOPE   H5X20317   2.967   2.101   9.775  0.2607 -0.4242  0.4654
  178SOPE   H5Y20318   2.807   2.181   9.743 -0.3064 -0.0434 -3.7063
  178SOPE   C3620319   2.848   2.029   9.606  0.0074 -0.6346  0.7203
  178SOPE   H6X20320   2.743   2.003   9.579 -0.3840  1.0544  0.5538
  178SOPE   H6Y20321   2.916   1.944   9.581 -0.6827 -0.8442 -0.4946
  178SOPE   C3720322   2.887   2.134   9.502 -0.2411 -0.2917 -0.1216
  178SOPE   H7X20323   2.994   2.165   9.504  0.2516 -1.9548  0.6221
  178SOPE   H7Y20324   2.832   2.229   9.516  0.8815  0.6057 -1.6134
  178SOPE   C3820325   2.857   2.071   9.366 -0.7675 -0.3874 -0.2729
  178SOPE   H8X20326   2.748   2.053   9.356 -1.0328  1.4220 -0.7741
  178SOPE   H8Y20327   2.896   1.967   9.366 -0.6873 -0.3640  0.8110
  178SOPE   C3920328   2.934   2.135   9.247 -0.2853 -0.6009 -1.0570
  178SOPE   H9X20329   3.041   2.109   9.262  0.1890  0.3338 -2.6660
  178SOPE   H9Y20330   2.936   2.244   9.263 -1.4775 -0.7454  0.1408
  178SOPE  C31020331   2.881   2.080   9.113 -0.1136  0.8022  0.1220
  178SOPE  H10X20332   2.852   1.973   9.115  0.6918  0.4808 -2.6330
  178SOPE  H10Y20333   2.962   2.090   9.037 -2.2038  0.8740 -2.1348
  178SOPE  C31120334   2.759   2.158   9.061  0.1723 -0.5577 -0.7781
  178SOPE  H11X20335   2.778   2.264   9.089  1.8863 -1.0046 -0.2011
  178SOPE  H11Y20336   2.673   2.128   9.125 -0.0054 -1.5289 -1.4593
  178SOPE  C31220337   2.729   2.161   8.913  0.2754  0.7635 -0.3585
  178SOPE  H12X20338   2.623   2.194   8.905 -0.2079 -0.5052  0.5320
  178SOPE  H12Y20339   2.729   2.053   8.886  2.1448  0.6493  0.0421
  178SOPE  C31320340   2.806   2.248   8.814 -0.1577  0.0058 -0.1965
  178SOPE  H13X20341   2.908   2.204   8.805 -0.5501 -0.9786  0.0911
  178SOPE  H13Y20342   2.819   2.348   8.859 -2.8467  0.4204 -0.2652
  178SOPE  C31420343   2.747   2.249   8.667 -0.5705  0.3475 -0.3903
  178SOPE  H14X20344   2.640   2.274   8.683 -0.7266 -1.9012  2.6517
  178SOPE  H14Y20345   2.754   2.142   8.636 -0.2005  0.2998 -0.1456
  178SOPE  C31520346   2.826   2.344   8.572 -0.3503  0.2614  0.0164
  178SOPE  H15X20347   2.926   2.296   8.567  0.0798  0.9200  1.9930
  178SOPE  H15Y20348   2.840   2.446   8.614 -1.7354  0.2324  0.5921
  178SOPE  C31620349   2.760   2.374   8.435  0.0964  0.1309 -0.3878
  178SOPE  H16X20350   2.657   2.404   8.462  1.5826  2.5447  2.9747
  178SOPE  H16Y20351   2.742   2.275   8.388 -3.6054  0.3533  0.4314
  178SOPE  C31720352   2.838   2.458   8.331 -1.1166 -0.3011  0.1754
  178SOPE  H17X20353   2.929   2.406   8.294  1.3124  2.7515  1.6406
  178SOPE  H17Y20354   2.878   2.550   8.379 -1.8236 -0.5582  1.2761
  178SOPE  C31820355   2.761   2.500   8.210 -0.9528  1.0093  0.1122
  178SOPE  H18X20356   2.690   2.583   8.229 -1.2065  0.6597  0.7070
  178SOPE  H18Y20357   2.698   2.416   8.174 -1.5224  1.9500 -1.1183
  178SOPE  H18Z20358   2.831   2.524   8.127 -0.0477 -0.3771  0.4576
  179SOPE     N20359   1.591   3.533   6.674 -0.3145  0.0003  0.1902
  179SOPE   HN120360   1.692   3.522   6.651  0.2032  2.5866  1.0232
  179SOPE   HN220361   1.569   3.467   6.751 -1.2204  1.7179  1.4291
  179SOPE   HN320362   1.538   3.513   6.587  0.4072 -1.3391  0.0468
  179SOPE   C1220363   1.559   3.669   6.728  0.7483  1.2367  0.4215
  179SOPE  H12A20364   1.458   3.666   6.775 -0.2541 -0.7840 -1.7138
  179SOPE  H12B20365   1.554   3.742   6.644 -0.5651  0.6924  0.0082
  179SOPE   C1120366   1.670   3.721   6.821  0.2054  0.2708  0.1553
  179SOPE  H11A20367   1.693   3.647   6.900  1.3470  1.1625  0.6840
  179SOPE  H11B20368   1.634   3.815   6.868  0.5312 -0.4907  1.9321
  179SOPE     P20369   1.843   3.868   6.681 -0.4115 -0.1630 -0.0198
  179SOPE   O1320370   1.752   3.974   6.726  0.0323  0.2690  0.2552
  179SOPE   O1420371   1.854   3.854   6.538  0.0149  0.1915  0.1483
  179SOPE   O1220372   1.792   3.733   6.745  0.0516 -0.3117  0.2761
  179SOPE   O1120373   1.981   3.894   6.744 -0.1413 -0.6100  0.7484
  179SOPE    C120374   2.064   3.800   6.810  0.7316 -0.2287  0.3677
  179SOPE    HA20375   2.161   3.787   6.758  1.1437  0.8641  0.8604
  179SOPE    HB20376   2.022   3.698   6.792 -2.1260  0.7542  1.1481
  179SOPE    C220377   2.068   3.828   6.958  0.0689  1.0805 -0.3595
  179SOPE    HS20378   2.123   3.742   7.002 -1.3193 -0.3525 -1.3758
  179SOPE   O2120379   1.937   3.836   7.017  0.3321  0.3126 -0.0513
  179SOPE   C2120380   1.938   3.795   7.144  0.6990  0.3889  0.4282
  179SOPE   O2220381   2.040   3.767   7.205 -0.3952 -0.3612 -0.2990
  179SOPE   C2220382   1.795   3.803   7.205 -0.2278 -0.0559  0.4720
  179SOPE   H2R20383   1.715   3.761   7.140  0.6139  0.9196 -1.2537
  179SOPE   H2S20384   1.779   3.913   7.212 -0.1509  0.0208 -0.4640
  179SOPE    C320385   2.150   3.959   6.967  0.0962 -0.1031 -1.1264
  179SOPE    HX20386   2.093   4.047   6.930  2.9374  2.0124 -0.6727
  179SOPE    HY20387   2.242   3.956   6.905  1.2986  2.7730  0.4078
  179SOPE   O3120388   2.204   3.970   7.103 -0.2943 -0.0063  0.5712
  179SOPE   C3120389   2.135   4.048   7.180 -0.0986  0.4446  0.2346
  179SOPE   O3220390   2.040   4.117   7.143  0.5101 -0.2029  0.0982
  179SOPE   C3220391   2.193   4.042   7.323 -0.6651  0.6556  0.3124
  179SOPE   H2X20392   2.288   4.101   7.324  0.3199 -0.9226  2.1328
  179SOPE   H2Y20393   2.211   3.936   7.350 -2.5171  0.1901 -0.2012
  179SOPE   C2320394   1.801   3.744   7.350  0.7177 -0.0005  0.3524
  179SOPE   H3R20395   1.888   3.786   7.404  2.3539 -0.5834 -1.7539
  179SOPE   H3S20396   1.810   3.634   7.335  0.8520  0.0277  0.2216
  179SOPE   C2420397   1.682   3.782   7.439 -0.0928 -0.0449  0.0498
  179SOPE   H4R20398   1.698   3.892   7.434  0.7274 -0.2054 -1.2257
  179SOPE   H4S20399   1.584   3.756   7.395 -0.2167  1.4923 -0.6310
  179SOPE   C2520400   1.709   3.740   7.584 -0.2614 -0.0954  0.7003
  179SOPE   H5R20401   1.721   3.630   7.582 -0.6158 -0.1236  0.0403
  179SOPE   H5S20402   1.809   3.773   7.618 -0.1594 -0.4962  0.7935
  179SOPE   C2620403   1.600   3.782   7.676  0.4373  0.4483 -0.4822
  179SOPE   H6R20404   1.576   3.889   7.657 -0.0663  0.4796  0.3650
  179SOPE   H6S20405   1.509   3.720   7.662 -0.7345  1.9315  0.5184
  179SOPE   C2720406   1.629   3.748   7.822 -0.0995 -0.5207  0.2190
  179SOPE   H7R20407   1.662   3.642   7.827  1.3526 -0.0489  1.2463
  179SOPE   H7S20408   1.714   3.806   7.864  2.2704 -3.6049 -0.1149
  179SOPE   C2820409   1.515   3.762   7.927 -0.4112  0.2498  0.1127
  179SOPE   H8R20410   1.486   3.869   7.930  2.9487  1.1867  1.8164
  179SOPE   H8S20411   1.423   3.722   7.881 -0.6366  0.4530  0.3855
  179SOPE   C2920412   1.528   3.692   8.057  0.6333  0.4141  0.3244
  179SOPE   H9120413   1.593   3.604   8.062 -0.9792 -0.8208  0.0483
  179SOPE  C21020414   1.454   3.711   8.164  0.1901 -0.6089 -0.4802
  179SOPE  H10120415   1.491   3.665   8.257  1.1005  3.1043  1.0684
  179SOPE  C21120416   1.343   3.815   8.192  0.4900  0.1909  1.5436
  179SOPE  H11R20417   1.285   3.854   8.106 -0.1554  0.9889  2.3194
  179SOPE  H11S20418   1.375   3.898   8.259 -1.2084  2.6513 -0.5836
  179SOPE  C21220419   1.234   3.741   8.287 -0.1217  0.0390 -0.4739
  179SOPE  H12R20420   1.242   3.631   8.279  2.0247  0.1639 -0.3229
  179SOPE  H12S20421   1.138   3.770   8.238 -0.0292 -0.1707 -0.7761
  179SOPE  C21320422   1.237   3.774   8.434 -0.1544 -0.1736  0.0425
  179SOPE  H13R20423   1.152   3.727   8.487  0.4534  0.1879  1.3631
  179SOPE  H13S20424   1.216   3.882   8.446 -1.6423 -0.4570  0.0325
  179SOPE  C21420425   1.370   3.736   8.505 -0.4724 -0.5669  0.1244
  179SOPE  H14R20426   1.459   3.759   8.443 -1.6971  0.0797 -1.3964
  179SOPE  H14S20427   1.376   3.633   8.545 -0.9853 -0.5704  0.1959
  179SOPE  C21520428   1.374   3.814   8.639  0.0302 -0.1105 -0.8981
  179SOPE  H15R20429   1.269   3.809   8.677  0.3824 -1.0313 -0.0205
  179SOPE  H15S20430   1.393   3.922   8.627 -0.4274  0.0221 -0.4929
  179SOPE  C21620431   1.477   3.747   8.733  0.3155  0.2161  0.7183
  179SOPE  H16R20432   1.574   3.742   8.680  0.1188  1.2917  0.2442
  179SOPE  H16S20433   1.463   3.637   8.743  0.4617  0.1355  0.0814
  179SOPE  C21720434   1.504   3.829   8.863 -0.4792  0.5694 -0.5253
  179SOPE  H17R20435   1.530   3.934   8.840  1.7270 -0.1970 -1.7272
  179SOPE  H17S20436   1.594   3.781   8.908 -0.7291 -0.1700 -0.7978
  179SOPE  C21820437   1.390   3.833   8.970 -0.4036  0.9590  0.1270
  179SOPE  H18R20438   1.426   3.880   9.064 -1.4036 -2.1204  2.1401
  179SOPE  H18S20439   1.365   3.729   9.001  3.9421 -0.2382 -0.0467
  179SOPE  H18T20440   1.295   3.873   8.929 -0.0410  0.3960 -1.2787
  179SOPE   C3320441   2.095   4.094   7.430  0.3060  0.7067  0.9740
  179SOPE   H3X20442   1.996   4.046   7.414  0.6980  0.4998 -0.9226
  179SOPE   H3Y20443   2.088   4.204   7.413  1.8473  0.3662 -2.1490
  179SOPE   C3420444   2.147   4.065   7.565 -0.0937 -0.1343 -0.4594
  179SOPE   H4X20445   2.079   4.129   7.626  0.0989 -0.6688  0.3311
  179SOPE   H4Y20446   2.251   4.099   7.584 -0.1467 -0.2053 -0.0222
  179SOPE   C3520447   2.115   3.917   7.601  0.5397 -0.6668  0.4063
  179SOPE   H5X20448   2.178   3.839   7.551  1.3683  0.5500 -0.4812
  179SOPE   H5Y20449   2.007   3.893   7.587  1.1521 -2.6433 -1.2953
  179SOPE   C3620450   2.127   3.888   7.748  0.0377 -0.5019 -0.1895
  179SOPE   H6X20451   2.231   3.915   7.779  0.0857  0.2402 -0.9755
  179SOPE   H6Y20452   2.121   3.778   7.748  0.5379 -0.5366  0.7571
  179SOPE   C3720453   2.016   3.935   7.845  0.0314 -0.2713  0.8229
  179SOPE   H7X20454   1.912   3.919   7.811  0.5466  0.2994 -1.0799
  179SOPE   H7Y20455   2.038   4.044   7.850  0.2239 -0.1793 -1.3990
  179SOPE   C3820456   2.045   3.875   7.984 -0.2895 -0.1028 -0.1270
  179SOPE   H8X20457   2.140   3.922   8.019 -0.7269 -1.2201  2.6577
  179SOPE   H8Y20458   2.052   3.765   7.973  1.1279 -0.0532  0.1114
  179SOPE   C3920459   1.954   3.917   8.089 -0.4481  0.2304 -0.0976
  179SOPE   H9X20460   1.851   3.882   8.069  0.4334 -2.2818 -0.3717
  179SOPE   H9Y20461   1.941   4.027   8.094 -0.2905  0.1951  1.5755
  179SOPE  C31020462   2.012   3.870   8.227 -0.6073  0.6123  0.4036
  179SOPE  H10X20463   2.090   3.947   8.248 -0.4502  0.8857 -1.1395
  179SOPE  H10Y20464   2.062   3.771   8.221 -0.5748  0.7255 -1.3464
  179SOPE  C31120465   1.910   3.872   8.335 -0.8357  0.3674  0.3364
  179SOPE  H11X20466   1.830   3.801   8.307 -0.5446  0.4406 -0.6986
  179SOPE  H11Y20467   1.853   3.967   8.344 -3.6892 -1.2996  0.2570
  179SOPE  C31220468   1.963   3.846   8.476 -0.3693 -0.1910  0.5222
  179SOPE  H12X20469   2.029   3.929   8.510 -2.9325  1.9144  0.4459
  179SOPE  H12Y20470   2.029   3.757   8.469  2.1953  1.7212 -0.6678
  179SOPE  C31320471   1.850   3.812   8.567 -0.5616 -0.0618  0.0407
  179SOPE  H13X20472   1.768   3.753   8.520 -1.5892  0.2515  1.3882
  179SOPE  H13Y20473   1.792   3.900   8.602  1.2919 -0.0224  3.2409
  179SOPE  C31420474   1.895   3.738   8.695 -0.0899  0.3984  0.3086
  179SOPE  H14X20475   1.924   3.636   8.663 -0.5312 -0.2846  1.9782
  179SOPE  H14Y20476   1.807   3.717   8.761  0.8885  0.7006  1.7322
  179SOPE  C31520477   2.007   3.811   8.768 -0.3637  0.0373 -0.5506
  179SOPE  H15X20478   2.099   3.817   8.706  0.7821  1.8489  1.2670
  179SOPE  H15Y20479   2.040   3.748   8.853  1.6186 -0.1256 -1.4106
  179SOPE  C31620480   1.973   3.957   8.795 -0.3538  0.3679 -0.2621
  179SOPE  H16X20481   1.873   3.968   8.844  0.9151  2.6562  1.9253
  179SOPE  H16Y20482   1.958   4.013   8.700  1.5049  2.3554  0.5725
  179SOPE  C31720483   2.086   4.032   8.880  0.2091 -0.4790 -0.1637
  179SOPE  H17X20484   2.058   4.140   8.878 -2.5682 -1.1722 -1.5017
  179SOPE  H17Y20485   2.174   4.010   8.817  0.9584  0.7263  0.4451
  179SOPE  C31820486   2.128   3.980   9.014 -0.2857 -0.5156  0.1224
  179SOPE  H18X20487   2.043   3.984   9.086 -2.7357  3.1876 -2.7906
  179SOPE  H18Y20488   2.214   4.028   9.066 -0.6267  0.5539 -0.2983
  179SOPE  H18Z20489   2.177   3.880   9.008  0.7478  0.0326 -0.6112
  180SOPE     N20490   0.941   3.684   6.186  0.2853  0.4668  0.1817
  180SOPE   HN120491   0.985   3.775   6.210  1.0884  0.0526  0.3345
  180SOPE   HN220492   0.929   3.674   6.083  0.6633 -0.4938  0.2239
  180SOPE   HN320493   0.848   3.678   6.232 -0.0560  1.4637 -0.3682
  180SOPE   C1220494   1.034   3.572   6.231  0.3457  0.2034 -0.4209
  180SOPE  H12A20495   1.019   3.477   6.176  0.5878 -0.5840  0.8506
  180SOPE  H12B20496   1.011   3.557   6.339  0.3660 -0.8596 -0.5557
  180SOPE   C1120497   1.187   3.601   6.222 -0.2682 -0.6924  0.5419
  180SOPE  H11A20498   1.207   3.702   6.264  2.0466 -0.9123  0.0405
  180SOPE  H11B20499   1.222   3.601   6.117  2.5005 -0.5442  1.4392
  180SOPE     P20500   1.301   3.533   6.441 -0.0961 -0.4520  0.0062
  180SOPE   O1320501   1.351   3.671   6.458  0.1053  0.0959 -0.0295
  180SOPE   O1420502   1.395   3.435   6.500  0.1903 -0.3800  0.0561
  180SOPE   O1220503   1.269   3.503   6.290 -0.0118  0.2239  0.3019
  180SOPE   O1120504   1.164   3.515   6.518 -0.2899 -0.2996 -0.1818
  180SOPE    C120505   1.114   3.398   6.568  0.0610 -0.2811 -0.1728
  180SOPE    HA20506   1.153   3.303   6.526 -0.1534 -0.8882  0.9740
  180SOPE    HB20507   1.004   3.399   6.584  0.2137  0.7849  0.9021
  180SOPE    C220508   1.154   3.394   6.720  0.2753 -0.0450 -0.0582
  180SOPE    HS20509   1.263   3.406   6.736  0.6994 -0.4198 -2.4533
  180SOPE   O2120510   1.108   3.272   6.779 -0.4245  0.3650 -0.2458
  180SOPE   C2120511   1.194   3.166   6.747 -1.3128  0.1656  0.3401
  180SOPE   O2220512   1.293   3.190   6.672  0.5515  0.0930 -0.6801
  180SOPE   C2220513   1.160   3.040   6.827  0.5250  0.1043 -0.5194
  180SOPE   H2R20514   1.246   2.970   6.819  1.1116  0.7487  0.1413
  180SOPE   H2S20515   1.064   2.992   6.796  0.6516 -1.4887  1.4588
  180SOPE    C320516   1.091   3.515   6.800 -0.1942  0.2804 -0.6528
  180SOPE    HX20517   0.988   3.533   6.763 -0.9801 -0.8293  0.9303
  180SOPE    HY20518   1.160   3.600   6.778  1.2596 -0.4632  0.8355
  180SOPE   O3120519   1.094   3.511   6.944 -0.3945  1.1676  0.4503
  180SOPE   C3120520   0.978   3.468   6.996  0.1659 -0.1595  0.7637
  180SOPE   O3220521   0.872   3.460   6.936 -0.3519  0.2629  0.2917
  180SOPE   C3220522   0.986   3.442   7.138  0.6777  0.2049 -0.2901
  180SOPE   H2X20523   1.017   3.536   7.189  2.0242  0.7842 -2.1288
  180SOPE   H2Y20524   1.060   3.365   7.166 -0.0202  0.3860  2.1709
  180SOPE   C2320525   1.126   3.070   6.977  0.1532 -0.6215 -0.5883
  180SOPE   H3R20526   1.043   3.144   6.987  1.0677  0.3409  0.0330
  180SOPE   H3S20527   1.221   3.105   7.021  0.3391 -0.9466 -0.7341
  180SOPE   C2420528   1.077   2.948   7.047  0.1955  0.5216  0.1124
  180SOPE   H4R20529   0.994   2.899   6.991  2.0105  0.0151 -2.2170
  180SOPE   H4S20530   1.156   2.870   7.044  1.0984  1.4817 -3.1848
  180SOPE   C2520531   1.035   2.987   7.191 -0.4481 -0.0147 -0.2217
  180SOPE   H5R20532   1.120   3.037   7.242  0.0597 -0.6850 -0.4118
  180SOPE   H5S20533   0.947   3.055   7.188  1.3669  2.3533 -1.0519
  180SOPE   C2620534   1.001   2.871   7.279  0.0557 -0.1100  0.0157
  180SOPE   H6R20535   0.915   2.820   7.230  0.5177 -0.5756 -0.3137
  180SOPE   H6S20536   1.087   2.802   7.276  0.0792 -0.0986  0.3777
  180SOPE   C2720537   0.975   2.901   7.431  0.4468  0.0208 -0.4545
  180SOPE   H7R20538   1.061   2.946   7.486  0.2652  1.2415 -1.1460
  180SOPE   H7S20539   0.899   2.982   7.430  0.7736  0.3729  1.1066
  180SOPE   C2820540   0.934   2.773   7.500  0.5431  0.5431 -0.3853
  180SOPE   H8R20541   0.880   2.790   7.596 -0.1398  0.1326 -0.6967
  180SOPE   H8S20542   0.863   2.720   7.433  0.6779  0.5036 -0.4955
  180SOPE   C2920543   1.055   2.695   7.530  0.1243  0.0515  0.0318
  180SOPE   H9120544   1.068   2.628   7.444  3.1367 -0.1018  0.5450
  180SOPE  C21020545   1.128   2.679   7.642 -0.0512 -0.2021  0.3742
  180SOPE  H10120546   1.217   2.614   7.643  0.7492  0.8846  0.9746
  180SOPE  C21120547   1.108   2.742   7.775  0.3201 -0.5052  0.4260
  180SOPE  H11R20548   1.105   2.653   7.842 -1.5141 -0.9118 -0.1504
  180SOPE  H11S20549   1.004   2.779   7.790  0.3577 -1.1706  2.5550
  180SOPE  C21220550   1.204   2.854   7.810 -0.2306 -0.3619 -0.2458
  180SOPE  H12R20551   1.165   2.926   7.885  3.4918  1.2323  0.2570
  180SOPE  H12S20552   1.226   2.910   7.717  3.1575 -1.6584 -0.2975
  180SOPE  C21320553   1.347   2.807   7.867  0.3185 -0.5632  1.0899
  180SOPE  H13R20554   1.415   2.894   7.867  0.2549 -0.5046  0.3461
  180SOPE  H13S20555   1.384   2.729   7.797 -2.5453 -0.1337 -1.0118
  180SOPE  C21420556   1.320   2.762   8.014  0.0830 -0.3492 -0.4988
  180SOPE  H14R20557   1.227   2.701   8.009 -0.9961  1.1120  1.0903
  180SOPE  H14S20558   1.305   2.851   8.079  1.9267 -0.9774  0.8145
  180SOPE  C21520559   1.433   2.678   8.064 -0.1619 -0.3002  0.0004
  180SOPE  H15R20560   1.520   2.746   8.052 -1.3842  0.9393 -2.0321
  180SOPE  H15S20561   1.442   2.593   7.993 -0.7931 -0.5146  0.1735
  180SOPE  C21620562   1.414   2.619   8.204 -0.1007 -0.4123  0.0552
  180SOPE  H16R20563   1.308   2.597   8.228 -0.2758 -0.0687 -0.4003
  180SOPE  H16S20564   1.440   2.694   8.281  1.6299 -2.0858  1.1621
  180SOPE  C21720565   1.497   2.490   8.237 -0.3859 -0.2453 -0.1927
  180SOPE  H17R20566   1.601   2.519   8.263 -0.5271 -0.0008  0.1013
  180SOPE  H17S20567   1.516   2.432   8.144 -2.2605 -1.5152  0.1699
  180SOPE  C21820568   1.431   2.394   8.334  0.1184 -0.0942  0.0462
  180SOPE  H18R20569   1.498   2.305   8.337 -1.3329 -1.1827  1.2830
  180SOPE  H18S20570   1.325   2.377   8.304 -0.1228 -1.1230  1.4040
  180SOPE  H18T20571   1.414   2.453   8.427  0.6546  3.1774 -1.8676
  180SOPE   C3320572   0.840   3.421   7.197 -0.1060  0.0107  0.0747
  180SOPE   H3X20573   0.806   3.322   7.159  3.0199 -1.8203  1.7556
  180SOPE   H3Y20574   0.774   3.504   7.164 -0.5193  0.0181  0.9049
  180SOPE   C3420575   0.840   3.404   7.350  0.0485 -0.3751 -0.1174
  180SOPE   H4X20576   0.733   3.389   7.373 -0.2269 -2.1461 -2.3850
  180SOPE   H4Y20577   0.895   3.495   7.383 -1.5419 -0.2931  2.4246
  180SOPE   C3520578   0.919   3.285   7.404  0.9441  0.4450  0.7273
  180SOPE   H5X20579   1.023   3.304   7.371  1.0494 -1.1851  0.0605
  180SOPE   H5Y20580   0.881   3.189   7.362  0.8905  0.5942  0.4380
  180SOPE   C3620581   0.918   3.277   7.555 -0.4797 -0.0044 -0.1668
  180SOPE   H6X20582   0.948   3.371   7.607  1.8161 -0.6769 -0.2331
  180SOPE   H6Y20583   0.991   3.196   7.575 -0.6310 -0.8874 -3.0370
  180SOPE   C3720584   0.779   3.245   7.619  0.6269 -0.3518 -1.5590
  180SOPE   H7X20585   0.746   3.144   7.587  0.5580 -1.2699  1.2573
  180SOPE   H7Y20586   0.707   3.324   7.587 -1.1372 -0.9061  0.9059
  180SOPE   C3820587   0.768   3.234   7.772  0.5207  0.2414  0.2601
  180SOPE   H8X20588   0.667   3.197   7.802 -0.3466  1.1340 -1.4597
  180SOPE   H8Y20589   0.794   3.324   7.832 -0.5120 -0.3827  1.6871
  180SOPE   C3920590   0.868   3.127   7.820 -0.2102 -0.2985 -0.2783
  180SOPE   H9X20591   0.969   3.170   7.801  0.0049 -0.4058  0.5835
  180SOPE   H9Y20592   0.866   3.034   7.758 -0.7914  0.1692 -0.9662
  180SOPE  C31020593   0.851   3.091   7.975  0.7677 -0.0320 -0.6357
  180SOPE  H10X20594   0.743   3.065   7.977  0.7787 -0.2317 -2.1463
  180SOPE  H10Y20595   0.855   3.188   8.029  3.2220  1.0200 -2.5670
  180SOPE  C31120596   0.943   2.984   8.021 -0.5836  0.3444  0.4221
  180SOPE  H11X20597   1.043   3.017   8.054  0.5130 -1.6608 -0.8368
  180SOPE  H11Y20598   0.959   2.903   7.946 -0.4564 -0.7427  1.5993
  180SOPE  C31220599   0.888   2.904   8.138  0.6898  0.4360 -0.4847
  180SOPE  H12X20600   0.783   2.872   8.120  0.9487 -0.8776  0.2550
  180SOPE  H12Y20601   0.886   2.972   8.226  0.0670 -1.5547  1.0854
  180SOPE  C31320602   0.988   2.793   8.172 -0.0021  0.4279 -0.2465
  180SOPE  H13X20603   1.095   2.821   8.162 -0.1014  1.6525  1.8281
  180SOPE  H13Y20604   0.965   2.715   8.096  0.2299  0.1820 -0.0610
  180SOPE  C31420605   0.978   2.731   8.315 -0.1988 -0.3951 -0.4477
  180SOPE  H14X20606   1.032   2.634   8.315  0.3718 -0.0823 -0.5827
  180SOPE  H14Y20607   0.874   2.708   8.345 -0.2811  2.8212  2.0096
  180SOPE  C31520608   1.035   2.825   8.425  0.6444  0.4570  0.5518
  180SOPE  H15X20609   0.997   2.930   8.420 -1.1506 -0.1860  0.1907
  180SOPE  H15Y20610   1.144   2.830   8.404  0.1440 -3.2216 -3.6726
  180SOPE  C31620611   1.034   2.783   8.568  0.3295  0.1671  0.8139
  180SOPE  H16X20612   1.072   2.679   8.567  0.0811  0.0698 -1.5833
  180SOPE  H16Y20613   0.928   2.778   8.600 -0.3186  2.1205 -0.9479
  180SOPE  C31720614   1.122   2.863   8.659  0.0976  0.1326 -0.3502
  180SOPE  H17X20615   1.229   2.857   8.629 -0.1736 -3.0811 -0.7847
  180SOPE  H17Y20616   1.099   2.824   8.761  0.9270  1.3746  0.3303
  180SOPE  C31820617   1.080   3.016   8.681 -0.0949 -0.3766 -0.4828
  180SOPE  H18X20618   0.975   3.031   8.713 -0.3779 -1.2551 -0.9788
  180SOPE  H18Y20619   1.096   3.059   8.579  1.0306  1.5951  0.5013
  180SOPE  H18Z20620   1.157   3.060   8.747 -2.5808  0.5453  1.8847
  181SOPE     N20621   0.507   1.624   5.928 -0.9188  0.0693  0.3410
  181SOPE   HN120622   0.537   1.608   6.026 -0.9223 -1.3460  0.1318
  181SOPE   HN220623   0.569   1.700   5.894  1.4411 -2.0060 -0.2109
  181SOPE   HN320624   0.408   1.656   5.933 -0.5915  1.5524 -1.8048
  181SOPE   C1220625   0.524   1.508   5.845 -0.4370  0.3551 -0.1754
  181SOPE  H12A20626   0.629   1.504   5.809 -0.5350 -0.6211 -0.3659
  181SOPE  H12B20627   0.455   1.514   5.759 -2.6848  0.0870  1.5482
  181SOPE   C1120628   0.504   1.372   5.911 -0.1495  1.2046  0.7665
  181SOPE  H11A20629   0.503   1.301   5.825  0.3515  1.3451  0.6462
  181SOPE  H11B20630   0.407   1.371   5.965  0.3995 -0.3242  1.7529
  181SOPE     P20631   0.595   1.213   6.090 -0.0563  0.1869 -0.5292
  181SOPE   O1320632   0.718   1.190   6.170 -0.0216  0.3821  0.0153
  181SOPE   O1420633   0.548   1.103   6.004 -0.1276 -0.3599 -0.3451
  181SOPE   O1220634   0.613   1.340   5.995  0.4757  0.0921  0.4626
  181SOPE   O1120635   0.478   1.249   6.193 -0.3790  0.3441  0.2753
  181SOPE    C120636   0.498   1.374   6.267 -0.8661 -0.2991 -0.7148
  181SOPE    HA20637   0.401   1.428   6.269  0.4075  2.0902 -1.4388
  181SOPE    HB20638   0.560   1.448   6.213 -0.1382 -0.6799 -0.4083
  181SOPE    C220639   0.559   1.364   6.408 -0.6527  0.1262 -0.2442
  181SOPE    HS20640   0.638   1.286   6.393 -1.0468 -0.2440 -0.4030
  181SOPE   O2120641   0.469   1.312   6.504 -0.3679  0.4609 -0.0032
  181SOPE   C2120642   0.515   1.240   6.605 -0.4581  0.8351  0.5550
  181SOPE   O2220643   0.630   1.203   6.615  0.2254 -0.5896 -0.2920
  181SOPE   C2220644   0.401   1.212   6.691  0.9951 -0.2198  0.5439
  181SOPE   H2R20645   0.321   1.156   6.639  2.2494 -2.1880  0.6705
  181SOPE   H2S20646   0.343   1.301   6.725  2.1850  0.9137 -0.3272
  181SOPE    C320647   0.629   1.496   6.454 -0.5300 -0.7283 -0.1355
  181SOPE    HX20648   0.565   1.583   6.428 -0.9291 -0.7989  0.6093
  181SOPE    HY20649   0.720   1.520   6.394 -0.2562  3.0532  1.6592
  181SOPE   O3120650   0.669   1.501   6.591 -0.5037 -0.4401 -0.0122
  181SOPE   C3120651   0.791   1.458   6.616 -0.7263  0.2459  0.2565
  181SOPE   O3220652   0.864   1.407   6.534 -0.2974 -0.7881  0.5017
  181SOPE   C3220653   0.830   1.501   6.756 -0.1182  0.5478 -0.0440
  181SOPE   H2X20654   0.756   1.573   6.795  0.6105  1.0421  0.4297
  181SOPE   H2Y20655   0.927   1.553   6.743  0.9902 -0.4706  3.6831
  181SOPE   C2320656   0.435   1.134   6.821  0.1675 -0.0511  0.5997
  181SOPE   H3R20657   0.525   1.172   6.875  2.3705 -0.9888 -2.2925
  181SOPE   H3S20658   0.466   1.028   6.813 -0.6459 -0.3268  1.0877
  181SOPE   C2420659   0.322   1.121   6.922 -0.4451  0.7249 -0.5661
  181SOPE   H4R20660   0.298   1.222   6.962  0.7132  0.2184  1.4305
  181SOPE   H4S20661   0.232   1.075   6.875 -1.0123  2.2684 -1.0445
  181SOPE   C2520662   0.361   1.037   7.042 -0.1883  0.5482  0.4217
  181SOPE   H5R20663   0.352   0.932   7.007 -1.9787  0.9413 -0.3674
  181SOPE   H5S20664   0.461   1.057   7.085  0.4558 -0.7612 -0.4341
  181SOPE   C2620665   0.264   1.048   7.160 -0.4306 -0.9405  0.0093
  181SOPE   H6R20666   0.268   1.146   7.211  1.0530 -2.1717  2.3498
  181SOPE   H6S20667   0.160   1.039   7.122  0.6338  0.7199 -3.5139
  181SOPE   C2720668   0.267   0.932   7.253  0.0193  0.5982  0.2379
  181SOPE   H7R20669   0.177   0.954   7.315 -0.4722  0.5108 -0.4356
  181SOPE   H7S20670   0.252   0.838   7.196  2.2249 -1.2958  2.6743
  181SOPE   C2820671   0.396   0.916   7.330  0.4815 -0.5234  0.1124
  181SOPE   H8R20672   0.382   0.817   7.379 -2.0881  1.0431  2.6808
  181SOPE   H8S20673   0.474   0.896   7.253  0.0328 -2.4551  0.1394
  181SOPE   C2920674   0.429   1.031   7.421 -1.2784  0.0984 -0.1919
  181SOPE   H9120675   0.499   1.112   7.394  2.0252 -1.5312  3.0246
  181SOPE  C21020676   0.391   1.049   7.547 -0.6530 -0.4628 -0.6064
  181SOPE  H10120677   0.422   1.141   7.598 -0.8384  1.2808 -3.5230
  181SOPE  C21120678   0.294   0.963   7.628  0.2416  0.8923  0.2295
  181SOPE  H11R20679   0.220   0.916   7.560 -0.0284  2.2166 -0.3969
  181SOPE  H11S20680   0.228   1.030   7.688 -0.8157  1.5351 -1.6215
  181SOPE  C21220681   0.342   0.846   7.721  0.9856  0.2662 -0.2798
  181SOPE  H12R20682   0.393   0.766   7.664  0.2992 -1.2495  1.1810
  181SOPE  H12S20683   0.252   0.813   7.778  1.0903 -1.7858 -1.2734
  181SOPE  C21320684   0.428   0.889   7.837  0.8171  0.3420 -0.2158
  181SOPE  H13R20685   0.511   0.947   7.791 -0.2895  0.7851 -1.6999
  181SOPE  H13S20686   0.472   0.795   7.876 -0.5389 -0.6917 -1.1111
  181SOPE  C21420687   0.355   0.968   7.943 -0.6170  0.4405 -0.4240
  181SOPE  H14R20688   0.283   0.904   7.999  0.6243 -0.6679 -0.0486
  181SOPE  H14S20689   0.302   1.056   7.902  0.1365  0.6832 -0.8862
  181SOPE  C21520690   0.459   1.009   8.047  0.3435  0.6440  0.5985
  181SOPE  H15R20691   0.543   1.058   7.994  0.0718 -1.7352 -2.1708
  181SOPE  H15S20692   0.506   0.919   8.093  2.0746  1.0610 -0.3102
  181SOPE  C21620693   0.384   1.100   8.150  0.0739  0.5317  0.0963
  181SOPE  H16R20694   0.284   1.055   8.166  0.0455  0.4049 -0.4104
  181SOPE  H16S20695   0.368   1.203   8.109 -0.1454  0.7299  0.6747
  181SOPE  C21720696   0.464   1.109   8.278  0.3864 -0.3247 -0.5773
  181SOPE  H17R20697   0.567   1.150   8.270  2.9052 -5.4827  2.7187
  181SOPE  H17S20698   0.481   1.008   8.321 -0.3812  0.3751  1.4333
  181SOPE  C21820699   0.393   1.203   8.373  0.1210 -0.1339 -0.4277
  181SOPE  H18R20700   0.439   1.214   8.473 -1.6503 -0.8685  0.4852
  181SOPE  H18S20701   0.291   1.160   8.385 -0.8153  1.0478 -3.6931
  181SOPE  H18T20702   0.374   1.301   8.323  1.5090 -1.2096 -3.1727
  181SOPE   C3320703   0.846   1.384   6.865  0.5063  0.6341  0.3566
  181SOPE   H3X20704   0.759   1.316   6.858  2.2332 -1.7186  0.9799
  181SOPE   H3Y20705   0.844   1.439   6.962  3.7437  0.2725  0.7026
  181SOPE   C3420706   0.982   1.309   6.839 -0.3933  0.3636 -0.4223
  181SOPE   H4X20707   1.066   1.382   6.847 -0.3125  0.1926  0.3594
  181SOPE   H4Y20708   0.990   1.261   6.740 -1.1127  0.6021 -0.6049
  181SOPE   C3520709   0.996   1.197   6.941  0.0753  0.3426  0.5917
  181SOPE   H5X20710   1.057   1.117   6.893  0.9556  2.8216 -2.5994
  181SOPE   H5Y20711   0.902   1.142   6.965  0.8161 -0.7561  1.0163
  181SOPE   C3620712   1.049   1.244   7.071  0.0281 -0.3777  1.4543
  181SOPE   H6X20713   0.978   1.320   7.111  1.7118  0.8995  2.0557
  181SOPE   H6Y20714   1.148   1.289   7.050 -1.3211  1.5674 -1.0269
  181SOPE   C3720715   1.069   1.130   7.174 -0.5629 -0.2531 -0.1390
  181SOPE   H7X20716   1.134   1.045   7.144  0.3062 -0.0371  1.0928
  181SOPE   H7Y20717   0.968   1.091   7.198 -0.0818 -2.0664 -1.0164
  181SOPE   C3820718   1.139   1.183   7.301 -0.0807 -0.5919  0.1401
  181SOPE   H8X20719   1.106   1.287   7.323  0.2317 -0.3913 -0.3159
  181SOPE   H8Y20720   1.247   1.188   7.275 -0.4362 -0.8322 -1.4611
  181SOPE   C3920721   1.114   1.082   7.417  0.2260  0.2015  0.0623
  181SOPE   H9X20722   1.157   0.987   7.381  1.4660  0.6093  0.4394
  181SOPE   H9Y20723   1.009   1.051   7.436  0.0361  1.2107  0.7011
  181SOPE  C31020724   1.186   1.132   7.546 -0.3536 -0.1329 -0.7711
  181SOPE  H10X20725   1.115   1.180   7.616  0.2201  1.0630 -0.9945
  181SOPE  H10Y20726   1.272   1.197   7.519  0.1999 -0.6374 -0.2386
  181SOPE  C31120727   1.251   1.014   7.621 -0.5307  0.2092  0.5969
  181SOPE  H11X20728   1.331   0.969   7.558 -0.3147  0.4550  0.6957
  181SOPE  H11Y20729   1.177   0.932   7.637 -1.9947  1.2059 -0.9520
  181SOPE  C31220730   1.324   1.054   7.755 -0.2904  0.0142 -0.2501
  181SOPE  H12X20731   1.254   1.084   7.836  0.3833 -0.7043  0.6156
  181SOPE  H12Y20732   1.385   1.145   7.736 -1.2220  0.3603 -1.5751
  181SOPE  C31320733   1.407   0.935   7.814 -0.5491 -0.1440 -0.3787
  181SOPE  H13X20734   1.499   0.916   7.754  0.5596 -2.2664  1.9385
  181SOPE  H13Y20735   1.362   0.834   7.814 -1.1349  0.0879  1.9503
  181SOPE  C31420736   1.457   0.971   7.949 -0.0602  0.4088  0.0240
  181SOPE  H14X20737   1.367   1.001   8.006 -1.3510 -2.7191 -0.2863
  181SOPE  H14Y20738   1.520   1.060   7.926 -1.0869  1.2263  0.3692
  181SOPE  C31520739   1.533   0.867   8.030  0.2719  0.8662 -0.6938
  181SOPE  H15X20740   1.622   0.833   7.973 -1.1773 -1.0107 -1.8893
  181SOPE  H15Y20741   1.459   0.786   8.047  1.2165 -0.0758 -0.9811
  181SOPE  C31620742   1.565   0.897   8.176 -0.4329 -0.7753  0.6708
  181SOPE  H16X20743   1.570   0.804   8.237 -2.5964 -1.1439  0.3440
  181SOPE  H16Y20744   1.485   0.961   8.219 -0.8216  1.7016 -3.5721
  181SOPE  C31720745   1.703   0.965   8.191  0.5337  0.1088  0.0477
  181SOPE  H17X20746   1.708   1.063   8.139  2.0589 -0.8018 -1.5844
  181SOPE  H17Y20747   1.774   0.917   8.120 -0.1019  0.2426 -0.6753
  181SOPE  C31820748   1.757   0.959   8.329  0.2597 -0.2469 -0.3669
  181SOPE  H18X20749   1.684   0.993   8.405 -1.5077 -1.2603 -1.5841
  181SOPE  H18Y20750   1.841   1.032   8.335 -0.3966  0.3160  2.5975
  181SOPE  H18Z20751   1.794   0.855   8.344  0.3477  0.1613  2.4706
  182SOPE     N20752   1.449   3.174   6.439 -0.0362  0.2759  0.2013
  182SOPE   HN120753   1.398   3.195   6.527  1.1254 -0.7510  1.1435
  182SOPE   HN220754   1.498   3.256   6.397 -1.0165  0.2326 -1.0687
  182SOPE   HN320755   1.385   3.130   6.369 -0.4858  1.1060  0.0838
  182SOPE   C1220756   1.545   3.073   6.493 -0.4726 -0.3202  0.0609
  182SOPE  H12A20757   1.601   3.117   6.578  1.0569 -1.5073 -0.3133
  182SOPE  H12B20758   1.613   3.045   6.409 -1.1449  0.7818 -0.8671
  182SOPE   C1120759   1.469   2.955   6.545 -0.8222  0.3484  0.5092
  182SOPE  H11A20760   1.398   2.985   6.625 -1.2796  0.7414 -0.0409
  182SOPE  H11B20761   1.544   2.886   6.591  0.6027  0.8731 -0.9449
  182SOPE     P20762   1.449   2.775   6.365  0.3376 -0.0923 -0.1414
  182SOPE   O1320763   1.595   2.777   6.355  0.0989 -0.4749 -0.5154
  182SOPE   O1420764   1.376   2.767   6.241  0.5328 -0.3836 -0.0754
  182SOPE   O1220765   1.386   2.899   6.441  0.2639 -0.0761  0.8652
  182SOPE   O1120766   1.405   2.649   6.456 -0.0807  0.0560 -0.4880
  182SOPE    C120767   1.431   2.615   6.592 -1.1967 -0.1488  0.2116
  182SOPE    HA20768   1.536   2.647   6.610 -0.6024 -0.8914 -1.8236
  182SOPE    HB20769   1.431   2.506   6.613  0.0675 -0.3661 -0.8732
  182SOPE    C220770   1.326   2.668   6.697  0.0152 -0.0794  0.0400
  182SOPE    HS20771   1.329   2.778   6.685  0.4460  0.1627  2.2397
  182SOPE   O2120772   1.358   2.625   6.830  0.3254 -0.2046 -0.0194
  182SOPE   C2120773   1.430   2.708   6.903 -0.0296 -0.2468 -0.1221
  182SOPE   O2220774   1.469   2.821   6.869 -0.2712  0.4570  0.5872
  182SOPE   C2220775   1.475   2.654   7.043  0.0900  0.1048 -0.2852
  182SOPE   H2R20776   1.576   2.697   7.057  0.7368 -1.1640 -1.0220
  182SOPE   H2S20777   1.489   2.544   7.043 -0.9501 -0.0716 -2.8393
  182SOPE    C320778   1.186   2.621   6.652 -0.1654  0.5878 -0.0661
  182SOPE    HX20779   1.187   2.510   6.645 -1.1873  0.5714  0.0498
  182SOPE    HY20780   1.152   2.668   6.557  0.4518 -0.3825 -0.7697
  182SOPE   O3120781   1.088   2.663   6.750 -0.5969  0.1641  0.1945
  182SOPE   C3120782   0.988   2.575   6.750 -0.0163 -0.7346 -0.7565
  182SOPE   O3220783   0.956   2.501   6.664  0.1465 -0.1821 -0.5832
  182SOPE   C3220784   0.922   2.583   6.887 -0.4057 -0.7045  0.2044
  182SOPE   H2X20785   0.890   2.688   6.907  1.1406 -0.5666  2.0430
  182SOPE   H2Y20786   1.000   2.567   6.964  1.8588 -2.0022 -2.2815
  182SOPE   C2320787   1.365   2.697   7.146  0.8184 -0.2663 -0.4081
  182SOPE   H3R20788   1.272   2.641   7.120  0.8160 -0.3770 -0.1569
  182SOPE   H3S20789   1.352   2.804   7.121  0.9425 -0.0440  0.4548
  182SOPE   C2420790   1.408   2.675   7.286 -0.1432  0.0352 -0.2500
  182SOPE   H4R20791   1.320   2.696   7.350  1.3835  2.6164  1.1016
  182SOPE   H4S20792   1.440   2.574   7.319 -0.2293 -0.3654 -1.3492
  182SOPE   C2520793   1.518   2.767   7.336  0.0046  0.8195 -0.6265
  182SOPE   H5R20794   1.614   2.749   7.282  0.0118 -0.7379 -0.1141
  182SOPE   H5S20795   1.486   2.871   7.317 -1.0741  0.5028 -0.5339
  182SOPE   C2620796   1.539   2.754   7.488  0.1791  0.0886 -0.4210
  182SOPE   H6R20797   1.454   2.811   7.531  0.4127 -0.0265  0.1909
  182SOPE   H6S20798   1.550   2.651   7.528  0.3065  0.5481  0.7243
  182SOPE   C2720799   1.664   2.838   7.532 -0.1752 -0.1011  0.5034
  182SOPE   H7R20800   1.756   2.778   7.522 -0.7203 -0.8566  0.0363
  182SOPE   H7S20801   1.662   2.926   7.464 -3.8015 -1.3374 -1.1076
  182SOPE   C2820802   1.641   2.890   7.676 -0.1132 -0.4471 -0.6952
  182SOPE   H8R20803   1.544   2.943   7.687 -0.3087 -0.7786 -0.8010
  182SOPE   H8S20804   1.636   2.797   7.738  0.6465 -0.6076 -0.8648
  182SOPE   C2920805   1.763   2.973   7.702  0.0873 -0.8070  0.3464
  182SOPE   H9120806   1.840   2.974   7.623 -0.4660 -0.1043 -0.1845
  182SOPE  C21020807   1.794   3.033   7.816  0.2612 -0.8694 -0.4761
  182SOPE  H10120808   1.893   3.080   7.826  0.2082 -1.1080  1.2854
  182SOPE  C21120809   1.709   3.031   7.939 -0.1693 -0.8158  0.0009
  182SOPE  H11R20810   1.601   3.014   7.918 -0.9938  2.2253  1.4135
  182SOPE  H11S20811   1.723   3.128   7.991  1.0395  0.0940 -1.9566
  182SOPE  C21220812   1.754   2.926   8.043  0.7303  0.6292  0.6904
  182SOPE  H12R20813   1.744   2.825   7.997  1.2750  1.3158 -0.9938
  182SOPE  H12S20814   1.679   2.944   8.123 -0.1891  1.1128 -0.2688
  182SOPE  C21320815   1.892   2.946   8.098  0.8653 -0.6971 -0.1405
  182SOPE  H13R20816   1.886   3.046   8.145  1.5017 -0.3747 -0.7489
  182SOPE  H13S20817   1.965   2.955   8.014 -0.2002  3.0158 -0.7630
  182SOPE  C21420818   1.948   2.845   8.196 -1.0409 -0.0526  0.0611
  182SOPE  H14R20819   2.048   2.865   8.239 -0.4369  0.8544 -1.7145
  182SOPE  H14S20820   1.958   2.746   8.148 -1.0660 -0.3150  0.5985
  182SOPE  C21520821   1.858   2.834   8.316  0.5473  0.5166 -0.1510
  182SOPE  H15R20822   1.762   2.785   8.292  1.7674 -1.5350 -0.9339
  182SOPE  H15S20823   1.842   2.931   8.368 -0.5489  0.0479  0.3941
  182SOPE  C21620824   1.906   2.737   8.425  0.1572  0.0756  0.6143
  182SOPE  H16R20825   2.015   2.747   8.445  0.5754 -1.8642 -0.4915
  182SOPE  H16S20826   1.897   2.632   8.389  3.0768 -0.3616  1.0159
  182SOPE  C21720827   1.838   2.748   8.557 -0.1480  0.2615  0.6550
  182SOPE  H17R20828   1.824   2.854   8.584  0.1543 -0.1672  2.5434
  182SOPE  H17S20829   1.918   2.716   8.627  0.4595  1.0917  0.3415
  182SOPE  C21820830   1.714   2.658   8.575 -0.2874 -0.0538  0.4475
  182SOPE  H18R20831   1.740   2.553   8.550 -0.8000 -0.1133  0.1661
  182SOPE  H18S20832   1.628   2.704   8.522  0.5565  0.6960 -0.2829
  182SOPE  H18T20833   1.680   2.648   8.681 -1.8053  0.3366  0.0064
  182SOPE   C3320834   0.798   2.490   6.915  0.8877  0.8483 -0.3632
  182SOPE   H3X20835   0.832   2.386   6.892  1.8908  0.2752  3.3712
  182SOPE   H3Y20836   0.723   2.508   6.835  0.6220  0.3680 -0.2235
  182SOPE   C3420837   0.726   2.497   7.043 -0.1241  0.1390 -0.4718
  182SOPE   H4X20838   0.626   2.447   7.040 -1.0132  1.8895 -0.7246
  182SOPE   H4Y20839   0.696   2.602   7.063 -0.0435  0.0569  0.0733
  182SOPE   C3520840   0.806   2.454   7.170  0.1633  0.2666 -0.7998
  182SOPE   H5X20841   0.888   2.525   7.191  0.9587 -1.2304  1.3868
  182SOPE   H5Y20842   0.862   2.366   7.131 -1.1824 -0.9016 -0.1471
  182SOPE   C3620843   0.725   2.396   7.295 -0.4768 -0.0688 -0.1768
  182SOPE   H6X20844   0.636   2.461   7.313 -1.6686 -1.7225  0.0416
  182SOPE   H6Y20845   0.789   2.387   7.385  0.6148  0.9335 -0.8378
  182SOPE   C3720846   0.669   2.256   7.263  0.1758  0.2902  0.6181
  182SOPE   H7X20847   0.750   2.183   7.243 -1.2906 -1.5032  1.1261
  182SOPE   H7Y20848   0.604   2.258   7.172  1.7272 -0.8063 -0.5504
  182SOPE   C3820849   0.605   2.188   7.387 -0.0501 -0.3608  0.3999
  182SOPE   H8X20850   0.508   2.227   7.426 -1.4173 -2.9816 -0.3036
  182SOPE   H8Y20851   0.678   2.202   7.471 -1.2503 -0.0545  1.4009
  182SOPE   C3920852   0.596   2.038   7.356  0.1339 -0.1894 -0.0797
  182SOPE   H9X20853   0.691   1.981   7.364 -0.6887 -1.2202  3.1791
  182SOPE   H9Y20854   0.550   2.029   7.256 -0.8290 -0.5581  0.3855
  182SOPE  C31020855   0.516   1.977   7.471  0.0648 -0.1490 -0.0393
  182SOPE  H10X20856   0.409   2.004   7.463  0.4125  0.6249 -3.1904
  182SOPE  H10Y20857   0.555   2.011   7.569  1.6709 -0.1980 -0.6409
  182SOPE  C31120858   0.532   1.823   7.467  0.2913  0.2333  0.4950
  182SOPE  H11X20859   0.641   1.808   7.484  0.5049 -0.9091 -1.7884
  182SOPE  H11Y20860   0.517   1.781   7.366 -0.4668  0.6634  0.4256
  182SOPE  C31220861   0.448   1.747   7.574  0.0429  0.3222  0.0687
  182SOPE  H12X20862   0.407   1.800   7.662 -1.2247 -0.3030 -0.1391
  182SOPE  H12Y20863   0.514   1.664   7.610  0.4904 -0.0033 -1.4464
  182SOPE  C31320864   0.332   1.670   7.507  0.1435 -0.2865  0.6357
  182SOPE  H13X20865   0.362   1.617   7.414 -3.2151  0.9444 -1.2283
  182SOPE  H13Y20866   0.265   1.754   7.481  1.6420  1.6816  2.9206
  182SOPE  C31420867   0.262   1.577   7.604  0.4392  0.6009  0.1721
  182SOPE  H14X20868   0.171   1.535   7.558  1.3981 -1.7080  0.2959
  182SOPE  H14Y20869   0.228   1.637   7.691 -0.3860 -0.5556  0.6608
  182SOPE  C31520870   0.339   1.452   7.648  0.6582  0.2511 -0.4299
  182SOPE  H15X20871   0.426   1.493   7.704  1.3693 -1.5105 -0.2116
  182SOPE  H15Y20872   0.387   1.401   7.562  0.6013 -1.4367  0.5129
  182SOPE  C31620873   0.273   1.360   7.748 -0.3082  0.3384  0.1950
  182SOPE  H16X20874   0.340   1.274   7.769 -2.2933 -0.6360  2.6970
  182SOPE  H16Y20875   0.188   1.318   7.690  2.0229 -2.1591 -1.5307
  182SOPE  C31720876   0.235   1.418   7.888 -0.1763 -0.7921  0.2073
  182SOPE  H17X20877   0.180   1.339   7.945  0.9530 -2.4712 -0.9951
  182SOPE  H17Y20878   0.160   1.499   7.874  1.6826  1.4328  2.5305
  182SOPE  C31820879   0.357   1.467   7.969 -0.1440 -0.0328 -0.3938
  182SOPE  H18X20880   0.450   1.410   7.947  0.3546 -0.2762  2.1540
  182SOPE  H18Y20881   0.340   1.469   8.079 -0.3625 -0.6983 -0.4101
  182SOPE  H18Z20882   0.379   1.570   7.935 -1.7895 -0.2968 -2.3081
  183SOPE     N20883   3.192   0.659   6.502 -0.1141 -0.7692 -0.6191
  183SOPE   HN120884   3.118   0.594   6.468 -1.7334  0.9488 -0.4613
  183SOPE   HN220885   3.254   0.680   6.421 -0.0244  0.7572 -0.1741
  183SOPE   HN320886   3.245   0.609   6.576  2.3335  0.3012 -1.5773
  183SOPE   C1220887   3.134   0.779   6.569 -0.2893 -0.4326 -0.3969
  183SOPE  H12A20888   3.075   0.745   6.656  1.3487  0.0482  0.9268
  183SOPE  H12B20889   3.068   0.831   6.496 -0.3146  0.1317  0.0260
  183SOPE   C1120890   3.250   0.869   6.607 -0.0874  0.1455 -0.2661
  183SOPE  H11A20891   3.328   0.822   6.669  1.9010  3.7330  0.1267
  183SOPE  H11B20892   3.214   0.946   6.680  1.0478  1.3915 -0.9938
  183SOPE     P20893   3.425   0.893   6.402  0.0888 -0.1596 -0.1650
  183SOPE   O1320894   3.429   0.987   6.288  0.3999  0.4690  0.1976
  183SOPE   O1420895   3.408   0.750   6.370 -0.5118  0.4328  0.0831
  183SOPE   O1220896   3.310   0.943   6.502 -0.0931  0.8130  0.0876
  183SOPE   O1120897   3.554   0.909   6.498  0.1915 -0.2238  0.4980
  183SOPE    C120898   3.621   1.037   6.509  0.3960  0.6407  0.6027
  183SOPE    HA20899   3.562   1.122   6.467 -0.6221  1.0369  2.7811
  183SOPE    HB20900   3.717   1.022   6.454  0.4535 -2.4080  1.4504
  183SOPE    C220901   3.657   1.074   6.658 -0.0765  0.1223  0.5700
  183SOPE    HS20902   3.711   1.171   6.648  0.7563 -0.4943 -1.0050
  183SOPE   O2120903   3.751   0.973   6.708  0.0562  0.2422 -1.2822
  183SOPE   C2120904   3.847   1.014   6.781 -0.5011  0.0099 -0.0821
  183SOPE   O2220905   3.873   1.134   6.805  0.5306 -0.1153  0.3420
  183SOPE   C2220906   3.928   0.895   6.829  0.4700  0.3842 -0.1980
  183SOPE   H2R20907   3.985   0.852   6.745  0.1481  0.4253 -0.4390
  183SOPE   H2S20908   3.855   0.824   6.872  0.8649  1.1605  1.8062
  183SOPE    C320909   3.529   1.087   6.743  0.5967  0.4316 -0.6402
  183SOPE    HX20910   3.464   0.999   6.722  0.0689 -0.0531  2.7238
  183SOPE    HY20911   3.478   1.180   6.709  0.6566  0.8377  0.3670
  183SOPE   O3120912   3.554   1.099   6.886  0.1039 -0.2302  0.2097
  183SOPE   C3120913   3.500   1.009   6.967  0.1519  0.2009 -0.2297
  183SOPE   O3220914   3.414   0.931   6.931 -0.0876 -0.0763 -0.0805
  183SOPE   C3220915   3.550   1.019   7.105  0.7095 -0.3287  0.6392
  183SOPE   H2X20916   3.645   1.077   7.106 -0.1990  1.2065 -0.7575
  183SOPE   H2Y20917   3.559   0.916   7.148  0.9915  0.3923  2.3675
  183SOPE   C2320918   4.013   0.945   6.943 -0.1585  0.5292  0.1139
  183SOPE   H3R20919   4.081   1.030   6.918  0.7752 -0.3701 -0.4676
  183SOPE   H3S20920   4.090   0.868   6.967 -2.1047 -1.3534  0.4812
  183SOPE   C2420921   3.955   0.968   7.080  0.0291 -0.6502 -0.2693
  183SOPE   H4R20922   3.868   1.036   7.068  1.3007  0.9832 -0.3930
  183SOPE   H4S20923   3.909   0.876   7.122  2.9143 -0.8679  2.5526
  183SOPE   C2520924   4.043   1.020   7.190  0.4706 -0.0991  0.3265
  183SOPE   H5R20925   4.129   0.951   7.204  0.9356 -0.1740 -2.6791
  183SOPE   H5S20926   4.081   1.119   7.157 -1.8009  1.2787  1.6506
  183SOPE   C2620927   3.960   1.038   7.315 -0.5396 -0.3917 -0.6907
  183SOPE   H6R20928   3.865   1.096   7.312 -1.4047 -1.5528  2.3977
  183SOPE   H6S20929   3.943   0.943   7.370 -0.6319  1.5295  2.7653
  183SOPE   C2720930   4.050   1.115   7.419 -0.2459  0.1154  0.2643
  183SOPE   H7R20931   4.144   1.057   7.428  0.1692  0.6190 -0.7708
  183SOPE   H7S20932   4.082   1.212   7.376  1.4844 -0.6691 -0.2372
  183SOPE   C2820933   3.964   1.147   7.542  0.0053 -0.2246  0.8957
  183SOPE   H8R20934   3.885   1.214   7.501  0.2017 -0.4490  0.1437
  183SOPE   H8S20935   3.900   1.058   7.561  0.3796 -0.7295 -0.1347
  183SOPE   C2920936   4.055   1.191   7.657 -0.2794 -0.1880  0.5027
  183SOPE   H9120937   4.158   1.220   7.632 -1.2627  2.2401 -0.9995
  183SOPE  C21020938   4.016   1.207   7.788 -0.8047 -0.4200  0.3836
  183SOPE  H10120939   4.090   1.246   7.859  0.5458  0.1250 -1.3070
  183SOPE  C21120940   3.880   1.173   7.839  0.4518 -0.6839  0.2631
  183SOPE  H11R20941   3.825   1.128   7.754 -0.7879  1.3009 -0.0242
  183SOPE  H11S20942   3.834   1.272   7.857  0.9302 -0.3992 -0.0460
  183SOPE  C21220943   3.877   1.078   7.959 -0.0076 -0.2160 -0.0512
  183SOPE  H12R20944   3.913   0.976   7.936  0.7945 -0.3034  1.5486
  183SOPE  H12S20945   3.772   1.059   7.991  0.1485  3.0010  2.6881
  183SOPE  C21320946   3.938   1.130   8.084 -0.0669 -0.0696  0.4690
  183SOPE  H13R20947   4.041   1.168   8.064 -0.3728  0.1985 -0.6596
  183SOPE  H13S20948   3.945   1.047   8.157 -0.2123  1.5399  2.3353
  183SOPE  C21420949   3.863   1.255   8.148 -0.7577 -0.6361  1.2831
  183SOPE  H14R20950   3.762   1.213   8.168 -1.7398 -0.2462 -2.5066
  183SOPE  H14S20951   3.852   1.336   8.073 -0.4152 -1.0771  0.7510
  183SOPE  C21520952   3.916   1.315   8.273  0.5312 -0.4607  0.4568
  183SOPE  H15R20953   3.839   1.393   8.291  2.1588  1.8583 -2.1252
  183SOPE  H15S20954   4.015   1.364   8.261  0.3006 -0.0128  0.3610
  183SOPE  C21620955   3.913   1.220   8.395  0.2975 -0.3279  0.3579
  183SOPE  H16R20956   3.988   1.138   8.401 -0.1944 -0.6334  2.4863
  183SOPE  H16S20957   3.816   1.170   8.413  0.4273 -0.5465  0.4463
  183SOPE  C21720958   3.949   1.300   8.529  0.3268 -0.1372 -0.3061
  183SOPE  H17R20959   3.860   1.364   8.549 -0.0837 -0.9654  0.5436
  183SOPE  H17S20960   4.020   1.383   8.510 -0.9415  1.1653  0.4825
  183SOPE  C21820961   3.976   1.214   8.655 -0.2753 -0.0801  0.2509
  183SOPE  H18R20962   4.009   1.276   8.741 -1.9055 -1.5207  1.9970
  183SOPE  H18S20963   4.056   1.142   8.627 -1.6879 -1.7184  0.3239
  183SOPE  H18T20964   3.875   1.169   8.672  0.4205 -1.7235  0.1364
  183SOPE   C3320965   3.453   1.105   7.194  0.2065 -0.2481  0.3248
  183SOPE   H3X20966   3.347   1.072   7.187 -1.0928  3.6672 -0.1382
  183SOPE   H3Y20967   3.445   1.208   7.153  0.6776  0.1251  1.1463
  183SOPE   C3420968   3.501   1.114   7.336 -0.8271  0.0705 -0.1144
  183SOPE   H4X20969   3.588   1.183   7.341 -2.0826  1.7273 -0.5944
  183SOPE   H4Y20970   3.545   1.017   7.367  0.5501  0.7837  0.1751
  183SOPE   C3520971   3.387   1.150   7.432  0.5115 -0.2607  0.9064
  183SOPE   H5X20972   3.330   1.055   7.440  0.4576 -0.2629  0.4691
  183SOPE   H5Y20973   3.316   1.221   7.385  1.3796  0.5765  0.8516
  183SOPE   C3620974   3.456   1.196   7.561  0.0437  0.4803 -0.4080
  183SOPE   H6X20975   3.500   1.298   7.554 -0.6681  0.7975 -0.3044
  183SOPE   H6Y20976   3.537   1.123   7.585 -0.5315  0.4516  1.5137
  183SOPE   C3720977   3.352   1.202   7.679 -0.0521 -0.3013  0.0007
  183SOPE   H7X20978   3.307   1.101   7.681 -1.9433  0.5215  0.9928
  183SOPE   H7Y20979   3.274   1.279   7.660  0.4356  0.2638  0.2355
  183SOPE   C3820980   3.423   1.243   7.811 -0.2629 -0.3987  0.2978
  183SOPE   H8X20981   3.469   1.342   7.790  0.7538 -0.9800 -0.2634
  183SOPE   H8Y20982   3.507   1.174   7.830  0.2331  0.8349  2.9271
  183SOPE   C3920983   3.334   1.247   7.935  0.4882 -0.0835 -0.1321
  183SOPE   H9X20984   3.295   1.144   7.949 -0.9163  0.7515  2.4622
  183SOPE   H9Y20985   3.248   1.318   7.921 -2.6543 -3.3897  1.5686
  183SOPE  C31020986   3.407   1.265   8.068  0.6537  0.1304 -0.4948
  183SOPE  H10X20987   3.430   1.372   8.083  0.8862  0.1667 -1.0859
  183SOPE  H10Y20988   3.506   1.214   8.067  0.4039 -0.3453 -1.3317
  183SOPE  C31120989   3.314   1.225   8.189  0.0990  0.7844 -0.9099
  183SOPE  H11X20990   3.278   1.120   8.187 -0.2969  0.9243 -1.0760
  183SOPE  H11Y20991   3.217   1.278   8.193 -1.3733 -1.7755 -1.9709
  183SOPE  C31220992   3.381   1.234   8.325 -0.5379  0.0927  0.1416
  183SOPE  H12X20993   3.422   1.334   8.348 -1.0083  0.5405 -0.9821
  183SOPE  H12Y20994   3.471   1.168   8.331 -1.6906 -1.6465 -1.4203
  183SOPE  C31320995   3.287   1.214   8.445  0.2460  0.0772  0.0200
  183SOPE  H13X20996   3.344   1.154   8.519 -0.1663 -1.8741 -1.2078
  183SOPE  H13Y20997   3.193   1.162   8.415  1.8433 -2.5750 -0.6086
  183SOPE  C31420998   3.244   1.346   8.501  0.0525  0.7298  0.2437
  183SOPE  H14X20999   3.196   1.410   8.424  0.1293  0.6034  0.0911
  183SOPE  H14Y21000   3.334   1.405   8.529  0.9254 -0.2601 -0.4483
  183SOPE  C31521001   3.168   1.340   8.634  0.2278  0.1369  1.1393
  183SOPE  H15X21002   3.159   1.438   8.686 -0.2006  0.4253  0.5257
  183SOPE  H15Y21003   3.219   1.268   8.701  0.7855 -0.0349  0.5412
  183SOPE  C31621004   3.032   1.278   8.615 -0.0066 -0.9375  0.1779
  183SOPE  H16X21005   3.033   1.181   8.561  1.3518 -0.2865 -1.0266
  183SOPE  H16Y21006   2.959   1.346   8.567 -0.0757 -0.1101  1.4302
  183SOPE  C31721007   2.958   1.246   8.742  0.2235  0.7237 -0.1083
  183SOPE  H17X21008   2.850   1.237   8.723 -0.0090 -1.6554  2.0693
  183SOPE  H17Y21009   2.981   1.334   8.806 -0.9596  1.3187 -0.4953
  183SOPE  C31821010   2.997   1.118   8.812 -0.1739  0.1269 -0.1802
  183SOPE  H18X21011   3.106   1.120   8.835 -0.4198  0.7719  0.9611
  183SOPE  H18Y21012   2.968   1.031   8.749  0.8735 -0.3862  0.0301
  183SOPE  H18Z21013   2.940   1.112   8.907  0.6243 -0.4892  0.2671
  184SOPE     N21014   3.531   1.719   6.075  0.0020 -0.1123  0.3155
  184SOPE   HN121015   3.500   1.795   6.139 -1.9826 -0.9882  0.4104
  184SOPE   HN221016   3.508   1.624   6.111 -0.6291 -0.0784  0.0049
  184SOPE   HN321017   3.632   1.719   6.050 -1.1265 -1.7853 -4.6467
  184SOPE   C1221018   3.464   1.721   5.942  0.3426 -0.0505 -0.3281
  184SOPE  H12A21019   3.491   1.629   5.885  0.1530 -1.0261  1.1265
  184SOPE  H12B21020   3.496   1.809   5.882  0.2124  0.5801  0.5103
  184SOPE   C1121021   3.313   1.715   5.966 -0.0273 -0.7962 -0.0116
  184SOPE  H11A21022   3.290   1.618   6.016 -0.1849 -1.9559 -2.2777
  184SOPE  H11B21023   3.265   1.725   5.867  1.3734 -0.8696 -0.7226
  184SOPE     P21024   3.128   1.822   6.111 -0.2079 -0.0983 -0.3121
  184SOPE   O1321025   3.045   1.810   5.993 -0.4486  0.2923 -0.5254
  184SOPE   O1421026   3.117   1.934   6.202 -0.0497 -0.0630 -0.2040
  184SOPE   O1221027   3.268   1.821   6.058 -0.3877  0.6932 -0.0977
  184SOPE   O1121028   3.122   1.691   6.199 -0.5132 -0.1879  0.2536
  184SOPE    C121029   3.221   1.680   6.303  0.3650 -0.2545 -0.0105
  184SOPE    HA21030   3.292   1.763   6.324  1.0266 -1.1183  1.2276
  184SOPE    HB21031   3.289   1.597   6.275 -0.9244 -1.6198  0.8153
  184SOPE    C221032   3.163   1.637   6.440 -0.6241 -0.1340 -0.2018
  184SOPE    HS21033   3.256   1.635   6.501 -0.5999  1.7111 -0.1448
  184SOPE   O2121034   3.089   1.515   6.435 -0.4378  0.5359 -0.3490
  184SOPE   C2121035   3.164   1.395   6.424  0.4072 -0.2302 -0.2770
  184SOPE   O2221036   3.286   1.396   6.426  0.1421  0.2137  0.1789
  184SOPE   C2221037   3.077   1.272   6.426 -0.4031 -0.2155 -0.1789
  184SOPE   H2R21038   3.098   1.209   6.338 -1.6127  1.4536 -1.7095
  184SOPE   H2S21039   2.973   1.311   6.417 -0.8425 -1.2321  0.4549
  184SOPE    C321040   3.069   1.746   6.506 -0.0324 -0.1807 -0.3354
  184SOPE    HX21041   2.968   1.735   6.460  0.0981 -0.2997 -0.5945
  184SOPE    HY21042   3.105   1.842   6.463 -0.4178 -0.1093 -0.4993
  184SOPE   O3121043   3.070   1.739   6.652  0.0809  0.3024  0.3868
  184SOPE   C3121044   2.972   1.670   6.707 -0.0147  1.3777  0.3957
  184SOPE   O3221045   2.882   1.603   6.656 -0.1347 -0.1821  0.1278
  184SOPE   C3221046   2.984   1.662   6.858  0.3421 -0.6936  0.2101
  184SOPE   H2X21047   2.997   1.767   6.893 -2.6859 -0.8078  1.9164
  184SOPE   H2Y21048   3.074   1.599   6.877  2.0650  1.6916  0.1123
  184SOPE   C2321049   3.091   1.192   6.558 -0.2527 -0.1345  0.1820
  184SOPE   H3R21050   3.193   1.148   6.564 -0.0707  0.1610 -0.6695
  184SOPE   H3S21051   3.015   1.111   6.548 -0.8396  0.6495 -2.0645
  184SOPE   C2421052   3.075   1.267   6.690  0.3070  0.1208  0.4369
  184SOPE   H4R21053   3.138   1.358   6.696 -0.1818  0.3314  2.7608
  184SOPE   H4S21054   2.973   1.306   6.673  1.0108  2.0157  0.4015
  184SOPE   C2521055   3.102   1.191   6.817  0.9115  0.1351  0.3155
  184SOPE   H5R21056   3.045   1.096   6.810  0.9503  0.1692 -0.4562
  184SOPE   H5S21057   3.210   1.165   6.824  0.6541 -1.2262 -0.5331
  184SOPE   C2621058   3.044   1.262   6.935 -0.0500 -0.2187 -0.2810
  184SOPE   H6R21059   3.087   1.364   6.933  0.5102 -0.4389  0.2212
  184SOPE   H6S21060   2.934   1.267   6.922 -0.4025  0.2773  2.5839
  184SOPE   C2721061   3.092   1.187   7.064 -0.0532  0.2085  0.5679
  184SOPE   H7R21062   3.058   1.082   7.064  0.4481  0.0445  1.3386
  184SOPE   H7S21063   3.202   1.178   7.051 -0.1361  0.3954 -0.3137
  184SOPE   C2821064   3.060   1.253   7.194 -0.1749  0.1855 -0.1167
  184SOPE   H8R21065   3.123   1.221   7.280  1.2040  0.8345 -0.8693
  184SOPE   H8S21066   3.091   1.360   7.183 -0.2387  0.1071 -1.1029
  184SOPE   C2921067   2.915   1.254   7.230 -0.2479 -0.1145  0.4865
  184SOPE   H9121068   2.844   1.300   7.160  0.8164 -0.9288 -1.1567
  184SOPE  C21021069   2.873   1.209   7.346  0.0460  0.4073  0.8869
  184SOPE  H10121070   2.766   1.207   7.370 -0.2043 -1.3584 -0.2429
  184SOPE  C21121071   2.955   1.146   7.457  0.0620  0.0190 -0.4643
  184SOPE  H11R21072   3.057   1.117   7.423 -0.3527 -3.7066  1.1778
  184SOPE  H11S21073   2.902   1.056   7.496 -0.3791  0.4799  0.0133
  184SOPE  C21221074   2.971   1.244   7.579  0.5472 -0.8017 -0.0205
  184SOPE  H12R21075   2.877   1.301   7.596  0.6543  0.1330 -2.3531
  184SOPE  H12S21076   3.047   1.323   7.560 -1.6546  1.8719  1.8382
  184SOPE  C21321077   3.014   1.169   7.705  0.1134 -0.3190 -0.2419
  184SOPE  H13R21078   3.077   1.242   7.760  0.3310 -0.8862  0.2663
  184SOPE  H13S21079   3.076   1.078   7.692  1.3672  0.4593  0.1710
  184SOPE  C21421080   2.886   1.134   7.779  0.1737  0.1021 -0.2681
  184SOPE  H14R21081   2.815   1.080   7.713 -0.0352  1.3334 -1.0785
  184SOPE  H14S21082   2.848   1.234   7.810 -2.6154 -1.4471  1.4468
  184SOPE  C21521083   2.914   1.048   7.911  0.4631 -0.2199  0.5424
  184SOPE  H15R21084   2.989   0.967   7.900  0.4204 -0.1959  0.0494
  184SOPE  H15S21085   2.822   0.999   7.951  0.0369 -0.9608 -1.3056
  184SOPE  C21621086   2.948   1.145   8.021 -0.0587  0.1939 -1.5667
  184SOPE  H16R21087   2.872   1.225   8.010  1.3920  1.5438 -2.0111
  184SOPE  H16S21088   3.037   1.204   7.990  1.3813 -1.0601  0.1044
  184SOPE  C21721089   2.964   1.092   8.166  0.1044  0.1129  0.1219
  184SOPE  H17R21090   2.958   1.185   8.227 -0.2921 -0.2688  0.6661
  184SOPE  H17S21091   3.065   1.046   8.165  0.3634  0.6621 -1.7106
  184SOPE  C21821092   2.858   0.991   8.212 -0.3302 -0.1941 -0.4456
  184SOPE  H18R21093   2.871   0.986   8.322  0.9661  1.9715 -0.4688
  184SOPE  H18S21094   2.889   0.890   8.176 -0.1904 -0.1583 -0.4263
  184SOPE  H18T21095   2.752   1.011   8.188 -0.5944 -1.2348 -0.1825
  184SOPE   C3321096   2.857   1.603   6.920  0.2562  0.8523  0.4857
  184SOPE   H3X21097   2.838   1.503   6.876 -3.8243  1.1337  1.3890
  184SOPE   H3Y21098   2.773   1.671   6.892 -2.7019 -1.7876  2.4799
  184SOPE   C3421099   2.866   1.595   7.071 -0.1410  0.2241 -0.1926
  184SOPE   H4X21100   2.964   1.555   7.104 -0.2848 -1.4536 -1.6968
  184SOPE   H4Y21101   2.786   1.524   7.102 -1.3324  1.1553 -1.0721
  184SOPE   C3521102   2.811   1.711   7.145 -0.8370 -0.2126 -0.5495
  184SOPE   H5X21103   2.700   1.707   7.143 -0.9999  0.0127  3.3167
  184SOPE   H5Y21104   2.844   1.807   7.102 -0.5378  0.6134  1.4402
  184SOPE   C3621105   2.861   1.714   7.287 -0.2546  0.3389  0.0782
  184SOPE   H6X21106   2.967   1.748   7.288  0.0843 -0.6505 -1.4282
  184SOPE   H6Y21107   2.847   1.621   7.346 -2.2829  1.1741  0.9818
  184SOPE   C3721108   2.785   1.825   7.371 -0.2827 -0.2171  0.3289
  184SOPE   H7X21109   2.677   1.803   7.386 -0.8832 -0.1671 -3.4655
  184SOPE   H7Y21110   2.787   1.918   7.310 -1.3367 -0.2275  0.2691
  184SOPE   C3821111   2.849   1.842   7.504 -0.4620 -0.0422 -0.0440
  184SOPE   H8X21112   2.960   1.853   7.505 -0.4873  0.1809  0.2180
  184SOPE   H8Y21113   2.837   1.749   7.564 -1.1461  0.2596  0.2835
  184SOPE   C3921114   2.782   1.955   7.585 -0.1682  0.3623 -0.1570
  184SOPE   H9X21115   2.673   1.944   7.599  0.1179 -1.4203  0.7633
  184SOPE   H9Y21116   2.793   2.053   7.534 -0.5127  0.2384 -0.4693
  184SOPE  C31021117   2.850   1.960   7.731 -0.4273  0.2173  0.4864
  184SOPE  H10X21118   2.959   1.968   7.713 -0.2119  0.0846  1.7023
  184SOPE  H10Y21119   2.813   1.863   7.768 -0.4386 -0.3281 -0.9173
  184SOPE  C31121120   2.804   2.070   7.824  0.1414 -0.0829 -0.2399
  184SOPE  H11X21121   2.712   2.035   7.876  0.1358  2.4698  1.6138
  184SOPE  H11Y21122   2.763   2.159   7.770  0.7752  0.7516  0.6281
  184SOPE  C31221123   2.916   2.112   7.918  0.7434  0.2432  0.6514
  184SOPE  H12X21124   2.891   2.203   7.977  3.2448  1.0434  0.5317
  184SOPE  H12Y21125   3.006   2.140   7.859  0.4394  1.7378  0.8593
  184SOPE  C31321126   2.945   1.999   8.020 -0.2685 -0.1082 -0.2283
  184SOPE  H13X21127   3.050   1.989   8.053 -0.4636 -1.0896  0.1061
  184SOPE  H13Y21128   2.935   1.904   7.964 -0.1681  0.0907 -0.5845
  184SOPE  C31421129   2.853   1.996   8.144  0.3064 -0.6541 -0.0766
  184SOPE  H14X21130   2.746   1.985   8.119 -0.3622 -3.7051  3.7801
  184SOPE  H14Y21131   2.877   2.093   8.193  0.7096 -2.0756  2.6467
  184SOPE  C31521132   2.878   1.882   8.245  0.6339  0.0441  0.7540
  184SOPE  H15X21133   2.815   1.876   8.337 -1.0910  0.1924 -0.3886
  184SOPE  H15Y21134   2.976   1.918   8.282  1.6667 -1.7575 -0.1766
  184SOPE  C31621135   2.906   1.740   8.190  0.0418 -0.4567 -0.2116
  184SOPE  H16X21136   3.005   1.734   8.139 -0.8377 -2.7092 -1.7533
  184SOPE  H16Y21137   2.839   1.718   8.104  0.1174 -0.9910 -0.1372
  184SOPE  C31721138   2.892   1.620   8.286  0.4346  0.1588 -0.8375
  184SOPE  H17X21139   2.793   1.630   8.337  1.0094  0.8728  0.1745
  184SOPE  H17Y21140   2.976   1.626   8.359  0.1231  1.4357 -0.5735
  184SOPE  C31821141   2.903   1.478   8.234  0.1625  0.0427 -0.4098
  184SOPE  H18X21142   2.994   1.461   8.173  0.0161  0.9484 -0.8795
  184SOPE  H18Y21143   2.812   1.450   8.178 -0.2810  2.0571 -0.7123
  184SOPE  H18Z21144   2.900   1.411   8.323 -0.7262  0.9802  0.2759
  185SAPI   C1221145   6.467   4.182  11.127  0.2063  0.2269 -0.2387
  185SAPI    H221146   6.477   4.170  11.016  1.9024  1.3987 -0.2304
  185SAPI    O221147   6.363   4.098  11.175 -0.7220  0.3298 -0.5384
  185SAPI   HO221148   6.313   4.064  11.100  1.3683 -1.0001 -1.3515
  185SAPI   C1321149   6.598   4.154  11.197 -0.0663  0.4347 -0.0365
  185SAPI    H321150   6.666   4.228  11.150  0.0609  0.9942  1.0087
  185SAPI    O321151   6.639   4.020  11.168 -0.0201  1.0496  0.2249
  185SAPI   HO321152   6.591   3.951  11.214 -0.9599  2.0005  0.6619
  185SAPI   C1421153   6.598   4.183  11.347  0.6121 -0.3584 -0.2914
  185SAPI    H421154   6.529   4.117  11.404  1.4101 -1.5595 -0.6745
  185SAPI    O421155   6.726   4.173  11.409 -0.2572 -0.5863  0.1380
  185SAPI   HO421156   6.717   4.103  11.474  3.1092 -1.8255 -0.6323
  185SAPI   C1521157   6.535   4.328  11.363 -0.2805  0.6719 -0.2623
  185SAPI    H521158   6.613   4.395  11.321 -0.7105  0.3846 -1.5336
  185SAPI    O521159   6.532   4.372  11.493  0.0252 -1.0010 -0.0859
  185SAPI   HO521160   6.477   4.315  11.548  0.0188  1.0263  2.0740
  185SAPI   C1621161   6.405   4.357  11.286  1.0214  0.3343  0.1062
  185SAPI    H621162   6.324   4.301  11.338  1.9370  1.1367  2.4726
  185SAPI    O621163   6.375   4.497  11.300  0.9259  0.1319 -0.1788
  185SAPI   HO621164   6.437   4.556  11.255 -1.5214  2.4410 -0.6686
  185SAPI   C1121165   6.416   4.326  11.132  0.4543 -0.6916 -0.2980
  185SAPI    H121166   6.494   4.394  11.093  0.0855 -0.1790 -0.1466
  185SAPI     P21167   6.295   4.348  10.897  0.0762 -0.2831  0.1534
  185SAPI   O1321168   6.433   4.377  10.847  0.1783  0.4205  0.0678
  185SAPI   O1421169   6.179   4.435  10.857  0.0485  0.9047  0.3582
  185SAPI   O1221170   6.295   4.348  11.061 -0.1295  0.1588  0.0456
  185SAPI   O1121171   6.246   4.198  10.879  0.3357  0.0038  0.1327
  185SAPI    C121172   6.307   4.118  10.775  0.0726 -0.4370 -0.7106
  185SAPI    HA21173   6.415   4.140  10.782  0.2121 -0.1369 -3.1727
  185SAPI    HB21174   6.294   4.008  10.791 -0.4351 -0.3276 -0.3733
  185SAPI    C221175   6.232   4.151  10.644 -0.2494  0.5216  0.0196
  185SAPI    HS21176   6.267   4.079  10.567  0.8234  0.2850  0.7229
  185SAPI   O2121177   6.248   4.284  10.592 -0.3112  0.0139  0.8197
  185SAPI   C2121178   6.369   4.303  10.552 -0.3682 -0.3580 -0.5970
  185SAPI   O2221179   6.464   4.225  10.546  0.4178 -0.0869  0.0203
  185SAPI   C2221180   6.387   4.450  10.528 -0.6263 -0.3540  0.8381
  185SAPI   H2R21181   6.283   4.488  10.521 -0.6541 -0.5653  0.0982
  185SAPI   H2S21182   6.443   4.499  10.610  0.5476  0.6524 -0.5281
  185SAPI    C321183   6.083   4.135  10.665 -0.2599 -0.1181 -0.2638
  185SAPI    HX21184   6.029   4.214  10.721 -0.6397 -1.0377  0.6928
  185SAPI    HY21185   6.057   4.050  10.732  2.8844 -1.9299 -1.2286
  185SAPI   O3121186   6.020   4.098  10.541  0.6497 -0.2057  0.6587
  185SAPI   C3121187   5.979   4.194  10.465  0.3622 -0.4429 -0.3151
  185SAPI   O3221188   5.974   4.316  10.488 -0.5653 -0.4365  0.4978
  185SAPI   C3221189   5.936   4.136  10.328 -0.1123  0.2972  0.1740
  185SAPI   H2X21190   5.826   4.119  10.333 -0.2561  1.2563  0.2847
  185SAPI   H2Y21191   5.996   4.048  10.297 -2.0863 -0.9325 -0.2384
  185SAPI   C2321192   6.461   4.487  10.394 -0.2607  0.4941 -0.4749
  185SAPI   H3R21193   6.555   4.428  10.390  0.8483  2.0036  2.1754
  185SAPI   H3S21194   6.493   4.594  10.388 -0.1592  0.5438  0.8049
  185SAPI   C2421195   6.372   4.451  10.275  0.4615 -0.7133 -0.3238
  185SAPI   H4R21196   6.336   4.346  10.275  1.1019 -0.9371 -1.2157
  185SAPI   H4S21197   6.441   4.457  10.188  2.9145  0.9747  1.6296
  185SAPI   C2521198   6.252   4.542  10.268  0.8851 -0.6579 -0.0409
  185SAPI   H5R21199   6.176   4.518  10.344  1.9203 -1.5915  0.7171
  185SAPI   C2621200   6.228   4.645  10.180  0.0614  0.6671 -0.2988
  185SAPI   H6R21201   6.138   4.706  10.194  0.0228  0.4055  0.5996
  185SAPI   C2721202   6.318   4.685  10.062  0.2736  0.0650  0.4060
  185SAPI   H7R21203   6.388   4.604  10.031 -1.6647 -0.5702 -2.4900
  185SAPI   H7S21204   6.387   4.768  10.085  0.6184 -0.3238  0.7992
  185SAPI   C2821205   6.236   4.732   9.947 -0.2763  0.0930 -0.6720
  185SAPI   H8R21206   6.226   4.842   9.954  3.3769  0.4234  0.1406
  185SAPI   C2921207   6.181   4.665   9.848 -0.0754 -0.4268 -0.5969
  185SAPI   H9R21208   6.121   4.718   9.773 -1.1060  2.3675  2.0969
  185SAPI  C21021209   6.180   4.522   9.826 -1.0436 -0.6566  0.3702
  185SAPI  H10R21210   6.072   4.500   9.821 -1.0985 -0.0078 -1.6361
  185SAPI  H10S21211   6.216   4.471   9.919 -0.8370  1.0406  1.2379
  185SAPI  C21121212   6.256   4.463   9.711  0.3760 -0.0735 -0.2800
  185SAPI  H11R21213   6.352   4.412   9.733 -0.2513 -1.0266  0.3156
  185SAPI  C21221214   6.209   4.438   9.584 -0.8683 -0.5170  0.8246
  185SAPI  H12R21215   6.268   4.380   9.512 -1.1170 -0.3394  0.4764
  185SAPI  C21321216   6.074   4.481   9.534  0.6031 -0.3973  0.1540
  185SAPI  H13R21217   6.003   4.475   9.619  0.0209 -0.4271 -0.3334
  185SAPI  H13S21218   6.041   4.415   9.451 -1.5847  0.2293  0.5024
  185SAPI  C21421219   6.085   4.623   9.497 -0.2550 -0.6810 -0.1656
  185SAPI  H14R21220   6.183   4.659   9.465  0.3928 -0.7412  1.6643
  185SAPI  C21521221   5.982   4.707   9.473 -0.3733 -0.0746 -0.4047
  185SAPI  H15R21222   6.005   4.810   9.443 -1.7274 -0.0110 -1.2645
  185SAPI  C21621223   5.842   4.665   9.478  0.6600 -0.7359  0.0058
  185SAPI  H16R21224   5.801   4.691   9.578 -1.0268 -0.4676 -0.7270
  185SAPI  H16S21225   5.829   4.556   9.466  1.6465 -1.0356  1.5609
  185SAPI  C21721226   5.763   4.746   9.370 -0.5712  0.3016 -0.3242
  185SAPI  H17R21227   5.769   4.854   9.393  1.8843  0.6738 -2.4610
  185SAPI  H17S21228   5.656   4.717   9.381 -0.3353 -1.4764 -2.2499
  185SAPI  C21821229   5.797   4.730   9.224  0.1043 -0.1306 -0.0280
  185SAPI  H18R21230   5.828   4.628   9.192  0.0285 -0.7975  1.9811
  185SAPI  H18S21231   5.881   4.800   9.206  0.5259  0.0217  2.4438
  185SAPI  C21921232   5.674   4.770   9.138  0.3109  0.0177  0.5183
  185SAPI  H19R21233   5.643   4.869   9.178 -1.9793 -0.2462 -0.5038
  185SAPI  H19S21234   5.595   4.692   9.151 -0.3643  0.4593 -0.8352
  185SAPI  C22021235   5.701   4.783   8.988 -0.0238 -0.5701  0.6172
  185SAPI  H20R21236   5.764   4.872   8.968 -2.5678  0.9381 -0.9289
  185SAPI  H20S21237   5.609   4.779   8.925 -0.3431 -0.7809  1.0928
  185SAPI  H20T21238   5.775   4.702   8.970 -1.1368 -1.1661 -1.4912
  185SAPI   C3321239   5.971   4.227  10.211 -0.7199  0.1599  0.7337
  185SAPI   H3X21240   6.081   4.242  10.208 -0.6216 -0.1815  2.1796
  185SAPI   H3Y21241   5.935   4.332  10.215  0.3763  0.6004 -0.7388
  185SAPI   C3421242   5.921   4.185  10.073 -0.5278 -0.7554  0.1248
  185SAPI   H4X21243   5.817   4.217  10.053  0.4965  2.4421 -0.4598
  185SAPI   H4Y21244   5.917   4.074  10.077  0.0091 -0.7775  0.0346
  185SAPI   C3521245   6.017   4.229   9.962  0.4849  0.3182 -0.2564
  185SAPI   H5X21246   6.121   4.212   9.996  0.5167  1.3788  0.1907
  185SAPI   H5Y21247   6.024   4.335   9.928  0.2293  0.4007 -0.0545
  185SAPI   C3621248   5.996   4.144   9.840 -0.0394  0.2731  0.2424
  185SAPI   H6X21249   5.987   4.040   9.878  0.5024  0.6786  1.5385
  185SAPI   H6Y21250   6.078   4.147   9.765  0.9324  0.5808  1.3034
  185SAPI   C3721251   5.870   4.194   9.769  0.1755 -0.7200 -0.1378
  185SAPI   H7X21252   5.902   4.295   9.735 -0.4295 -0.2801  0.5798
  185SAPI   H7Y21253   5.782   4.189   9.836 -1.2562  0.3521 -1.8831
  185SAPI   C3821254   5.838   4.112   9.642  0.6673  0.1866 -0.2196
  185SAPI   H8X21255   5.821   4.006   9.669 -0.0501  0.5018  0.6118
  185SAPI   H8Y21256   5.932   4.110   9.583  0.6494 -0.0188 -0.2414
  185SAPI   C3921257   5.720   4.153   9.553  0.6402  0.3021 -0.4328
  185SAPI   H9X21258   5.629   4.131   9.612  1.5294 -0.7975  0.5446
  185SAPI   H9Y21259   5.716   4.080   9.469  0.1419 -0.9138  0.6458
  185SAPI  C31021260   5.728   4.303   9.519  0.2914 -0.6730  0.0176
  185SAPI  H10X21261   5.831   4.337   9.493 -0.3921  0.5616 -1.0917
  185SAPI  H10Y21262   5.706   4.356   9.614 -1.1195  1.5345 -1.5000
  185SAPI  C31121263   5.636   4.352   9.407 -0.6164 -0.2048  0.7559
  185SAPI  H11X21264   5.649   4.458   9.377  0.1030 -0.8657 -1.3073
  185SAPI  H11Y21265   5.534   4.340   9.450 -0.7288 -0.2712  0.4740
  185SAPI  C31221266   5.638   4.258   9.286  1.2259 -0.4785 -0.2936
  185SAPI  H12X21267   5.542   4.270   9.232  0.4999  1.5785  1.3841
  185SAPI  H12Y21268   5.629   4.150   9.310  0.3785  0.0416  1.8502
  185SAPI  C31321269   5.759   4.292   9.198 -0.1061 -0.4515  0.4565
  185SAPI  H13X21270   5.848   4.236   9.232 -0.5171 -2.6648 -1.9892
  185SAPI  H13Y21271   5.771   4.402   9.213  1.0048 -0.5383  0.2361
  185SAPI  C31421272   5.726   4.281   9.049  0.2736 -1.0060  0.6454
  185SAPI  H14X21273   5.618   4.292   9.026  1.0958  1.4229 -2.4194
  185SAPI  H14Y21274   5.775   4.188   9.013 -1.0259 -1.3068 -0.3737
  185SAPI  C31521275   5.789   4.402   8.975  0.3523 -0.8259  0.3438
  185SAPI  H15X21276   5.898   4.412   8.997 -0.2521  0.3603  2.9756
  185SAPI  H15Y21277   5.753   4.500   9.011  1.1375 -0.6212  0.5840
  185SAPI  C31621278   5.770   4.383   8.829 -0.5601  1.3121 -0.1844
  185SAPI  H16X21279   5.729   4.280   8.821  0.6274  0.5124  3.1611
  185SAPI  H16Y21280   5.867   4.396   8.777  0.0774 -1.5694  0.2181
  185SAPI  C31721281   5.667   4.477   8.771  0.0372  0.2565  0.0638
  185SAPI  H17X21282   5.682   4.477   8.661  1.5491  0.2479  0.2617
  185SAPI  H17Y21283   5.682   4.587   8.784  0.5779  0.1601  0.2376
  185SAPI  C31821284   5.519   4.438   8.793 -0.1798 -0.6329 -0.2124
  185SAPI  H18X21285   5.463   4.498   8.719  0.2810 -0.1094 -0.1448
  185SAPI  H18Y21286   5.487   4.470   8.894  1.3059  0.2044  0.0078
  185SAPI  H18Z21287   5.512   4.327   8.788 -0.3117 -0.5537 -2.0250
  186SAPI   C1221288   0.131   2.636  10.668 -0.4272  0.2426 -0.4948
  186SAPI    H221289   0.161   2.560  10.592 -2.3279 -0.5815 -0.4514
  186SAPI    O221290   0.147   2.764  10.618 -0.2793 -0.5976  0.2786
  186SAPI   HO221291   0.227   2.749  10.566  0.8222 -0.3515  1.8678
  186SAPI   C1321292  -0.004   2.616  10.720 -0.2476 -0.1040  0.0592
  186SAPI    H321293   0.001   2.518  10.773  0.9956  0.3907  0.8795
  186SAPI    O321294  -0.087   2.599  10.605  0.5063 -0.2612 -0.1124
  186SAPI   HO321295  -0.076   2.678  10.552 -0.1864  0.6187  1.0368
  186SAPI   C1421296  -0.048   2.714  10.824  0.1611 -0.7358  0.4429
  186SAPI    H421297  -0.041   2.819  10.787 -0.6728 -1.0532 -0.6282
  186SAPI    O421298  -0.185   2.707  10.865 -0.0812 -0.4302  0.3237
  186SAPI   HO421299  -0.233   2.758  10.798  0.3197 -0.0634  0.3130
  186SAPI   C1521300   0.056   2.698  10.946 -0.1700  0.2739 -0.0623
  186SAPI    H521301   0.046   2.594  10.986  0.7300 -1.2115 -3.5271
  186SAPI    O521302   0.033   2.795  11.050  0.4557 -0.2265  0.0637
  186SAPI   HO521303   0.099   2.780  11.119  0.1149  1.2770  0.7334
  186SAPI   C1621304   0.198   2.719  10.892  0.2158  0.3174 -0.3102
  186SAPI    H621305   0.206   2.824  10.857  0.0666  0.5324  0.2951
  186SAPI    O621306   0.303   2.703  10.994  0.5139  0.5085  0.5490
  186SAPI   HO621307   0.379   2.679  10.941 -0.0419  0.1895 -0.1147
  186SAPI   C1121308   0.232   2.619  10.784  0.7818  0.3819  0.3966
  186SAPI    H121309   0.217   2.521  10.834 -0.1895  1.2568  1.9004
  186SAPI     P21310   0.437   2.555  10.622 -0.3246  0.7489 -0.0940
  186SAPI   O1321311   0.365   2.421  10.613 -0.5736 -0.4506  0.4265
  186SAPI   O1421312   0.582   2.562  10.639  0.6637 -0.0996 -0.1566
  186SAPI   O1221313   0.365   2.646  10.740  0.0078  0.2499 -0.8747
  186SAPI   O1121314   0.386   2.647  10.503  0.3687  0.3255 -0.9566
  186SAPI    C121315   0.451   2.771  10.466  0.7357 -0.0923 -0.2423
  186SAPI    HA21316   0.390   2.856  10.503 -0.1524 -0.4528 -0.8567
  186SAPI    HB21317   0.557   2.781  10.500  0.7921  1.0596 -0.7276
  186SAPI    C221318   0.446   2.789  10.314  0.3546 -0.4285 -0.3337
  186SAPI    HS21319   0.488   2.887  10.285 -0.9060  0.0462 -0.6099
  186SAPI   O2121320   0.312   2.775  10.269  0.0738  0.1820  0.0261
  186SAPI   C2121321   0.255   2.900  10.257  0.3330 -0.3027 -0.4273
  186SAPI   O2221322   0.308   3.008  10.282 -0.1382 -0.8672  0.1645
  186SAPI   C2221323   0.114   2.886  10.201  0.2410 -0.5378  0.2520
  186SAPI   H2R21324   0.070   2.814  10.274  1.8456 -1.1825  0.6063
  186SAPI   H2S21325   0.071   2.988  10.206 -0.5096 -0.7571 -1.4574
  186SAPI    C321326   0.538   2.673  10.236 -0.2145 -0.7595 -0.7615
  186SAPI    HX21327   0.496   2.574  10.264  0.8283 -0.7851  0.7336
  186SAPI    HY21328   0.636   2.671  10.287 -1.0746  0.8615  1.0455
  186SAPI   O3121329   0.552   2.689  10.094 -0.7066  0.2907  0.1754
  186SAPI   C3121330   0.463   2.614  10.024 -0.3834 -0.4630 -0.6812
  186SAPI   O3221331   0.366   2.553  10.067  0.9609 -0.3546 -1.3454
  186SAPI   C3221332   0.485   2.645   9.879  0.1896 -0.4066  0.1425
  186SAPI   H2X21333   0.589   2.626   9.845  0.9121  1.2758  1.3547
  186SAPI   H2Y21334   0.486   2.756   9.869  0.5040 -0.4118  0.1080
  186SAPI   C2321335   0.120   2.820  10.058 -0.6453 -0.7312 -0.4524
  186SAPI   H3R21336   0.015   2.814  10.021 -1.1319 -2.7799  1.1591
  186SAPI   H3S21337   0.145   2.712  10.070  1.8160 -0.1765 -0.4078
  186SAPI   C2421338   0.195   2.906   9.955  0.1373  0.3570  0.3747
  186SAPI   H4R21339   0.196   2.851   9.859  0.8265  1.2288 -0.1328
  186SAPI   H4S21340   0.301   2.912   9.990  0.6563  1.7338 -1.3813
  186SAPI   C2521341   0.149   3.044   9.938  0.5043  0.2850 -0.0385
  186SAPI   H5R21342   0.167   3.099  10.031 -1.2367  1.6801 -0.5108
  186SAPI   C2621343   0.095   3.097   9.830 -0.6684 -0.3626  1.2701
  186SAPI   H6R21344   0.065   3.202   9.829 -2.0908 -0.7455 -0.7442
  186SAPI   C2721345   0.068   3.026   9.704 -0.5438 -0.4971  0.3270
  186SAPI   H7R21346   0.153   2.959   9.679 -1.3732 -1.7242  0.7956
  186SAPI   H7S21347   0.076   3.110   9.631 -1.6997 -0.6955 -0.0248
  186SAPI   C2821348  -0.054   2.946   9.690 -0.2481 -0.0911 -0.2413
  186SAPI   H8R21349  -0.095   2.892   9.776  3.3820  0.6335  2.0379
  186SAPI   C2921350  -0.124   2.921   9.576  0.2806 -0.7707  0.2856
  186SAPI   H9R21351  -0.206   2.849   9.584  1.1033 -1.6896  0.4301
  186SAPI  C21021352  -0.099   2.972   9.433  0.4824  0.1389 -0.5813
  186SAPI  H10R21353  -0.108   3.082   9.452  0.9805 -0.3060  2.4385
  186SAPI  H10S21354  -0.184   2.959   9.363 -0.7164  1.2742  0.6398
  186SAPI  C21121355   0.038   2.935   9.379 -0.1845  0.1190 -0.7032
  186SAPI  H11R21356   0.101   2.886   9.455 -2.6559 -0.8157  0.8184
  186SAPI  C21221357   0.073   2.950   9.251 -0.4096  0.7661  0.3048
  186SAPI  H12R21358   0.166   2.901   9.219 -1.6427 -0.3060 -1.7099
  186SAPI  C21321359  -0.018   2.999   9.138  0.8423  0.0329 -0.4543
  186SAPI  H13R21360   0.049   3.064   9.079  0.4829  1.5590  0.7765
  186SAPI  H13S21361  -0.101   3.060   9.181  0.6025 -0.3391 -0.3860
  186SAPI  C21421362  -0.096   2.893   9.066 -0.5650 -0.5055  0.4222
  186SAPI  H14R21363  -0.159   2.828   9.129 -0.5297 -0.6993  0.2568
  186SAPI  C21521364  -0.076   2.854   8.936  0.4029 -0.0357  1.0709
  186SAPI  H15R21365  -0.139   2.772   8.899 -1.2164  1.9290 -0.6577
  186SAPI  C21621366   0.025   2.906   8.839  0.0180  0.0134  0.6692
  186SAPI  H16R21367   0.113   2.842   8.819 -1.1818 -1.7970  1.0010
  186SAPI  H16S21368   0.074   3.000   8.871 -1.0241  0.2504  1.6009
  186SAPI  C21721369  -0.035   2.909   8.702  0.9398 -0.1724  0.1701
  186SAPI  H17R21370  -0.138   2.949   8.692  2.0316  2.6409 -0.3338
  186SAPI  H17S21371  -0.041   2.801   8.675 -1.3243  0.5344 -2.3794
  186SAPI  C21821372   0.051   2.974   8.590 -0.0939  0.9151  0.3301
  186SAPI  H18R21373   0.148   2.923   8.576 -1.0426  0.1620 -4.1141
  186SAPI  H18S21374   0.073   3.079   8.618 -0.0948  0.9140  0.3365
  186SAPI  C21921375  -0.020   2.955   8.453 -0.5071  0.9532 -0.3133
  186SAPI  H19R21376  -0.128   2.979   8.465 -0.1286  2.7373 -0.3421
  186SAPI  H19S21377  -0.008   2.847   8.427  0.9917  1.0565 -0.0578
  186SAPI  C22021378   0.051   3.044   8.347  0.4794 -1.1226  0.0070
  186SAPI  H20R21379   0.096   3.136   8.389  0.2495 -0.4499 -1.2118
  186SAPI  H20S21380  -0.030   3.082   8.282 -0.6884 -3.0375  0.3067
  186SAPI  H20T21381   0.135   2.990   8.297  0.4495 -1.6465  0.5142
  186SAPI   C3321382   0.383   2.613   9.773 -0.0135 -0.1684  0.6155
  186SAPI   H3X21383   0.279   2.618   9.813  0.3298  1.5740  1.3497
  186SAPI   H3Y21384   0.397   2.512   9.729 -2.6482 -0.2475 -0.1437
  186SAPI   C3421385   0.384   2.717   9.665  0.2548  0.3123  0.4105
  186SAPI   H4X21386   0.481   2.733   9.614  0.1756 -0.1811  0.0958
  186SAPI   H4Y21387   0.358   2.819   9.701  0.5108  1.1130 -1.5906
  186SAPI   C3521388   0.272   2.687   9.564  0.4911 -0.3601 -0.0852
  186SAPI   H5X21389   0.279   2.775   9.497 -3.1339 -0.4995 -0.7735
  186SAPI   H5Y21390   0.178   2.684   9.623  1.1944 -1.0531  1.0203
  186SAPI   C3621391   0.286   2.555   9.479 -0.2030 -0.7448  0.1758
  186SAPI   H6X21392   0.200   2.573   9.411  2.1043  2.1288 -2.1715
  186SAPI   H6Y21393   0.270   2.469   9.546  3.1651 -0.9270  0.8490
  186SAPI   C3721394   0.420   2.534   9.406 -0.0624  0.0298  0.9738
  186SAPI   H7X21395   0.408   2.434   9.359 -2.1104 -0.3645  2.2560
  186SAPI   H7Y21396   0.488   2.515   9.492 -1.7712 -0.5973  2.2046
  186SAPI   C3821397   0.467   2.647   9.322  0.1500 -0.3098  0.1379
  186SAPI   H8X21398   0.576   2.655   9.344  0.0447 -1.3204  1.0381
  186SAPI   H8Y21399   0.408   2.737   9.349 -1.2342 -0.7107 -1.4747
  186SAPI   C3921400   0.448   2.648   9.171  0.3749  0.2184  0.5224
  186SAPI   H9X21401   0.518   2.572   9.129  0.9621  1.5053 -0.8615
  186SAPI   H9Y21402   0.481   2.747   9.133  1.1367 -0.0517  0.4529
  186SAPI  C31021403   0.309   2.621   9.117 -0.3753  0.5302 -0.2976
  186SAPI  H10X21404   0.243   2.687   9.177  0.0955  1.2362 -0.5539
  186SAPI  H10Y21405   0.276   2.518   9.142  1.0272  0.0452 -0.4101
  186SAPI  C31121406   0.280   2.645   8.967 -0.0190 -0.2438 -0.5771
  186SAPI  H11X21407   0.298   2.753   8.945 -0.5123  0.2776  1.4743
  186SAPI  H11Y21408   0.172   2.623   8.954  0.2572 -2.3565  0.4097
  186SAPI  C31221409   0.360   2.550   8.876 -0.3796 -0.5766  0.0492
  186SAPI  H12X21410   0.304   2.455   8.887 -1.0389  0.1212  2.9954
  186SAPI  H12Y21411   0.467   2.539   8.906  0.4187 -0.3260 -2.5631
  186SAPI  C31321412   0.345   2.596   8.729 -0.0344  0.2760  0.3987
  186SAPI  H13X21413   0.390   2.696   8.709 -0.5598  0.5038  0.3355
  186SAPI  H13Y21414   0.238   2.606   8.702 -0.1900 -1.9026  0.1057
  186SAPI  C31421415   0.412   2.489   8.631  0.5462 -1.0296 -0.8851
  186SAPI  H14X21416   0.342   2.404   8.644 -2.6255  1.4704 -1.2073
  186SAPI  H14Y21417   0.516   2.467   8.664  1.6240  1.5605 -2.3881
  186SAPI  C31521418   0.403   2.532   8.485  0.0853 -0.2349 -1.2058
  186SAPI  H15X21419   0.471   2.620   8.486 -3.0940  2.3009 -0.9512
  186SAPI  H15Y21420   0.299   2.559   8.459  0.4298  0.0540 -2.3263
  186SAPI  C31621421   0.440   2.411   8.394 -0.4453 -0.0230  0.1225
  186SAPI  H16X21422   0.361   2.334   8.406 -0.7269 -0.1770 -2.3827
  186SAPI  H16Y21423   0.532   2.359   8.428 -0.9064 -1.5205 -0.8852
  186SAPI  C31721424   0.457   2.445   8.242  0.0303 -0.5146 -0.2799
  186SAPI  H17X21425   0.356   2.481   8.212  0.0022 -1.8923 -1.9192
  186SAPI  H17Y21426   0.472   2.355   8.178  0.4401  0.3560 -1.4287
  186SAPI  C31821427   0.575   2.533   8.220 -0.0233 -0.0792 -0.0574
  186SAPI  H18X21428   0.579   2.563   8.113 -2.9895 -0.6413 -0.3942
  186SAPI  H18Y21429   0.661   2.466   8.242 -2.0676 -2.8214 -0.0564
  186SAPI  H18Z21430   0.579   2.621   8.287 -0.0703  0.1691 -0.3809
  187SAPI   C1221431   2.929   4.777   6.260 -0.3183  0.3498 -0.0394
  187SAPI    H221432   3.011   4.792   6.334 -1.6800  0.7602  1.3943
  187SAPI    O221433   2.833   4.679   6.310 -0.2410  0.3857 -0.5734
  187SAPI   HO221434   2.875   4.600   6.347 -2.3691  0.3120  1.8419
  187SAPI   C1321435   2.868   4.907   6.235  0.1772  0.5944  0.4095
  187SAPI    H321436   2.945   4.983   6.209  1.0358 -0.2421  0.4733
  187SAPI    O321437   2.806   4.945   6.362 -0.1161 -0.2126  0.3011
  187SAPI   HO321438   2.797   4.863   6.411 -1.0696  0.1416  0.7308
  187SAPI   C1421439   2.765   4.898   6.126  0.0980 -0.1489 -0.3766
  187SAPI    H421440   2.680   4.829   6.150 -1.1307  1.6662  0.6222
  187SAPI    O421441   2.695   5.021   6.101  0.3081 -0.3998 -0.8384
  187SAPI   HO421442   2.757   5.091   6.079 -3.1681  2.6225 -1.4362
  187SAPI   C1521443   2.831   4.849   6.000 -1.2550 -0.3010 -0.7244
  187SAPI    H521444   2.923   4.905   5.972 -0.3314 -1.1267  0.6297
  187SAPI    O521445   2.749   4.855   5.880 -0.1891  0.4127 -0.6109
  187SAPI   HO521446   2.807   4.813   5.815 -0.1010 -1.5129  0.6563
  187SAPI   C1621447   2.896   4.711   6.027 -0.5642 -0.0886  0.3390
  187SAPI    H621448   2.816   4.639   6.056 -0.6323 -0.1593 -0.0323
  187SAPI    O621449   2.946   4.659   5.902 -0.1950 -0.6955  0.0249
  187SAPI   HO621450   3.041   4.652   5.912 -0.1071  2.0072  1.6561
  187SAPI   C1121451   2.997   4.716   6.138 -0.4217  0.2362  0.2561
  187SAPI    H121452   3.077   4.788   6.111 -0.7001  1.3169  2.2394
  187SAPI     P21453   3.210   4.547   6.128  0.1020 -0.1292 -0.1143
  187SAPI   O1321454   3.230   4.594   5.985  0.0751 -0.5522  0.6900
  187SAPI   O1421455   3.239   4.402   6.137 -0.4079  0.5345 -0.1921
  187SAPI   O1221456   3.050   4.581   6.165 -0.1846  0.0185 -0.1601
  187SAPI   O1121457   3.291   4.620   6.242 -0.2717  0.6987  0.3523
  187SAPI    C121458   3.349   4.553   6.354  0.6402 -0.0314 -0.5104
  187SAPI    HA21459   3.411   4.466   6.321  1.7637 -0.0781  1.5898
  187SAPI    HB21460   3.426   4.620   6.397  0.4346 -0.5523  0.6920
  187SAPI    C221461   3.245   4.520   6.470  0.1535 -0.3673  0.1155
  187SAPI    HS21462   3.154   4.470   6.429  1.4447 -0.6463 -2.4949
  187SAPI   O2121463   3.220   4.645   6.549 -0.0717  0.1205 -0.1352
  187SAPI   C2121464   3.098   4.653   6.602 -0.4508 -0.6471  0.1672
  187SAPI   O2221465   3.008   4.579   6.580  0.5731  0.7253 -0.0199
  187SAPI   C2221466   3.101   4.748   6.731  0.2968  0.2494 -0.1849
  187SAPI   H2R21467   3.088   4.854   6.700  1.3566  0.7380  1.0114
  187SAPI   H2S21468   3.019   4.710   6.795 -0.3708  0.6538 -0.7875
  187SAPI    C321469   3.294   4.410   6.558  0.2232 -0.2200  0.2322
  187SAPI    HX21470   3.403   4.425   6.574  0.4357 -0.4206 -0.9962
  187SAPI    HY21471   3.291   4.310   6.511  1.1304 -1.1323  2.0687
  187SAPI   O3121472   3.228   4.406   6.690  0.4121 -0.1376  0.4449
  187SAPI   C3121473   3.131   4.316   6.704  0.4036  0.1779  0.4550
  187SAPI   O3221474   3.091   4.232   6.623 -0.6239 -0.1836  0.0428
  187SAPI   C3221475   3.059   4.339   6.845 -0.7595  0.0745  0.5721
  187SAPI   H2X21476   2.952   4.315   6.830 -0.2576 -1.4348 -0.7232
  187SAPI   H2Y21477   3.087   4.444   6.866  0.3459 -0.0958  0.0383
  187SAPI   C2321478   3.233   4.748   6.815  0.1784 -0.3636  0.0367
  187SAPI   H3R21479   3.321   4.744   6.747 -0.1716 -3.4565 -0.2990
  187SAPI   H3S21480   3.253   4.660   6.880  1.7457 -1.8168 -2.3607
  187SAPI   C2421481   3.266   4.871   6.900  0.2447  0.0418 -1.1329
  187SAPI   H4R21482   3.282   4.965   6.844 -1.3533  2.3002  2.0312
  187SAPI   H4S21483   3.361   4.852   6.954  1.8430  2.2177 -3.1074
  187SAPI   C2521484   3.161   4.901   7.009 -0.2034  0.4401 -0.8054
  187SAPI   H5R21485   3.092   4.987   7.000 -0.3330  0.2845 -1.2991
  187SAPI   C2621486   3.139   4.828   7.125 -0.6039  0.0321 -0.5007
  187SAPI   H6R21487   3.064   4.873   7.191 -0.9842 -2.2018  0.6361
  187SAPI   C2721488   3.222   4.711   7.166 -0.4319 -0.0649  0.5379
  187SAPI   H7R21489   3.331   4.730   7.161 -0.3735 -0.8617 -1.6901
  187SAPI   H7S21490   3.205   4.635   7.087 -0.2846 -0.8471  1.2546
  187SAPI   C2821491   3.188   4.651   7.296  0.3119 -0.2629  0.1545
  187SAPI   H8R21492   3.128   4.559   7.291 -2.9756  1.6301  2.4065
  187SAPI   C2921493   3.241   4.683   7.416 -0.2141 -0.8064  0.1416
  187SAPI   H9R21494   3.222   4.613   7.500  0.9760 -0.7163  0.4925
  187SAPI  C21021495   3.357   4.790   7.437 -0.1248  0.4054  0.1777
  187SAPI  H10R21496   3.324   4.895   7.419 -0.4041  0.7822  2.6829
  187SAPI  H10S21497   3.435   4.771   7.360  0.1902  0.6474  0.4384
  187SAPI  C21121498   3.419   4.792   7.577 -0.5527  0.2209  0.3478
  187SAPI  H11R21499   3.521   4.751   7.571 -0.8141 -0.1469 -1.8999
  187SAPI  C21221500   3.373   4.835   7.695  0.3305  0.2989 -0.0303
  187SAPI  H12R21501   3.438   4.839   7.783  0.0954 -1.1715  0.2296
  187SAPI  C21321502   3.236   4.883   7.713 -0.1225 -0.1557  0.3708
  187SAPI  H13R21503   3.211   4.872   7.821 -1.6792  0.9566  0.1445
  187SAPI  H13S21504   3.157   4.836   7.652 -0.1667 -0.0598  0.3537
  187SAPI  C21421505   3.229   5.030   7.672  0.6914  0.0434  0.2241
  187SAPI  H14R21506   3.277   5.049   7.575  1.0156 -1.6629  0.0408
  187SAPI  C21521507   3.199   5.135   7.750  0.1312 -0.5087 -0.7729
  187SAPI  H15R21508   3.205   5.239   7.715  1.1334 -0.5205 -0.6455
  187SAPI  C21621509   3.159   5.121   7.893  0.3471  0.6204  0.0425
  187SAPI  H16R21510   3.100   5.028   7.900  1.7874 -0.2212  1.3734
  187SAPI  H16S21511   3.089   5.204   7.916  1.4178  1.2226  1.1951
  187SAPI  C21721512   3.287   5.125   7.985  0.9266 -0.3351 -0.1932
  187SAPI  H17R21513   3.323   5.230   7.988 -1.5784  0.6773 -2.7445
  187SAPI  H17S21514   3.356   5.045   7.951  1.4013 -0.6588  1.4833
  187SAPI  C21821515   3.267   5.077   8.130  0.2839 -0.0118  0.1784
  187SAPI  H18R21516   3.198   4.991   8.143  1.3473 -0.8706  0.2526
  187SAPI  H18S21517   3.220   5.161   8.186 -0.6665  0.0045 -0.6417
  187SAPI  C21921518   3.408   5.048   8.189 -0.4585  0.5910 -0.3755
  187SAPI  H19R21519   3.480   5.132   8.182  0.5287 -0.2032  0.1315
  187SAPI  H19S21520   3.452   4.965   8.130 -3.4946  0.6127 -2.8076
  187SAPI  C22021521   3.404   5.020   8.344 -0.3472 -0.9090  0.3274
  187SAPI  H20R21522   3.505   5.004   8.386  0.1832  1.6642  0.1356
  187SAPI  H20S21523   3.339   4.931   8.356 -1.8570  0.3154  1.4808
  187SAPI  H20T21524   3.359   5.107   8.397 -2.0889 -1.2791 -0.5053
  187SAPI   C3321525   3.100   4.238   6.961 -0.2801  0.4619 -0.6079
  187SAPI   H3X21526   3.210   4.247   6.972  0.0499 -2.8060 -0.8260
  187SAPI   H3Y21527   3.073   4.131   6.948 -0.7676  0.5502 -0.3239
  187SAPI   C3421528   3.035   4.286   7.095  0.1892 -0.1024  0.1645
  187SAPI   H4X21529   2.924   4.292   7.091  0.2030 -0.6001 -1.3428
  187SAPI   H4Y21530   3.064   4.391   7.114  2.5259 -0.7979  0.5973
  187SAPI   C3521531   3.083   4.199   7.210  0.4254  0.2512  0.6686
  187SAPI   H5X21532   3.192   4.182   7.193  0.5589 -0.6812  2.2655
  187SAPI   H5Y21533   3.034   4.099   7.211  2.7798 -0.9492  2.7218
  187SAPI   C3621534   3.070   4.266   7.346  0.3993  0.5383  0.2036
  187SAPI   H6X21535   2.961   4.283   7.360  0.2930 -0.6640  0.8848
  187SAPI   H6Y21536   3.130   4.359   7.340  0.7710  0.2312 -0.9476
  187SAPI   C3721537   3.121   4.181   7.461  0.5276 -0.2905  0.4093
  187SAPI   H7X21538   3.228   4.152   7.447  0.6813 -0.1123  1.2169
  187SAPI   H7Y21539   3.058   4.090   7.466 -0.9158  0.7187  0.6758
  187SAPI   C3821540   3.119   4.245   7.595  0.2269 -0.2776  0.2171
  187SAPI   H8X21541   3.019   4.243   7.645  0.9621  0.9542  1.7691
  187SAPI   H8Y21542   3.150   4.351   7.605 -0.3234  0.0695 -1.5502
  187SAPI   C3921543   3.212   4.174   7.691  0.2392 -0.1892 -0.5654
  187SAPI   H9X21544   3.222   4.228   7.788  1.6577 -1.8872  0.2668
  187SAPI   H9Y21545   3.310   4.180   7.639 -0.7205 -0.9448 -2.4980
  187SAPI  C31021546   3.177   4.029   7.718  0.2137  0.2667  0.2311
  187SAPI  H10X21547   3.206   3.975   7.625 -1.5483 -1.3975  0.6140
  187SAPI  H10Y21548   3.069   4.006   7.730 -0.0625  1.0626 -0.7130
  187SAPI  C31121549   3.253   3.978   7.842  0.8176 -0.2926 -0.4527
  187SAPI  H11X21550   3.359   4.011   7.836  0.8296 -0.1423  0.4478
  187SAPI  H11Y21551   3.246   3.867   7.841 -1.4499 -0.2056  1.3548
  187SAPI  C31221552   3.170   4.005   7.968 -0.8930  0.0360  0.0039
  187SAPI  H12X21553   3.073   3.950   7.963 -0.5724 -0.5452  0.2276
  187SAPI  H12Y21554   3.153   4.112   7.994  1.1068  0.7149 -1.3873
  187SAPI  C31321555   3.242   3.940   8.095 -0.4499  0.5399 -0.7493
  187SAPI  H13X21556   3.270   3.840   8.055 -1.4204 -0.4254  0.9507
  187SAPI  H13Y21557   3.176   3.918   8.181  1.2307  1.8334  0.9181
  187SAPI  C31421558   3.363   4.032   8.136 -0.4044  0.2848  0.0588
  187SAPI  H14X21559   3.329   4.136   8.156 -0.0280  0.2179  1.0334
  187SAPI  H14Y21560   3.438   4.026   8.055 -0.4211  3.0998 -0.2220
  187SAPI  C31521561   3.432   3.971   8.258  0.3168 -0.8972  0.0995
  187SAPI  H15X21562   3.505   4.048   8.293  1.2739 -1.9930  0.5633
  187SAPI  H15Y21563   3.488   3.878   8.233  1.3449 -0.3153  0.2054
  187SAPI  C31621564   3.330   3.935   8.370 -0.0010 -1.0537  0.0773
  187SAPI  H16X21565   3.298   3.831   8.349 -3.4220  0.1751 -1.0827
  187SAPI  H16Y21566   3.241   4.002   8.364  1.0216  0.3339  0.0184
  187SAPI  C31721567   3.381   3.940   8.515  0.1401 -0.0453  0.0347
  187SAPI  H17X21568   3.308   3.886   8.578  0.6535 -1.6504 -0.7250
  187SAPI  H17Y21569   3.378   4.049   8.539 -1.8718 -0.2919  1.0015
  187SAPI  C31821570   3.522   3.887   8.538 -0.4641 -0.2828  0.3213
  187SAPI  H18X21571   3.608   3.927   8.480 -0.7824  0.1420  0.1401
  187SAPI  H18Y21572   3.532   3.777   8.524  0.2746 -0.3359  1.2634
  187SAPI  H18Z21573   3.549   3.907   8.643 -1.3815 -0.5308  0.6078
  188SAPI   C1221574   4.627   0.697   6.408 -0.7192 -0.8103  0.0227
  188SAPI    H221575   4.562   0.665   6.493 -0.4924 -1.4039 -0.0315
  188SAPI    O221576   4.535   0.673   6.305 -0.5543  0.1795 -0.0103
  188SAPI   HO221577   4.508   0.581   6.306 -1.0909  0.3347 -0.2613
  188SAPI   C1321578   4.655   0.848   6.439  0.4983  0.0958  0.1694
  188SAPI    H321579   4.713   0.856   6.533  1.4464 -3.9420  0.0388
  188SAPI    O321580   4.531   0.914   6.464  0.1155 -0.1868 -0.3312
  188SAPI   HO321581   4.545   1.008   6.473  0.9790 -0.3368 -0.0595
  188SAPI   C1421582   4.728   0.914   6.326 -0.5737 -0.0629  0.4954
  188SAPI    H421583   4.657   0.919   6.241 -0.7960  3.0131  0.8116
  188SAPI    O421584   4.758   1.055   6.355 -0.0303 -0.5729  0.0270
  188SAPI   HO421585   4.813   1.095   6.288 -1.8183 -0.0446 -1.1512
  188SAPI   C1521586   4.855   0.835   6.301 -0.5276  0.4715 -0.0864
  188SAPI    H521587   4.906   0.844   6.399 -1.0504 -0.6797  0.3051
  188SAPI    O521588   4.929   0.884   6.189 -0.0735 -0.4116 -0.5521
  188SAPI   HO521589   5.022   0.875   6.213 -0.4174 -1.2908  0.5260
  188SAPI   C1621590   4.824   0.685   6.283  0.1369 -0.1716  0.5028
  188SAPI    H621591   4.762   0.661   6.193  1.5878 -2.9604  0.1911
  188SAPI    O621592   4.944   0.606   6.268 -0.4149 -0.0573 -0.5171
  188SAPI   HO621593   4.921   0.522   6.309 -0.1270 -1.3200 -2.8613
  188SAPI   C1121594   4.753   0.624   6.400  0.9599 -0.0929  0.0987
  188SAPI    H121595   4.804   0.652   6.495  0.5510  0.4928  0.1525
  188SAPI     P21596   4.801   0.381   6.506 -0.2260  0.0877  0.3381
  188SAPI   O1321597   4.943   0.393   6.474 -0.5055  0.7006  0.0940
  188SAPI   O1421598   4.748   0.246   6.485  0.8538  0.8340 -0.2814
  188SAPI   O1221599   4.730   0.483   6.399  0.2034  0.4243  0.2009
  188SAPI   O1121600   4.773   0.429   6.648 -0.0388  0.5494 -0.7320
  188SAPI    C121601   4.643   0.410   6.709  0.0345 -0.4259  0.8383
  188SAPI    HA21602   4.590   0.508   6.702 -1.2323 -1.1414  0.3039
  188SAPI    HB21603   4.583   0.327   6.667 -2.0742  0.9413  1.0736
  188SAPI    C221604   4.658   0.386   6.866  0.3212  0.6328  0.2804
  188SAPI    HS21605   4.556   0.397   6.908  0.3883  1.5877  0.1888
  188SAPI   O2121606   4.740   0.468   6.946  0.0925 -0.3761 -0.4565
  188SAPI   C2121607   4.710   0.600   6.962 -0.1880 -0.0571 -0.5515
  188SAPI   O2221608   4.603   0.651   6.928 -0.3399 -0.0656 -0.0281
  188SAPI   C2221609   4.815   0.661   7.046 -0.3281  0.0817  0.3812
  188SAPI   H2R21610   4.845   0.590   7.127 -0.2791 -0.2007  0.1153
  188SAPI   H2S21611   4.902   0.682   6.979 -0.9019  1.3259  0.0025
  188SAPI    C321612   4.718   0.239   6.887  0.1097 -0.4712  0.2916
  188SAPI    HX21613   4.810   0.227   6.827  0.1359 -1.0483  0.4382
  188SAPI    HY21614   4.657   0.152   6.853 -0.1934 -0.3031  0.4037
  188SAPI   O3121615   4.752   0.219   7.027 -0.2253 -0.0823  1.1069
  188SAPI   C3121616   4.647   0.187   7.098 -0.4450 -0.3987 -0.1993
  188SAPI   O3221617   4.534   0.173   7.054  0.3690  0.3704 -0.2850
  188SAPI   C3221618   4.700   0.143   7.235  0.2920  0.4489 -0.0069
  188SAPI   H2X21619   4.806   0.172   7.254  1.0738 -0.6428 -2.4548
  188SAPI   H2Y21620   4.692   0.033   7.229 -0.9409  0.1860  4.6607
  188SAPI   C2321621   4.771   0.790   7.114 -0.3124  0.6902 -0.7163
  188SAPI   H3R21622   4.698   0.761   7.193  1.0953  0.9557  0.7211
  188SAPI   H3S21623   4.719   0.862   7.048 -1.9637  1.1191  0.9777
  188SAPI   C2421624   4.889   0.850   7.191 -0.2419  0.1567 -0.4286
  188SAPI   H4R21625   4.862   0.955   7.212 -2.1074 -0.4841  0.4005
  188SAPI   H4S21626   4.971   0.859   7.116 -1.5081  0.4069 -1.8182
  188SAPI   C2521627   4.923   0.771   7.326  0.0640  0.4560  1.1670
  188SAPI   H5R21628   4.965   0.670   7.314 -0.4639  0.3041  0.5404
  188SAPI   C2621629   4.902   0.819   7.450  0.8081 -0.5454  1.0257
  188SAPI   H6R21630   4.937   0.756   7.533  1.1602 -1.0241  0.5258
  188SAPI   C2721631   4.859   0.961   7.480  0.0696 -0.5597 -0.5013
  188SAPI   H7R21632   4.782   1.006   7.414 -0.5897  0.1269  0.7342
  188SAPI   H7S21633   4.946   1.029   7.467 -2.3114  2.8030  0.6657
  188SAPI   C2821634   4.815   0.971   7.628 -1.1532 -0.7968 -0.7129
  188SAPI   H8R21635   4.746   0.895   7.667 -0.6424 -2.0140 -2.1302
  188SAPI   C2921636   4.848   1.065   7.714 -0.1707  0.2810 -0.1738
  188SAPI   H9R21637   4.807   1.038   7.812  2.0951  1.9106  1.2693
  188SAPI  C21021638   4.913   1.198   7.696 -0.3538  0.1190  0.0111
  188SAPI  H10R21639   4.912   1.209   7.585  1.1240 -1.6118 -0.2053
  188SAPI  H10S21640   5.020   1.185   7.724 -0.2224  2.1023  0.4903
  188SAPI  C21121641   4.849   1.316   7.762 -0.4207  0.5699  0.0519
  188SAPI  H11R21642   4.799   1.391   7.700  4.7476  2.0257 -2.5845
  188SAPI  C21221643   4.837   1.339   7.895  0.0365 -0.0114 -0.8068
  188SAPI  H12R21644   4.799   1.437   7.927 -1.3164 -0.3732 -1.2831
  188SAPI  C21321645   4.886   1.262   8.017 -0.0820  0.0485  0.2865
  188SAPI  H13R21646   4.884   1.158   7.979 -1.7687  0.3998 -0.6383
  188SAPI  H13S21647   4.821   1.265   8.107  1.7032 -0.7370  1.6508
  188SAPI  C21421648   5.027   1.298   8.056  0.0571  0.3951  0.1113
  188SAPI  H14R21649   5.099   1.257   7.984  1.1953  2.1033  0.2505
  188SAPI  C21521650   5.079   1.380   8.154  0.1686 -0.0462  0.4123
  188SAPI  H15R21651   5.188   1.393   8.144 -0.1070  2.5691  0.3954
  188SAPI  C21621652   4.998   1.461   8.247 -0.8116  0.1430 -0.0936
  188SAPI  H16R21653   4.892   1.452   8.214 -0.3145 -1.2990 -1.3048
  188SAPI  H16S21654   5.022   1.570   8.251  0.0641 -0.1251  3.9222
  188SAPI  C21721655   4.996   1.422   8.395  0.6913  0.3342  0.4715
  188SAPI  H17R21656   5.099   1.418   8.435  1.0408 -0.9646 -0.5198
  188SAPI  H17S21657   4.958   1.318   8.394  1.7950 -0.0640 -1.0764
  188SAPI  C21821658   4.913   1.529   8.465 -0.2960 -0.6811  0.3102
  188SAPI  H18R21659   4.814   1.541   8.417 -0.0124  0.2757 -0.0545
  188SAPI  H18S21660   4.961   1.625   8.436 -0.9009 -0.1901  0.9120
  188SAPI  C21921661   4.898   1.508   8.609  0.3783 -0.0498 -1.0429
  188SAPI  H19R21662   4.867   1.407   8.645 -0.3955  1.2312  2.0686
  188SAPI  H19S21663   4.816   1.566   8.658  0.8474 -0.2917  0.0382
  188SAPI  C22021664   5.034   1.546   8.678  0.2030  0.4495 -0.0273
  188SAPI  H20R21665   5.018   1.549   8.788  0.1242  1.9997 -0.0760
  188SAPI  H20S21666   5.070   1.644   8.641  0.8447 -0.3083 -1.4522
  188SAPI  H20T21667   5.106   1.468   8.647 -0.0243  0.7920 -1.4351
  188SAPI   C3321668   4.603   0.171   7.353 -0.4936  0.6780  0.8109
  188SAPI   H3X21669   4.656   0.125   7.439 -0.1762  1.5497  1.0826
  188SAPI   H3Y21670   4.499   0.136   7.337 -0.3274  0.5748 -0.0982
  188SAPI   C3421671   4.582   0.323   7.392 -0.3628 -0.3792 -0.4148
  188SAPI   H4X21672   4.530   0.325   7.490 -0.9686  0.7029 -0.7379
  188SAPI   H4Y21673   4.528   0.385   7.317 -1.3561 -0.0953  0.5085
  188SAPI   C3521674   4.712   0.399   7.416  0.1202  0.2770  0.6745
  188SAPI   H5X21675   4.770   0.390   7.322 -0.9595 -1.9083  0.1826
  188SAPI   H5Y21676   4.782   0.343   7.482 -0.6498  0.2235  1.4553
  188SAPI   C3621677   4.694   0.548   7.462 -0.0619 -0.6766  0.1630
  188SAPI   H6X21678   4.670   0.619   7.380 -1.5534  2.6731  3.3141
  188SAPI   H6Y21679   4.788   0.581   7.512 -0.7396  1.1772  0.2591
  188SAPI   C3721680   4.598   0.567   7.576 -0.0805  0.1036 -0.0990
  188SAPI   H7X21681   4.509   0.504   7.551  1.9448 -1.8260 -2.8472
  188SAPI   H7Y21682   4.566   0.673   7.572  0.5459  0.2568 -1.4110
  188SAPI   C3821683   4.658   0.541   7.713  0.1271 -0.8099  0.0905
  188SAPI   H8X21684   4.730   0.622   7.740 -1.3318  0.5392  0.0361
  188SAPI   H8Y21685   4.708   0.442   7.708  0.0338 -1.0092  2.4283
  188SAPI   C3921686   4.555   0.524   7.826 -0.4959  0.0807 -0.9046
  188SAPI   H9X21687   4.511   0.423   7.813  0.6891 -0.4583 -0.8157
  188SAPI   H9Y21688   4.479   0.602   7.805 -0.3563  0.7994  1.1775
  188SAPI  C31021689   4.618   0.535   7.963  0.0906  0.3960  0.2983
  188SAPI  H10X21690   4.549   0.590   8.031  0.4577  0.0684  0.9376
  188SAPI  H10Y21691   4.708   0.599   7.955 -0.2066  0.4999 -2.5303
  188SAPI  C31121692   4.660   0.399   8.021  0.2917  0.6013 -0.5768
  188SAPI  H11X21693   4.762   0.366   7.993  0.2024 -0.8910  0.8107
  188SAPI  H11Y21694   4.590   0.324   7.979 -0.7839  0.5680  1.2106
  188SAPI  C31221695   4.640   0.393   8.171 -0.8374 -0.0278 -0.5471
  188SAPI  H12X21696   4.559   0.461   8.204 -0.7436 -1.2182  2.2771
  188SAPI  H12Y21697   4.732   0.440   8.211 -1.3151  0.2800  0.1896
  188SAPI  C31321698   4.595   0.256   8.218  0.2304  0.3036  0.7296
  188SAPI  H13X21699   4.666   0.180   8.179  0.7091  0.3835  1.4298
  188SAPI  H13Y21700   4.497   0.222   8.180 -0.1250  0.4627  1.5010
  188SAPI  C31421701   4.594   0.236   8.366 -0.2094 -0.4541 -0.4560
  188SAPI  H14X21702   4.518   0.304   8.408 -0.1859 -0.2629 -0.7181
  188SAPI  H14Y21703   4.694   0.259   8.407 -0.1024 -0.4350 -0.7229
  188SAPI  C31521704   4.552   0.090   8.409 -1.0951 -0.2308 -0.4206
  188SAPI  H15X21705   4.643   0.026   8.396 -1.2599 -0.1555 -2.1341
  188SAPI  H15Y21706   4.483   0.048   8.332 -0.9132 -0.3208 -0.5355
  188SAPI  C31621707   4.506   0.071   8.552 -0.2729  0.8068 -0.2728
  188SAPI  H16X21708   4.405   0.115   8.560 -0.7132 -0.4743  1.3746
  188SAPI  H16Y21709   4.587   0.108   8.619 -1.2486  0.6271  1.0176
  188SAPI  C31721710   4.486  -0.077   8.590  0.2172 -0.5820  0.7319
  188SAPI  H17X21711   4.426  -0.127   8.511 -0.0117  0.2137  0.4011
  188SAPI  H17Y21712   4.436  -0.078   8.690  1.5807 -0.1815  1.4323
  188SAPI  C31821713   4.605  -0.170   8.590  0.2476  0.8143  0.1680
  188SAPI  H18X21714   4.575  -0.274   8.614  1.8893  0.1340 -0.6392
  188SAPI  H18Y21715   4.670  -0.128   8.669  1.5012  1.5380 -1.2391
  188SAPI  H18Z21716   4.661  -0.186   8.495 -2.0188 -0.1916 -1.0426
  189POPC     N21717   4.893   0.890  11.314 -1.0725  0.3056 -0.8333
  189POPC   C1221718   5.020   0.901  11.237 -0.1559  0.5279 -0.6147
  189POPC  H12A21719   4.997   0.918  11.132  0.5826  0.7069 -0.7516
  189POPC  H12B21720   5.073   0.808  11.246 -1.6898 -0.0385  3.5853
  189POPC   C1321721   4.819   1.024  11.333 -0.9772  0.2800  0.3017
  189POPC  H13A21722   4.765   1.026  11.426 -0.3597 -1.0566  0.7015
  189POPC  H13B21723   4.878   1.115  11.327 -0.9286  0.1709 -1.0689
  189POPC  H13C21724   4.749   1.038  11.252 -0.5517  0.2177 -0.0780
  189POPC   C1421725   4.802   0.791  11.264 -0.1280  0.0126 -0.1344
  189POPC  H14A21726   4.850   0.696  11.250  0.5170  0.1139  1.3078
  189POPC  H14B21727   4.719   0.784  11.332 -1.3007 -0.7107 -1.6059
  189POPC  H14C21728   4.770   0.826  11.166  0.2285 -0.8082 -0.5465
  189POPC   C1521729   4.926   0.859  11.465  1.0883  0.4977  1.1200
  189POPC  H15A21730   4.971   0.761  11.469  0.9555  0.3391 -0.7215
  189POPC  H15B21731   4.836   0.867  11.524 -0.2976  0.8741 -0.9722
  189POPC  H15C21732   5.007   0.924  11.492  2.9508 -1.1808 -0.2516
  189POPC   C1121733   5.125   1.008  11.277 -0.1344  0.0082  0.1311
  189POPC  H11A21734   5.205   0.992  11.202 -2.0757 -1.1995 -1.7330
  189POPC  H11B21735   5.174   0.994  11.376 -1.9828  0.3196  1.1292
  189POPC     P21736   5.060   1.205  11.124  0.0151  0.3337 -0.1585
  189POPC   O1321737   5.180   1.291  11.105 -0.3903 -0.1541  0.3799
  189POPC   O1421738   4.932   1.275  11.116  0.2143  0.4227 -0.0103
  189POPC   O1221739   5.077   1.140  11.271  0.0094 -0.2431 -0.5605
  189POPC   O1121740   5.073   1.082  11.022 -0.6078  0.4054  0.3719
  189POPC    C121741   5.161   1.098  10.905  0.2212 -0.5040  0.3782
  189POPC    HA21742   5.208   1.002  10.877  0.9876 -0.0349  0.0410
  189POPC    HB21743   5.256   1.151  10.927  0.3276 -0.2956 -0.5415
  189POPC    C221744   5.094   1.159  10.778  1.1015  0.3123  0.2187
  189POPC    HS21745   5.041   1.248  10.819 -2.2261 -0.5944 -1.9262
  189POPC   O2121746   5.023   1.056  10.707 -0.1859 -0.3659  0.1928
  189POPC   C2121747   4.909   1.087  10.650  0.0533  0.1052 -0.3225
  189POPC   O2221748   4.868   1.201  10.633 -0.4303  0.4530 -0.0241
  189POPC   C2221749   4.835   0.956  10.606 -0.0739 -0.2178  0.0255
  189POPC   H2R21750   4.779   0.916  10.693  0.1475  0.7368  0.6084
  189POPC   H2S21751   4.904   0.872  10.583  2.4889  0.6419  4.0410
  189POPC    C321752   5.204   1.227  10.691  0.0215 -0.1921 -0.0778
  189POPC    HX21753   5.279   1.144  10.689  0.3193  0.0495  0.9880
  189POPC    HY21754   5.255   1.309  10.745 -0.8619  0.1299  0.2766
  189POPC   O3121755   5.163   1.260  10.554  0.3877 -0.5276  0.3053
  189POPC   C3121756   5.094   1.371  10.543  0.0718 -0.0308  0.2893
  189POPC   O3221757   5.056   1.439  10.639  0.7851  0.8684  0.4404
  189POPC   C3221758   5.069   1.412  10.393 -0.1132  0.4390  0.5240
  189POPC   H2X21759   5.149   1.483  10.362  0.0917 -0.0457 -0.0438
  189POPC   H2Y21760   4.977   1.474  10.384  1.0216  2.0537 -0.1506
  189POPC   C2321761   4.717   0.967  10.508  0.8244  0.7004 -0.0449
  189POPC   H3R21762   4.645   1.040  10.551  0.0973  0.3275 -0.6209
  189POPC   H3S21763   4.667   0.869  10.498  2.0748 -0.0090  0.5236
  189POPC   C2421764   4.761   1.012  10.362  0.0079  1.0436  0.5957
  189POPC   H4R21765   4.813   0.929  10.310 -0.9797  0.1261  1.0615
  189POPC   H4S21766   4.831   1.097  10.375  0.3989  0.7784  0.2572
  189POPC   C2521767   4.650   1.072  10.273 -0.2741 -0.2352 -0.0339
  189POPC   H5R21768   4.589   1.153  10.318 -0.6193 -0.5676  0.0935
  189POPC   H5S21769   4.571   0.998  10.253  0.1322 -0.6106 -0.2546
  189POPC   C2621770   4.691   1.121  10.130 -0.0391  0.0346 -0.5049
  189POPC   H6R21771   4.740   1.039  10.073  2.1974  2.0495 -1.5896
  189POPC   H6S21772   4.771   1.197  10.143 -0.3432  0.0081  1.7258
  189POPC   C2721773   4.578   1.197  10.060  0.1442 -0.6613  0.1270
  189POPC   H7R21774   4.532   1.271  10.129  0.1607 -0.7041  0.1823
  189POPC   H7S21775   4.498   1.125  10.031 -0.6470  0.4097 -0.3804
  189POPC   C2821776   4.616   1.263   9.936  0.0833  0.5080 -0.4545
  189POPC   H8R21777   4.713   1.314   9.952 -1.3577  3.3481 -0.3886
  189POPC   H8S21778   4.546   1.347   9.914 -0.3281  0.5618  1.0215
  189POPC   C2921779   4.631   1.155   9.826 -0.4941 -0.2066 -0.2985
  189POPC   H9121780   4.673   1.060   9.864 -0.6800  1.1823  3.7010
  189POPC  C21021781   4.579   1.146   9.709  0.0752  0.6514 -0.0644
  189POPC  H10121782   4.606   1.055   9.653 -0.0543 -1.8731  3.7709
  189POPC  C21121783   4.492   1.248   9.639 -0.6491 -0.0438 -0.2494
  189POPC  H11R21784   4.469   1.332   9.709 -2.2427 -0.0886 -0.6976
  189POPC  H11S21785   4.396   1.202   9.606 -1.6183  2.4055 -0.9840
  189POPC  C21221786   4.554   1.308   9.515  0.6056  0.8229  0.0962
  189POPC  H12R21787   4.577   1.232   9.439  0.7293 -0.7831  1.7110
  189POPC  H12S21788   4.635   1.374   9.552  1.4104 -0.4766  0.6871
  189POPC  C21321789   4.441   1.391   9.448 -1.1969  0.5270  0.1789
  189POPC  H13R21790   4.407   1.477   9.510 -1.0140 -0.8154  2.2048
  189POPC  H13S21791   4.348   1.329   9.447 -2.5986  2.5370 -3.8322
  189POPC  C21421792   4.458   1.429   9.300  0.2628 -0.7762  0.5210
  189POPC  H14R21793   4.564   1.455   9.278  0.8641 -2.0851  1.7577
  189POPC  H14S21794   4.398   1.519   9.275  0.6358 -0.1201  1.9061
  189POPC  C21521795   4.413   1.314   9.212 -0.6950  0.0034  0.1432
  189POPC  H15R21796   4.436   1.211   9.248 -1.9140  0.1237  1.3245
  189POPC  H15S21797   4.469   1.333   9.118  0.8578 -0.1070  1.0405
  189POPC  C21621798   4.264   1.311   9.181 -0.0434  0.0668 -0.0744
  189POPC  H16R21799   4.218   1.402   9.136  0.1054  1.3252  2.2860
  189POPC  H16S21800   4.213   1.280   9.274  1.0833 -0.8617  0.2486
  189POPC  C21721801   4.229   1.193   9.078  0.2132 -0.2946 -0.6400
  189POPC  H17R21802   4.269   1.102   9.127 -1.7296 -1.8602 -1.8974
  189POPC  H17S21803   4.291   1.211   8.988  2.2760  1.3694  1.0534
  189POPC  C21821804   4.083   1.173   9.054  0.4526 -0.1677 -0.3887
  189POPC  H18R21805   4.041   1.249   8.984  0.7384 -1.1819 -1.6803
  189POPC  H18S21806   4.039   1.191   9.154  1.5417 -0.9797  0.2319
  189POPC  H18T21807   4.061   1.072   9.013  3.1065 -0.3415 -1.5019
  189POPC   C3321808   5.061   1.294  10.290 -0.4288 -0.5102 -0.0231
  189POPC   H3X21809   4.967   1.237  10.310 -1.7441  0.7925 -2.2019
  189POPC   H3Y21810   5.143   1.220  10.283 -0.4286 -0.4247 -1.0039
  189POPC   C3421811   5.053   1.353  10.148 -0.4685  0.0900  0.0958
  189POPC   H4X21812   5.132   1.428  10.128 -0.8385  0.3001 -0.5860
  189POPC   H4Y21813   4.959   1.412  10.140 -1.2500 -0.8256  2.2443
  189POPC   C3521814   5.044   1.247  10.040 -0.7712 -0.3543  0.8270
  189POPC   H5X21815   4.964   1.173  10.058 -0.4921 -0.6509  0.8426
  189POPC   H5Y21816   5.137   1.189  10.022  0.4844  1.5924  0.8404
  189POPC   C3621817   5.027   1.312   9.902 -0.6041 -0.2079  0.1823
  189POPC   H6X21818   5.118   1.370   9.874 -0.3387  0.0411  1.5539
  189POPC   H6Y21819   4.941   1.382   9.898 -0.3847  0.2102  2.4248
  189POPC   C3721820   5.018   1.208   9.797  0.9765 -0.0963  0.4951
  189POPC   H7X21821   4.915   1.168   9.813  0.3681  0.5504 -1.6128
  189POPC   H7Y21822   5.097   1.135   9.821 -0.4357 -2.2012 -1.0059
  189POPC   C3821823   5.033   1.256   9.656  0.8968 -0.3283  0.2744
  189POPC   H8X21824   5.142   1.272   9.639  1.1371 -1.5400  0.6509
  189POPC   H8Y21825   4.971   1.347   9.639  0.3421 -0.8937 -0.7317
  189POPC   C3921826   4.973   1.159   9.561 -0.2518  0.0800 -0.0792
  189POPC   H9X21827   4.869   1.129   9.588 -0.2710 -0.5970 -0.8976
  189POPC   H9Y21828   5.029   1.064   9.556 -0.8861 -0.1733 -3.1177
  189POPC  C31021829   4.955   1.205   9.416  0.7701  0.3718 -0.1682
  189POPC  H10X21830   5.052   1.254   9.394  1.0084  0.3649  0.8259
  189POPC  H10Y21831   4.868   1.271   9.396  1.1537  0.3003 -2.1285
  189POPC  C31121832   4.933   1.094   9.313  0.5063 -0.2467  0.3799
  189POPC  H11X21833   4.837   1.044   9.336 -0.2443  0.9387 -0.0982
  189POPC  H11Y21834   5.015   1.020   9.325  1.3513  0.9030  1.8507
  189POPC  C31221835   4.941   1.141   9.167  0.4840 -0.5615 -0.4899
  189POPC  H12X21836   4.918   1.051   9.105 -2.2396 -0.4094  0.2580
  189POPC  H12Y21837   5.031   1.203   9.146  0.9696 -1.2130 -0.3671
  189POPC  C31321838   4.828   1.235   9.133  0.3586 -0.5998  0.3129
  189POPC  H13X21839   4.843   1.338   9.172 -0.2227 -0.8934  1.3525
  189POPC  H13Y21840   4.731   1.199   9.174 -1.1485  1.7422 -1.0931
  189POPC  C31421841   4.812   1.264   8.981  0.0305  0.7899 -0.0202
  189POPC  H14X21842   4.908   1.303   8.939  0.0136  0.4862 -0.3452
  189POPC  H14Y21843   4.745   1.347   8.952  2.0373  2.8015  0.9188
  189POPC  C31521844   4.758   1.147   8.902 -0.4248 -0.1834 -0.1867
  189POPC  H15X21845   4.657   1.126   8.945 -0.8327 -0.6896 -1.3561
  189POPC  H15Y21846   4.822   1.056   8.902  2.0064  1.5059 -0.1258
  189POPC  C31621847   4.729   1.183   8.753  0.2911 -0.4090 -0.4859
  189POPC  H16X21848   4.819   1.158   8.693  0.6797 -1.0611  0.3525
  189POPC  H16Y21849   4.724   1.293   8.740  0.5865 -0.4159 -0.6597
  189POPC  H16Z21850   4.653   1.122   8.700 -1.1884  0.0192  1.0816
  190POPC     N21851   6.723   5.100  11.130 -0.3131 -0.1034 -0.6544
  190POPC   C1221852   6.712   5.027  11.004 -0.2490 -0.5600 -0.2978
  190POPC  H12A21853   6.621   5.069  10.965  0.5543 -1.0555 -2.8159
  190POPC  H12B21854   6.709   4.922  11.030 -1.1648 -0.7768 -1.2499
  190POPC   C1321855   6.735   5.241  11.110  0.1173  0.1390  1.1686
  190POPC  H13A21856   6.741   5.290  11.206  0.2265  0.1633  1.1483
  190POPC  H13B21857   6.829   5.268  11.064  0.6240 -2.0341  0.8742
  190POPC  H13C21858   6.658   5.281  11.047  1.0453  1.1251  0.6392
  190POPC   C1421859   6.604   5.088  11.219  0.2748 -0.1412  0.2050
  190POPC  H14A21860   6.626   5.129  11.316  1.0492 -2.7483  1.1916
  190POPC  H14B21861   6.521   5.135  11.170  0.3791  1.9388  1.9436
  190POPC  H14C21862   6.581   4.983  11.235 -0.7224  0.2607  1.4159
  190POPC   C1521863   6.837   5.045  11.217  0.6560 -0.2467  0.5414
  190POPC  H15A21864   6.930   5.047  11.162  0.4836  3.0142  0.2781
  190POPC  H15B21865   6.813   4.944  11.246  2.7827 -0.7220  0.7500
  190POPC  H15C21866   6.844   5.103  11.308  0.7316 -0.1615  0.4825
  190POPC   C1121867   6.815   5.047  10.891 -0.0019  0.3900 -0.9825
  190POPC  H11A21868   6.848   5.148  10.860  0.1775  0.2070 -1.3931
  190POPC  H11B21869   6.782   4.992  10.801 -0.5773 -0.8855 -0.0182
  190POPC     P21870   6.981   4.841  10.911  0.3360 -0.4314 -0.3666
  190POPC   O1321871   6.886   4.753  10.990  0.0448 -0.0459  0.5852
  190POPC   O1421872   7.124   4.809  10.928  0.0441  0.3259  0.6724
  190POPC   O1221873   6.947   4.990  10.935 -0.1561 -0.2054 -0.3776
  190POPC   O1121874   6.950   4.813  10.760 -0.1894 -0.2396 -0.0356
  190POPC    C121875   7.018   4.873  10.648 -0.5482 -0.3076 -0.2597
  190POPC    HA21876   7.095   4.944  10.686  0.6200 -2.5997  1.8569
  190POPC    HB21877   6.945   4.942  10.602  0.5365 -0.3838 -2.1557
  190POPC    C221878   7.084   4.771  10.552 -0.0299 -0.4443  0.3795
  190POPC    HS21879   7.144   4.829  10.478 -0.7415  0.7965  0.7524
  190POPC   O2121880   6.990   4.696  10.473  1.1654 -0.2492  0.3318
  190POPC   C2121881   6.925   4.777  10.385  0.0510  0.0210  0.5420
  190POPC   O2221882   6.951   4.892  10.352  0.2667  0.1671  0.2714
  190POPC   C2221883   6.818   4.690  10.328  0.1803  0.0582  0.2545
  190POPC   H2R21884   6.721   4.732  10.361 -0.0844 -0.2551 -0.1236
  190POPC   H2S21885   6.832   4.587  10.366  1.3954 -0.2969 -1.0914
  190POPC    C321886   7.170   4.668  10.631  0.2992  0.3057  0.3081
  190POPC    HX21887   7.110   4.631  10.717 -1.3169  1.2639 -0.3852
  190POPC    HY21888   7.255   4.722  10.678 -1.2301  2.6283  0.4830
  190POPC   O3121889   7.216   4.566  10.542  0.6056 -0.3730 -0.1487
  190POPC   C3121890   7.156   4.445  10.549 -0.1500 -0.3523 -0.2690
  190POPC   O3221891   7.060   4.420  10.624  0.4573 -0.3451  0.2356
  190POPC   C3221892   7.232   4.330  10.483 -0.2729 -0.3247  0.3334
  190POPC   H2X21893   7.252   4.251  10.558 -1.8381 -0.2069  0.8791
  190POPC   H2Y21894   7.333   4.368  10.456  1.0805 -2.7243  1.8434
  190POPC   C2321895   6.817   4.693  10.171  0.4738  0.4493  0.1052
  190POPC   H3R21896   6.898   4.626  10.135  1.7824  1.2559  1.4533
  190POPC   H3S21897   6.840   4.795  10.134 -1.3992  0.8086 -0.1187
  190POPC   C2421898   6.685   4.635  10.109 -0.0452  0.0345 -0.6228
  190POPC   H4R21899   6.602   4.700  10.145  1.0702  0.8911  0.4254
  190POPC   H4S21900   6.668   4.538  10.160  0.8732 -0.1120 -0.5860
  190POPC   C2521901   6.700   4.610   9.958 -0.0330  0.0178 -0.2341
  190POPC   H5R21902   6.608   4.558   9.922 -0.2973 -0.6310  1.3368
  190POPC   H5S21903   6.784   4.544   9.929  1.5683  2.0349 -0.2930
  190POPC   C2621904   6.708   4.737   9.878 -0.3992  0.3125 -0.0578
  190POPC   H6R21905   6.791   4.805   9.908 -0.8355 -0.3813  2.8950
  190POPC   H6S21906   6.612   4.791   9.890 -1.0665 -1.0390  0.9119
  190POPC   C2721907   6.715   4.708   9.727 -1.5364  0.1127  0.4497
  190POPC   H7R21908   6.694   4.599   9.715  1.8846 -0.3477 -2.5581
  190POPC   H7S21909   6.816   4.726   9.684 -0.7555 -0.5066  1.9844
  190POPC   C2821910   6.604   4.781   9.653  0.5873  1.3445 -0.1923
  190POPC   H8R21911   6.509   4.768   9.709  0.1427 -1.2365 -1.4555
  190POPC   H8S21912   6.597   4.735   9.552 -0.6286 -0.6896  0.7985
  190POPC   C2921913   6.614   4.928   9.651 -0.1963  0.0275  0.4001
  190POPC   H9121914   6.719   4.959   9.662  0.3673 -1.4265 -0.6561
  190POPC  C21021915   6.516   5.018   9.619 -0.2770  0.6848 -0.9954
  190POPC  H10121916   6.535   5.124   9.641  0.8867  0.1316  0.7821
  190POPC  C21121917   6.375   4.976   9.586  0.1454  0.3662 -0.1249
  190POPC  H11R21918   6.298   5.029   9.646 -0.5629  1.1208 -1.6728
  190POPC  H11S21919   6.351   4.867   9.584 -1.6759  0.7167  1.6676
  190POPC  C21221920   6.349   5.032   9.441 -0.4347  0.1493 -0.5473
  190POPC  H12R21921   6.429   4.987   9.378 -0.9188 -0.9879 -0.3549
  190POPC  H12S21922   6.351   5.143   9.447 -2.3907  0.1959 -0.3675
  190POPC  C21321923   6.219   4.996   9.374 -0.5906  0.7980 -0.2743
  190POPC  H13R21924   6.128   5.018   9.434  0.6064 -0.6814  2.1581
  190POPC  H13S21925   6.219   4.887   9.354  0.1037  0.2885  2.2756
  190POPC  C21421926   6.213   5.065   9.243  0.0401 -0.2138  0.6407
  190POPC  H14R21927   6.314   5.090   9.204  0.4011 -0.9860  1.0684
  190POPC  H14S21928   6.163   5.162   9.263  2.6531  1.2022  0.3914
  190POPC  C21521929   6.125   5.003   9.130  0.7721 -0.8107  0.7743
  190POPC  H15R21930   6.104   5.084   9.057  0.9434 -0.8541  0.6754
  190POPC  H15S21931   6.030   4.971   9.179  1.5175  0.6870  3.2408
  190POPC  C21621932   6.185   4.886   9.044  0.9675 -0.0920 -0.5932
  190POPC  H16R21933   6.218   4.808   9.115 -0.0558 -0.0223 -0.0339
  190POPC  H16S21934   6.272   4.933   8.994 -0.1798 -0.3170 -2.8597
  190POPC  C21721935   6.075   4.824   8.950 -0.3809  0.2535  0.6825
  190POPC  H17R21936   6.043   4.895   8.871 -0.3044  1.0902  1.3861
  190POPC  H17S21937   5.978   4.816   9.004  0.1037 -1.0313  1.3814
  190POPC  C21821938   6.115   4.697   8.867 -0.1677  0.2925  0.1756
  190POPC  H18R21939   6.162   4.618   8.928 -0.0043  0.2450 -0.0134
  190POPC  H18S21940   6.196   4.713   8.792 -0.7595 -1.8751 -0.9641
  190POPC  H18T21941   6.025   4.668   8.809  0.3112  1.1976 -1.0505
  190POPC   C3321942   7.161   4.286  10.359  0.0255  0.1341 -0.0775
  190POPC   H3X21943   7.052   4.281  10.379 -0.2047 -2.9426 -1.8344
  190POPC   H3Y21944   7.196   4.182  10.347  2.2937  0.6886  1.4738
  190POPC   C3421945   7.191   4.371  10.234  0.4141 -0.1603  0.9468
  190POPC   H4X21946   7.298   4.360  10.206 -0.7169 -1.9097 -3.0852
  190POPC   H4Y21947   7.181   4.479  10.257 -0.2077  0.1303 -0.6709
  190POPC   C3521948   7.100   4.331  10.110  0.0405  0.4730 -0.4355
  190POPC   H5X21949   6.995   4.355  10.135 -0.7657 -0.3355 -2.9178
  190POPC   H5Y21950   7.108   4.220  10.108 -0.6880  0.4242 -0.7412
  190POPC   C3621951   7.146   4.380   9.976  0.0237 -0.1836  0.0253
  190POPC   H6X21952   7.238   4.336   9.932  0.5800  1.2652 -0.2704
  190POPC   H6Y21953   7.172   4.486   9.995 -1.7208  0.1702  0.5798
  190POPC   C3721954   7.037   4.379   9.866  0.9713  0.1143  0.5580
  190POPC   H7X21955   6.979   4.469   9.897 -1.7668 -1.1201 -0.8683
  190POPC   H7Y21956   6.982   4.283   9.864  3.7708 -1.5497 -0.0017
  190POPC   C3821957   7.082   4.419   9.726 -0.8725 -0.6118 -0.1472
  190POPC   H8X21958   7.149   4.346   9.676  1.1468  0.9161  0.2538
  190POPC   H8Y21959   7.145   4.510   9.732 -2.4405  0.6140 -1.6050
  190POPC   C3921960   6.964   4.457   9.631  0.1114  0.0054  0.1208
  190POPC   H9X21961   6.929   4.557   9.664 -0.9832 -0.0762 -0.7569
  190POPC   H9Y21962   6.876   4.393   9.651  0.7242 -1.1413 -0.8090
  190POPC  C31021963   7.013   4.456   9.482 -0.4881  0.3028 -0.4250
  190POPC  H10X21964   7.006   4.352   9.443 -0.3309  1.0067 -2.3996
  190POPC  H10Y21965   7.113   4.502   9.497 -0.4566 -0.5799  2.3802
  190POPC  C31121966   6.934   4.548   9.390 -0.0798 -0.1056 -0.0277
  190POPC  H11X21967   6.984   4.543   9.291 -0.3765  0.0489 -0.1896
  190POPC  H11Y21968   6.943   4.654   9.420 -0.6789  0.1182 -0.6233
  190POPC  C31221969   6.791   4.499   9.370  0.4749 -0.5124 -0.2226
  190POPC  H12X21970   6.744   4.497   9.470 -0.2034  2.4392 -0.4336
  190POPC  H12Y21971   6.789   4.397   9.325 -3.7612 -1.0667  0.9604
  190POPC  C31321972   6.720   4.590   9.275 -0.1891 -0.0546  0.0147
  190POPC  H13X21973   6.744   4.544   9.177 -0.5763  0.1299 -0.1662
  190POPC  H13Y21974   6.755   4.696   9.274  1.3772 -0.5629 -0.1493
  190POPC  C31421975   6.573   4.601   9.286 -0.6369 -0.5739 -0.0605
  190POPC  H14X21976   6.549   4.630   9.391 -0.4479 -1.6981  0.2975
  190POPC  H14Y21977   6.529   4.499   9.283  0.2925 -0.9343 -3.0747
  190POPC  C31521978   6.503   4.690   9.191 -0.3292  0.8833 -0.3769
  190POPC  H15X21979   6.397   4.699   9.224  0.0208  0.0667  1.0280
  190POPC  H15Y21980   6.505   4.641   9.092 -2.1687  0.0764 -0.0332
  190POPC  C31621981   6.558   4.837   9.183  0.0923  0.3560 -0.6116
  190POPC  H16X21982   6.571   4.883   9.283 -1.2592 -0.6894  0.0627
  190POPC  H16Y21983   6.496   4.913   9.131  0.1628  1.3171  0.6920
  190POPC  H16Z21984   6.657   4.829   9.131  0.4168 -0.2664  0.0868
  191POPC     N21985   0.384   5.915   6.069  0.4469 -0.0115  0.7579
  191POPC   C1221986   0.428   6.040   6.012  0.1410  0.0639 -0.6699
  191POPC  H12A21987   0.395   6.122   6.075 -0.5491 -0.5896 -0.1734
  191POPC  H12B21988   0.364   6.052   5.926  0.0557  1.1719 -0.4654
  191POPC   C1321989   0.429   5.817   5.974 -0.6016 -0.6850 -1.2951
  191POPC  H13A21990   0.399   5.726   6.024 -2.5511  0.4495 -0.3212
  191POPC  H13B21991   0.389   5.846   5.878 -0.8694  1.0549 -0.6803
  191POPC  H13C21992   0.536   5.817   5.963 -0.2345  0.6234  1.7111
  191POPC   C1421993   0.442   5.892   6.196 -0.2743 -0.3187  0.0171
  191POPC  H14A21994   0.415   5.799   6.244  1.3607 -1.3562 -1.0213
  191POPC  H14B21995   0.549   5.892   6.190 -0.3257  1.3418 -1.6507
  191POPC  H14C21996   0.421   5.978   6.258 -1.9099 -0.2610 -0.5881
  191POPC   C1521997   0.234   5.913   6.070  0.4251  0.3516 -0.8567
  191POPC  H15A21998   0.180   5.826   6.105  0.7353  1.1525  1.7266
  191POPC  H15B21999   0.196   5.926   5.970  1.3178 -0.8523 -1.3668
  191POPC  H15C22000   0.190   5.994   6.127 -3.0202  0.6347 -3.7736
  191POPC   C1122001   0.585   6.048   5.986  0.1077  0.4720  0.3596
  191POPC  H11A22002   0.600   6.148   5.941 -0.1365  1.0567  1.5499
  191POPC  H11B22003   0.629   5.975   5.914 -0.2183  2.1694 -1.6040
  191POPC     P22004   0.674   6.164   6.203 -0.2447  0.0812 -0.5262
  191POPC   O1322005   0.539   6.221   6.232 -0.4038 -0.3422  0.2616
  191POPC   O1422006   0.773   6.264   6.156 -0.2061  0.5966 -0.0119
  191POPC   O1222007   0.664   6.044   6.103 -0.2361  0.1717 -0.1433
  191POPC   O1122008   0.718   6.096   6.334 -1.0539  0.7250 -0.4071
  191POPC    C122009   0.738   6.171   6.448  0.2580 -0.5348  0.3334
  191POPC    HA22010   0.786   6.269   6.425 -1.6742  0.3390 -0.0586
  191POPC    HB22011   0.802   6.106   6.511 -1.1507 -2.3876 -0.1113
  191POPC    C222012   0.612   6.210   6.528  0.7389 -0.2988  0.6131
  191POPC    HS22013   0.570   6.285   6.458  3.1551 -0.5217 -1.1511
  191POPC   O2122014   0.637   6.257   6.662  0.1271  0.6045 -0.7019
  191POPC   C2122015   0.692   6.378   6.678 -0.0311 -0.2309  0.3954
  191POPC   O2222016   0.705   6.461   6.591  0.5587  0.1971  0.0849
  191POPC   C2222017   0.770   6.371   6.809  0.4685  0.0851  0.4786
  191POPC   H2R22018   0.806   6.473   6.834 -1.2638  0.5594  1.0754
  191POPC   H2S22019   0.861   6.309   6.790 -1.8625 -3.1283 -0.7555
  191POPC    C322020   0.505   6.093   6.544  1.4978 -0.9540  0.4911
  191POPC    HX22021   0.477   6.059   6.443 -1.4035  0.5373  0.7354
  191POPC    HY22022   0.411   6.130   6.592  0.4656 -0.0468 -2.1543
  191POPC   O3122023   0.557   5.983   6.616 -0.4696  0.5557 -0.3765
  191POPC   C3122024   0.530   5.958   6.740 -0.3383  0.1824 -0.4325
  191POPC   O3222025   0.445   6.020   6.809 -0.1516  0.1557  0.0839
  191POPC   C3222026   0.613   5.835   6.778 -0.0372  1.2159  0.0544
  191POPC   H2X22027   0.719   5.858   6.756  0.8449 -1.8574  0.9249
  191POPC   H2Y22028   0.590   5.746   6.717  1.0437  1.7730 -1.1947
  191POPC   C2322029   0.714   6.295   6.927  0.8391 -0.4215  0.1430
  191POPC   H3R22030   0.725   6.187   6.903  1.3879 -0.3544  0.0767
  191POPC   H3S22031   0.612   6.334   6.947  1.6806  2.7864 -1.5475
  191POPC   C2422032   0.798   6.315   7.052  0.5580 -0.1125  0.3439
  191POPC   H4R22033   0.805   6.421   7.086 -0.7147 -0.3284  1.2960
  191POPC   H4S22034   0.900   6.278   7.029  1.1057  1.0267  0.8568
  191POPC   C2522035   0.749   6.218   7.171 -0.2353 -0.2406  0.1743
  191POPC   H5R22036   0.827   6.223   7.250  1.5806  0.1109 -1.6063
  191POPC   H5S22037   0.740   6.113   7.137  0.1099 -0.5358  0.9681
  191POPC   C2622038   0.607   6.246   7.221 -0.1063  0.3637  0.2066
  191POPC   H6R22039   0.536   6.249   7.136  1.0348  3.3197 -0.7347
  191POPC   H6S22040   0.602   6.338   7.283 -1.3686  0.4334  0.0044
  191POPC   C2722041   0.569   6.146   7.331  1.1206 -0.0755 -0.0067
  191POPC   H7R22042   0.601   6.046   7.294 -1.9323 -2.0061  2.3408
  191POPC   H7S22043   0.462   6.152   7.359  1.3335  1.1645  0.5494
  191POPC   C2822044   0.642   6.161   7.465  0.0115 -0.2735 -0.5121
  191POPC   H8R22045   0.749   6.150   7.437  0.3313  0.0560  0.5556
  191POPC   H8S22046   0.630   6.068   7.524  1.4852 -1.3218 -1.8187
  191POPC   C2922047   0.622   6.279   7.552  0.2906 -0.0353  0.1397
  191POPC   H9122048   0.665   6.367   7.502 -0.2049 -0.9480 -1.9266
  191POPC  C21022049   0.593   6.286   7.685 -0.0347 -0.6324  0.0581
  191POPC  H10122050   0.590   6.387   7.730  2.7471 -0.1958 -0.6586
  191POPC  C21122051   0.571   6.171   7.777 -0.0235 -0.1059  0.0655
  191POPC  H11R22052   0.624   6.202   7.869 -0.1450 -1.4603  0.5858
  191POPC  H11S22053   0.604   6.075   7.733  1.9614  0.1361  0.9609
  191POPC  C21222054   0.430   6.158   7.829  0.8421  0.1381 -0.6026
  191POPC  H12R22055   0.432   6.067   7.893 -2.2123  1.0023  0.8090
  191POPC  H12S22056   0.359   6.138   7.746 -2.5993  0.2352  2.2085
  191POPC  C21322057   0.369   6.276   7.914 -0.9968 -0.2339 -0.1667
  191POPC  H13R22058   0.264   6.254   7.943  0.0080 -0.9194  3.1079
  191POPC  H13S22059   0.381   6.364   7.847  1.0586 -0.9140 -0.7320
  191POPC  C21422060   0.457   6.324   8.034  0.3035 -0.0290  0.2306
  191POPC  H14R22061   0.406   6.410   8.081  1.1962  0.0920  0.9966
  191POPC  H14S22062   0.554   6.358   7.990 -0.1238 -1.9905 -2.3354
  191POPC  C21522063   0.467   6.212   8.140 -0.7059  1.1460 -0.0923
  191POPC  H15R22064   0.522   6.126   8.097  1.1154  2.7318 -1.0112
  191POPC  H15S22065   0.365   6.188   8.176 -0.8149  0.6603 -0.7129
  191POPC  C21622066   0.550   6.260   8.261 -0.0595  0.3056 -0.1853
  191POPC  H16R22067   0.502   6.344   8.315  1.3198  0.9844  0.0112
  191POPC  H16S22068   0.646   6.301   8.222 -0.2532  0.7631 -0.1897
  191POPC  C21722069   0.570   6.136   8.355 -0.1878 -0.1219  0.3235
  191POPC  H17R22070   0.610   6.051   8.295  0.6679 -0.1564  0.9264
  191POPC  H17S22071   0.470   6.098   8.383 -0.4655  1.6580  1.8682
  191POPC  C21822072   0.676   6.151   8.475  0.5059 -0.1019  0.1001
  191POPC  H18R22073   0.651   6.065   8.540  0.4989  0.6228  1.0528
  191POPC  H18S22074   0.669   6.239   8.542 -0.3827 -1.3184  1.6381
  191POPC  H18T22075   0.780   6.133   8.441  1.4954  2.3609  1.7463
  191POPC   C3322076   0.593   5.789   6.927 -0.5175  0.5034 -0.4566
  191POPC   H3X22077   0.492   5.755   6.958 -0.9748 -1.3666 -3.7447
  191POPC   H3Y22078   0.631   5.880   6.978  0.4892  0.0537 -0.4064
  191POPC   C3422079   0.678   5.669   6.961  0.0619  0.1623  0.3254
  191POPC   H4X22080   0.783   5.678   6.924  0.4112  1.8906  1.6776
  191POPC   H4Y22081   0.638   5.581   6.905  1.9377 -0.4926 -0.0386
  191POPC   C3522082   0.675   5.626   7.105  0.2819 -0.1486 -0.4629
  191POPC   H5X22083   0.709   5.521   7.122  2.4781  0.6796  0.4658
  191POPC   H5Y22084   0.570   5.618   7.141  0.4532 -2.0628 -0.3418
  191POPC   C3622085   0.752   5.716   7.205 -0.2429 -0.5824 -0.3230
  191POPC   H6X22086   0.710   5.819   7.210  1.6195  0.1165  1.0786
  191POPC   H6Y22087   0.858   5.724   7.172 -0.4993  0.1602 -0.9852
  191POPC   C3722088   0.737   5.664   7.353  0.3405 -0.6261  0.2035
  191POPC   H7X22089   0.781   5.562   7.356  2.0124  0.0714  0.1039
  191POPC   H7Y22090   0.629   5.648   7.375  0.2318 -0.4852 -0.2155
  191POPC   C3822091   0.804   5.739   7.461  0.4933 -0.2682  0.1264
  191POPC   H8X22092   0.780   5.847   7.450 -1.5237 -1.0474 -4.1743
  191POPC   H8Y22093   0.914   5.728   7.449  0.6809  0.8586  0.8030
  191POPC   C3922094   0.770   5.693   7.601 -0.0762  0.2107  0.3163
  191POPC   H9X22095   0.784   5.583   7.593 -0.6040  0.2519 -1.2456
  191POPC   H9Y22096   0.663   5.706   7.628 -0.1190  2.9671 -1.1131
  191POPC  C31022097   0.861   5.754   7.716  0.4846  0.6036 -0.0007
  191POPC  H10X22098   0.887   5.854   7.675 -0.2223 -0.2448 -2.6159
  191POPC  H10Y22099   0.950   5.688   7.726  0.4695  0.8641  2.1341
  191POPC  C31122100   0.800   5.768   7.854 -0.1004 -1.0098  0.0580
  191POPC  H11X22101   0.798   5.666   7.897  1.6066 -1.4252 -0.8059
  191POPC  H11Y22102   0.697   5.808   7.844  0.7795  1.1761 -0.5489
  191POPC  C31222103   0.885   5.852   7.945  0.4968 -0.2986 -0.0627
  191POPC  H12X22104   0.908   5.946   7.892  0.8035 -0.4644 -0.2281
  191POPC  H12Y22105   0.983   5.803   7.967  1.4818  1.7889  0.3193
  191POPC  C31322106   0.807   5.876   8.077 -0.5585  0.2411  0.7637
  191POPC  H13X22107   0.702   5.892   8.047 -0.4801  0.8318  0.8109
  191POPC  H13Y22108   0.849   5.963   8.132  0.0071 -0.0618  0.8157
  191POPC  C31422109   0.809   5.760   8.173  0.7058 -0.3143 -0.3140
  191POPC  H14X22110   0.909   5.737   8.215  0.8220  0.7225 -0.0253
  191POPC  H14Y22111   0.769   5.666   8.130  1.3782 -1.3086  1.1764
  191POPC  C31522112   0.712   5.782   8.285 -0.2951  0.0708  0.2332
  191POPC  H15X22113   0.605   5.790   8.255 -1.0097  0.3113  2.7191
  191POPC  H15Y22114   0.749   5.876   8.332  1.1965 -0.3037 -0.1793
  191POPC  C31622115   0.721   5.665   8.388  0.3175 -0.0641 -0.2358
  191POPC  H16X22116   0.665   5.578   8.348 -0.1257 -0.5390  1.3926
  191POPC  H16Y22117   0.676   5.702   8.482  0.2929 -1.7831  0.4433
  191POPC  H16Z22118   0.826   5.632   8.406 -0.1729 -2.0552 -0.9227
  192POPC     N22119   6.613   2.202   6.049 -0.0282  0.5470 -0.0853
  192POPC   C1222120   6.552   2.164   6.186  0.3700  0.6943  0.0839
  192POPC  H12A22121   6.624   2.169   6.266  0.8575 -0.2088 -0.2867
  192POPC  H12B22122   6.510   2.065   6.171  0.6813  0.8319 -1.7074
  192POPC   C1322123   6.735   2.120   6.029  0.2203  0.3370 -0.3779
  192POPC  H13A22124   6.770   2.137   5.928 -3.1554 -2.4297 -2.1325
  192POPC  H13B22125   6.809   2.146   6.103  1.3916 -0.0466 -1.3922
  192POPC  H13C22126   6.703   2.017   6.042  1.6814  0.3174  3.6061
  192POPC   C1422127   6.510   2.165   5.944 -0.8147 -0.1402 -0.0377
  192POPC  H14A22128   6.499   2.059   5.926  0.9111  0.1015 -2.7557
  192POPC  H14B22129   6.411   2.202   5.968 -1.4320 -1.1824 -0.8763
  192POPC  H14C22130   6.547   2.199   5.849 -1.7604  0.6552 -0.1294
  192POPC   C1522131   6.642   2.348   6.038  0.6180  0.1256  0.0945
  192POPC  H15A22132   6.566   2.418   6.072  0.2320  1.1734 -2.7849
  192POPC  H15B22133   6.665   2.375   5.936  1.0857 -0.0925  0.1423
  192POPC  H15C22134   6.737   2.373   6.083  0.8494 -0.1742 -0.2346
  192POPC   C1122135   6.421   2.256   6.231 -0.1339  0.3800  0.2259
  192POPC  H11A22136   6.455   2.361   6.242  1.8221 -0.3546  1.6101
  192POPC  H11B22137   6.407   2.234   6.339  0.4017 -0.1113  0.2014
  192POPC     P22138   6.216   2.093   6.194 -0.1238 -0.3844 -0.1332
  192POPC   O1322139   6.290   1.983   6.135 -0.6803  0.3257  0.9203
  192POPC   O1422140   6.076   2.113   6.154  0.0018  0.0311  0.2483
  192POPC   O1222141   6.299   2.227   6.160  0.1663  0.6437 -0.2245
  192POPC   O1122142   6.217   2.074   6.348  0.1958 -0.6856 -0.1592
  192POPC    C122143   6.148   2.161   6.437 -0.3645  0.2522  0.6018
  192POPC    HA22144   6.069   2.224   6.390  0.2115  0.1028 -0.5599
  192POPC    HB22145   6.221   2.231   6.482 -0.0359  0.0064  0.4514
  192POPC    C222146   6.077   2.088   6.559 -0.0760  1.1108 -0.3689
  192POPC    HS22147   6.032   2.170   6.619 -0.1783 -0.3407  1.5830
  192POPC   O2122148   6.180   2.010   6.623 -0.5414  0.2784  0.0567
  192POPC   C2122149   6.275   2.079   6.682 -1.0008 -0.0135 -0.5125
  192POPC   O2222150   6.277   2.196   6.711  0.3346  0.3019  0.0679
  192POPC   C2222151   6.383   1.995   6.709  0.2220 -0.0774 -0.3746
  192POPC   H2R22152   6.366   1.886   6.697  1.1759 -0.3533  0.6422
  192POPC   H2S22153   6.420   2.013   6.813 -2.7433  2.7655  0.2728
  192POPC    C322154   5.959   1.996   6.510 -0.2525 -0.2820 -0.3813
  192POPC    HX22155   6.007   1.905   6.469  2.2408  0.5108  0.7075
  192POPC    HY22156   5.913   2.046   6.422 -0.2944 -0.3574 -0.4017
  192POPC   O3122157   5.859   1.962   6.615  0.7775  0.3620 -0.2042
  192POPC   C3122158   5.764   2.054   6.644  0.6239 -0.1261 -0.4484
  192POPC   O3222159   5.771   2.172   6.608 -0.5758 -0.2477 -0.5128
  192POPC   C3222160   5.655   2.008   6.745  0.5235  0.0517  0.0750
  192POPC   H2X22161   5.587   1.941   6.688 -1.2534  1.7854  0.1260
  192POPC   H2Y22162   5.601   2.100   6.774  1.1601  0.7111 -0.8162
  192POPC   C2322163   6.509   2.020   6.619  0.4681  0.0461  0.9266
  192POPC   H3R22164   6.544   2.125   6.609 -2.3799  1.1495  2.2420
  192POPC   H3S22165   6.501   1.980   6.515 -1.8501 -0.5296  1.3091
  192POPC   C2422166   6.630   1.948   6.680  0.1884  0.2764  0.0575
  192POPC   H4R22167   6.690   1.904   6.598  1.5292  1.6748  0.2663
  192POPC   H4S22168   6.580   1.873   6.744 -1.0111 -0.8495 -2.1309
  192POPC   C2522169   6.724   2.049   6.756 -0.1990 -0.6843  0.2536
  192POPC   H5R22170   6.659   2.104   6.827  1.7391  0.2886  1.3208
  192POPC   H5S22171   6.775   2.125   6.693 -1.3546 -1.0782 -1.1877
  192POPC   C2622172   6.838   1.975   6.835  0.2524  0.4991  0.0965
  192POPC   H6R22173   6.911   1.933   6.763 -0.6747  0.4730 -0.8516
  192POPC   H6S22174   6.795   1.885   6.883  1.3862  0.4617  1.0503
  192POPC   C2722175   6.893   2.067   6.950 -0.0130  0.6209 -0.0280
  192POPC   H7R22176   6.799   2.113   6.987  0.4628  1.3523  0.2832
  192POPC   H7S22177   6.956   2.154   6.923  0.0713  0.6947  0.3949
  192POPC   C2822178   6.945   1.991   7.075  0.6625 -0.3733  0.0048
  192POPC   H8R22179   7.044   1.952   7.042  0.6838  1.8241 -2.6715
  192POPC   H8S22180   6.876   1.904   7.085 -1.4702  1.0591 -1.8260
  192POPC   C2922181   6.963   2.083   7.193  0.3418 -0.7392  0.0351
  192POPC   H9122182   7.019   2.176   7.177  0.7609 -0.8668  0.7049
  192POPC  C21022183   6.906   2.058   7.314  0.8793  0.4605 -0.0760
  192POPC  H10122184   6.908   2.138   7.389 -2.4894  1.5879 -1.0956
  192POPC  C21122185   6.809   1.942   7.343 -0.4561 -0.5614 -0.0545
  192POPC  H11R22186   6.849   1.842   7.316 -2.4137 -1.4391  0.2075
  192POPC  H11S22187   6.726   1.954   7.269 -0.9404 -0.1252  0.5557
  192POPC  C21222188   6.744   1.943   7.482  0.3815  0.1447 -0.4048
  192POPC  H12R22189   6.649   1.886   7.474  0.4333  0.4053 -3.4044
  192POPC  H12S22190   6.710   2.045   7.508  0.7353  0.6287 -1.8135
  192POPC  C21322191   6.827   1.876   7.592  0.2480 -0.9309  0.2342
  192POPC  H13R22192   6.930   1.916   7.600 -0.4453  0.7359  1.1676
  192POPC  H13S22193   6.844   1.769   7.567  0.4020 -0.7890 -0.2731
  192POPC  C21422194   6.755   1.904   7.728  0.5639  0.1251 -0.0971
  192POPC  H14R22195   6.674   1.830   7.742  1.5633 -0.8581  0.6099
  192POPC  H14S22196   6.704   2.001   7.745  1.3037  0.0628  2.7073
  192POPC  C21522197   6.855   1.892   7.849  0.7624 -0.0993  0.5196
  192POPC  H15R22198   6.931   1.972   7.853  2.0279 -1.3447  4.3191
  192POPC  H15S22199   6.913   1.798   7.835  0.4924 -0.5490  2.2138
  192POPC  C21622200   6.777   1.878   7.982 -0.7415  0.3802  0.0204
  192POPC  H16R22201   6.706   1.793   7.974  0.4681 -0.5780 -0.6306
  192POPC  H16S22202   6.720   1.968   8.014  0.5029  0.9192  0.7317
  192POPC  C21722203   6.883   1.830   8.083  0.7986  0.4929  0.2887
  192POPC  H17R22204   6.966   1.903   8.071  0.6127  0.4599 -1.3969
  192POPC  H17S22205   6.911   1.728   8.049 -0.7717  0.0855  0.1953
  192POPC  C21822206   6.850   1.820   8.234  0.0361  0.5034  0.3048
  192POPC  H18R22207   6.943   1.800   8.292  0.5879 -0.4492 -0.8977
  192POPC  H18S22208   6.771   1.744   8.253 -0.3667  1.0308  0.7821
  192POPC  H18T22209   6.809   1.918   8.269 -3.1740 -0.5910 -0.2486
  192POPC   C3322210   5.708   1.935   6.868  0.1167  0.3229  0.0731
  192POPC   H3X22211   5.787   1.857   6.855  1.3260  1.3777  0.9297
  192POPC   H3Y22212   5.619   1.881   6.906  1.7228 -0.3360  3.0820
  192POPC   C3422213   5.743   2.035   6.983  0.4943  0.8657 -0.0327
  192POPC   H4X22214   5.664   2.113   6.977 -1.1490 -0.8029 -0.4865
  192POPC   H4Y22215   5.843   2.076   6.960  0.4728  1.2878  0.6060
  192POPC   C3522216   5.748   1.962   7.113 -0.2299  0.6395 -0.7031
  192POPC   H5X22217   5.823   1.881   7.124  0.4448  1.0895 -1.9206
  192POPC   H5Y22218   5.644   1.925   7.129  0.5604 -2.1308 -1.7492
  192POPC   C3622219   5.773   2.064   7.233 -0.1570  0.7120  0.1839
  192POPC   H6X22220   5.686   2.132   7.236  0.0394  0.8966  2.1044
  192POPC   H6Y22221   5.864   2.115   7.195 -0.1821  0.3621 -0.3591
  192POPC   C3722222   5.792   1.991   7.365  0.2216 -0.4370  0.7680
  192POPC   H7X22223   5.865   1.907   7.361 -0.5825 -1.1289  0.4407
  192POPC   H7Y22224   5.694   1.947   7.393  1.2464 -2.4534  1.2971
  192POPC   C3822225   5.825   2.082   7.478 -0.4179 -0.9425  0.6724
  192POPC   H8X22226   5.768   2.175   7.457  0.5332 -0.9110 -1.9213
  192POPC   H8Y22227   5.933   2.106   7.476 -0.5324 -0.4919 -0.2489
  192POPC   C3922228   5.776   2.043   7.611 -0.5553  0.2448 -0.6438
  192POPC   H9X22229   5.834   1.951   7.634  0.6522  0.6974 -1.8025
  192POPC   H9Y22230   5.667   2.021   7.604 -0.2811 -2.5743  2.5364
  192POPC  C31022231   5.798   2.148   7.722 -0.2815  0.6442  0.3898
  192POPC  H10X22232   5.746   2.241   7.691 -1.5236 -0.1580  0.0452
  192POPC  H10Y22233   5.905   2.177   7.723 -0.4517  1.4219 -1.9098
  192POPC  C31122234   5.761   2.110   7.864  0.2031  0.2272  0.0392
  192POPC  H11X22235   5.827   2.023   7.886 -1.5859 -1.2450 -0.2565
  192POPC  H11Y22236   5.656   2.071   7.864 -0.4775  2.0083 -0.2257
  192POPC  C31222237   5.777   2.217   7.972 -0.0831  0.0249 -0.2919
  192POPC  H12X22238   5.694   2.289   7.990  0.9701  1.6061 -1.6302
  192POPC  H12Y22239   5.866   2.272   7.934 -1.5413  0.7784 -2.7900
  192POPC  C31322240   5.807   2.145   8.107 -0.8964 -0.5239 -0.3333
  192POPC  H13X22241   5.857   2.209   8.182  0.4376 -0.4964 -1.2097
  192POPC  H13Y22242   5.878   2.061   8.087 -1.2857 -1.3722  1.7169
  192POPC  C31422243   5.682   2.098   8.181 -0.1854 -0.4189  0.4742
  192POPC  H14X22244   5.635   2.028   8.109 -1.3201  0.1802  0.6267
  192POPC  H14Y22245   5.611   2.182   8.194  1.2128  0.6882  1.0376
  192POPC  C31522246   5.698   2.044   8.315  0.5285 -0.4762  0.1943
  192POPC  H15X22247   5.774   1.963   8.310  3.7144  2.5234 -1.4474
  192POPC  H15Y22248   5.603   1.999   8.350 -0.0449 -0.5947 -1.4322
  192POPC  C31622249   5.742   2.155   8.414 -0.3928 -0.1329  0.3518
  192POPC  H16X22250   5.653   2.220   8.422  0.0048  0.4044  0.4410
  192POPC  H16Y22251   5.819   2.229   8.383 -0.0771 -0.2845  0.7627
  192POPC  H16Z22252   5.753   2.117   8.518  0.5351 -0.5431  0.1097
  193SOD    SOD22253   3.417   5.106  12.000 -0.1812 -0.1961  0.2145
  194SOD    SOD22254   2.953   5.125   0.572 -0.3334 -0.0633 -0.4238
  195SOD    SOD22255   6.559   4.732  12.526  0.1552 -0.0671 -0.2282
  196SOD    SOD22256   4.049   1.118   3.432 -0.5281  0.2658 -0.1170
  197SOD    SOD22257   1.276   6.674   5.940  0.2410  0.1208  0.3434
  198SOD    SOD22258   4.828   5.553   2.902 -0.0879 -0.5020 -0.1504
  199SOD    SOD22259   1.288   5.253  16.527 -0.2355 -0.3764 -0.0545
  200SOD    SOD22260   0.635   2.918   2.148  0.2552  0.5082  0.1483
  201SOD    SOD22261   2.028   5.697   0.103  0.0998 -0.2946  0.5061
  202SOD    SOD22262   0.033   1.174   3.515 -0.0327  0.7542  0.2254
  203SOD    SOD22263   2.412   4.588  10.998 -0.3833 -0.4821 -0.4232
  204SOD    SOD22264   0.975   6.543   6.221 -0.1779 -0.1919 -0.1877
  205SOD    SOD22265   1.071   4.851  11.239  0.1696  0.2709  0.6417
  206SOD    SOD22266   6.019   2.335   4.565  0.6494  0.8868 -0.3715
  207SOD    SOD22267   6.223   4.940  15.281  0.1397 -0.2254  0.0672
  208SOD    SOD22268   3.719   0.082  15.513 -0.0609 -0.3963 -0.2099
  209SOD    SOD22269   1.426   5.012  10.758 -0.7060  0.0798  0.2741
  210SOD    SOD22270   1.191   2.941  11.840  0.0836  0.2228 -0.3841
  211SOD    SOD22271   6.340   0.372   1.510 -1.1136  0.0445 -0.1123
  212SOD    SOD22272   1.605   4.090   5.788  0.4587 -0.3066  0.4531
  213SOD    SOD22273   0.886   1.352  16.132 -0.2990 -0.0351 -0.3606
  214SOD    SOD22274   6.469   3.523   5.436 -0.4319 -0.2899 -0.3992
  215SOD    SOD22275   6.416   3.065   3.884  0.5284  0.4406  0.3868
  216SOD    SOD22276   2.663   5.553   3.067  0.3247 -0.1140 -0.1382
  217SOD    SOD22277   4.319   6.761  16.005  0.0131 -0.3914 -0.1612
  218SOD    SOD22278   2.606   1.697   2.565 -0.0935  0.2431  0.0136
  219SOD    SOD22279   3.559   6.541   4.458  0.0031  0.3123  0.4715
  220SOD    SOD22280   2.644   2.167   2.175  0.3996  0.1705 -0.4651
  221SOD    SOD22281   4.622   3.357  14.516 -0.1038 -0.3151 -0.5461
  222SOD    SOD22282   6.728   3.733  10.858  0.2789 -0.5654  0.0577
  223SOD    SOD22283   6.576   5.247   1.931 -0.4749  0.1143 -0.1104
  224SOD    SOD22284   2.152   0.440   0.370  0.7605 -0.0448 -0.1145
  225SOD    SOD22285   3.383   2.051  13.324  0.0554  0.1385 -0.2598
  226SOD    SOD22286   2.298   0.829  12.256 -0.1823 -0.0778  0.6170
  227SOD    SOD22287   3.912   3.417   3.225  0.5574 -0.4591  0.0904
  228SOD    SOD22288   1.602   1.473  13.512 -0.2254 -0.1067  0.3218
  229SOD    SOD22289   6.277   0.218   3.998  0.1338 -0.3047  0.4034
  230SOD    SOD22290   2.128   6.482  12.010  0.0081 -0.5832 -0.0733
  231SOD    SOD22291   0.765   2.571  13.831 -0.0495 -0.2390  0.4541
  232SOD    SOD22292   0.218   3.662   0.258  0.2740 -0.6413  0.5507
  233SOD    SOD22293   5.992   1.742  10.536 -0.2492  0.4374 -0.3851
  234SOD    SOD22294   5.112   4.632   3.190  0.0359 -0.1890 -0.3291
  235SOD    SOD22295   6.123   1.004  12.743 -0.4360 -0.2501 -0.5053
  236SOD    SOD22296   3.856   4.511  11.108 -0.4255 -0.1322 -0.2849
  237SOD    SOD22297   5.259   1.385   2.829 -0.0468  0.0112  0.1405
  238SOD    SOD22298   6.273   2.895  13.146  0.0409 -0.6106  0.0996
  239SOD    SOD22299   2.160   2.520  16.229 -0.1801  0.5687  0.4629
  240SOD    SOD22300   1.626   0.579  17.039  0.4181  0.0007  0.2966
  241SOD    SOD22301   5.309   3.541  11.328 -0.1412  0.0446 -0.5170
  242SOD    SOD22302   0.439   4.964   4.815 -0.4882 -0.3908  0.0827
  243SOD    SOD22303   2.781   0.278  16.948  0.4891  0.3198 -0.4610
  244SOD    SOD22304   1.808   4.068  15.209 -0.4070 -0.1723 -0.4886
  245SOD    SOD22305   0.132   6.175   0.322  0.4027  0.0037 -0.0320
  246SOD    SOD22306   1.665   1.587   5.676  0.0031 -0.3833 -0.2072
  247SOD    SOD22307   0.880   5.938  14.728 -0.0461  0.3438 -0.4395
  248SOD    SOD22308   4.363   1.561  12.899 -0.0667  0.2178  0.0709
  249SOD    SOD22309   5.246   0.313  13.040  0.2740 -0.2303 -0.4724
  250SOD    SOD22310   6.452   4.650   6.544 -0.3431  0.1678 -0.3930
  251SOD    SOD22311   2.688   1.664   6.167 -0.4292  0.0764  0.2127
  252SOD    SOD22312   2.412   1.271   1.079 -0.0743  0.0593 -0.5829
  253SOD    SOD22313   4.298   5.692   6.267 -0.0974  0.4974  0.2122
  254SOD    SOD22314   2.937   0.418   5.995 -0.4808 -0.6022  0.1578
  255SOD    SOD22315   5.291   0.679  11.639 -0.2572 -0.2362  0.4099
  256SOD    SOD22316   0.598   2.453  11.108 -0.1328 -0.2818 -0.4912
  257SOD    SOD22317   2.735   1.956  11.311  0.0849  0.5484 -0.7375
  258SOD    SOD22318   5.071   2.026  16.878  0.2660  0.4443 -0.0812
  259SOD    SOD22319   3.838   6.418   0.017 -0.6318 -0.5074  0.1954
  260SOD    SOD22320   0.948   0.345   1.652  0.0864 -0.2910 -0.0007
  261SOD    SOD22321   6.335   1.116   3.857 -0.2306  0.2887 -0.1043
  262SOD    SOD22322   0.989   0.152  13.598  0.0822 -0.0916 -0.0759
  263SOD    SOD22323   0.935   1.871  11.183  0.0875  0.5988 -0.0965
  264SOD    SOD22324   5.815   6.205   6.067 -0.0705  0.0291  0.5801
  265SOD    SOD22325   3.520   4.917   1.616  0.3149 -0.0357 -0.2962
  266SOD    SOD22326   4.713   5.565  11.185  0.2213  0.2170  0.0585
  267SOD    SOD22327   6.231   1.766   3.968  0.1216 -0.0912  0.2913
  268SOD    SOD22328   0.093   4.367  10.747 -0.3077  0.0361 -0.8343
  269SOD    SOD22329   0.682   0.302  16.689  0.0751  0.0707 -0.0995
  270CLA    CLA22330   6.395   4.577  15.089  0.3111 -0.1674 -0.0331
  271CLA    CLA22331   1.035   2.051  12.165 -0.1364  0.4113 -0.0080
  272CLA    CLA22332   4.738   2.764  15.677 -0.0104  0.0968  0.3005
  273CLA    CLA22333   0.759   5.878   3.958  0.1414 -0.1157  0.3465
  274CLA    CLA22334   3.896   2.521  14.149  0.0632  0.5325 -0.0577
  275CLA    CLA22335   4.828   6.051  15.367  0.3278  0.0822 -0.5131
  276CLA    CLA22336   5.670   1.003   1.825  0.1004 -0.3562 -0.0982
  277CLA    CLA22337   6.719   1.163   2.065 -0.7312 -0.2391 -0.4469
  278CLA    CLA22338   4.310   1.505   2.544 -0.2058  0.1498 -0.2203
  279CLA    CLA22339   2.171   4.379  15.292  0.5035  0.1159 -0.2614
  280CLA    CLA22340   4.975   3.568  13.906  0.1196 -0.3701 -0.1602
  281CLA    CLA22341   3.391   3.220  15.268 -0.0379  0.0824  0.3074
  282CLA    CLA22342   2.753   4.122  15.801 -0.3184  0.3325 -0.0648
  283CLA    CLA22343   1.452   1.595  14.377 -0.0290 -0.0854  0.4369
  284CLA    CLA22344   3.243   2.037   1.882  0.4789  0.4757  0.1253
  285CLA    CLA22345   6.079   3.318  15.557  0.3760  0.2563 -0.7695
  286CLA    CLA22346   6.610   0.578   4.180  0.1943 -0.1321 -0.3929
  287CLA    CLA22347   4.141   1.457  13.356  0.1044 -0.0913  0.1165
  288CLA    CLA22348   2.521   0.299   0.077  0.1461  0.1915 -0.4669
  289CLA    CLA22349   5.775   5.208   3.450  0.0615 -0.3791 -0.3430
  290CLA    CLA22350   1.016   0.420  15.839 -0.2728  0.3972 -0.3224
  291CLA    CLA22351   4.487   3.488   3.193  0.3945  0.3692 -0.3411
  292CLA    CLA22352   5.795   2.926   3.910 -0.1090 -0.2913  0.3218
  293CLA    CLA22353   0.165   3.615  10.897  0.2338  0.3498 -0.2935
  294CLA    CLA22354   1.228   0.015   0.656 -0.0599  0.3431  0.4351
  295CLA    CLA22355   5.568   0.784   3.599  0.2381  0.0396 -0.3842
  296CLA    CLA22356   1.319   1.349  11.365  0.1328  0.2170 -0.0116
  297CLA    CLA22357   4.127   4.596   2.294 -0.2056  0.1004 -0.3610
  298CLA    CLA22358   0.886   6.088  11.458 -0.0935  0.1247 -0.1406
  299CLA    CLA22359   1.972   2.469   5.515 -0.2090  0.0846 -0.0903
  300CLA    CLA22360   5.090   4.056  14.506 -0.0935  0.2699 -0.3812
  301CLA    CLA22361   2.275   3.533  13.443 -0.0102 -0.4677  0.2019
  302CLA    CLA22362   1.074   0.490  12.620  0.1307 -0.4326  0.2546
  303CLA    CLA22363   0.229   0.886   0.018  0.0175 -0.1813  0.2159
  304CLA    CLA22364   3.646   0.938  15.947 -0.3453  0.1530 -0.1499
  305CLA    CLA22365   6.382   4.497   0.388  0.3225  0.3270 -0.1420
  306CLA    CLA22366   3.071   5.580   0.462 -0.1985  0.2629 -0.4260
  307CLA    CLA22367   2.427   2.438   4.044  0.1271  0.1921  0.1982
  308CLA    CLA22368   2.785   0.637  16.069 -0.2400  0.1383  0.0244
  309CLA    CLA22369   1.624   3.038  16.695  0.2369  0.3701 -0.0200
  310CLA    CLA22370   6.611   1.542  12.962  0.5053  0.1435 -0.2102
  311CLA    CLA22371   6.095   0.062  16.593 -0.3681  0.0544 -0.0389
  312CLA    CLA22372   3.899   3.912  16.502  0.4826 -0.1279  0.2275
  313CLA    CLA22373   3.693   0.055  16.568 -0.0068 -0.2788  0.1146
  314CLA    CLA22374   5.838   2.652   3.209  0.1011  0.2521  0.1934
  315CLA    CLA22375   0.938   0.396  11.932  0.0112  0.1839 -0.2380
  316CLA    CLA22376   6.753   2.500  11.311  0.0757  0.3353 -0.5518
  317CLA    CLA22377   1.447   3.524   1.574  0.0738 -0.2938  0.3281
  318CLA    CLA22378   6.431   5.453  16.590  0.2410  0.2962 -0.2602
  319CLA    CLA22379   3.615   1.944   3.675  0.1981  0.5335  0.0973
  320CLA    CLA22380   4.341   1.047   4.512  0.2489  0.0533  0.0513
  321CLA    CLA22381   1.393   0.095   1.890  0.1622 -0.1682 -0.5205
  322CLA    CLA22382   6.489   5.068  13.253 -0.2704  0.0755 -0.3822
  323TIP3   OH222383   3.346   2.140   4.759 -0.1382  0.1200 -0.0143
  323TIP3    H122384   3.390   2.208   4.708  0.6365 -1.0099 -0.8910
  323TIP3    H222385   3.399   2.131   4.838 -0.0925  0.3456 -0.0192
  324TIP3   OH222386   1.981   0.187   2.268 -0.9055 -0.5819 -0.6528
  324TIP3    H122387   1.898   0.222   2.238 -0.3647  0.9215 -0.4266
  324TIP3    H222388   1.991   0.222   2.357  0.2270 -0.2989 -0.8882
  325TIP3   OH222389   3.750   6.153  15.934 -0.5067  0.7103 -0.2993
  325TIP3    H122390   3.683   6.205  15.890 -0.6010  0.4595 -0.4554
  325TIP3    H222391   3.706   6.120  16.013 -0.4243  0.9301 -0.1627
  326TIP3   OH222392   4.528   1.055   0.658 -0.0564  0.1250 -0.3256
  326TIP3    H122393   4.526   1.007   0.741  1.2303 -0.2144 -0.4680
  326TIP3    H222394   4.439   1.086   0.645 -0.5555 -0.9183  0.5510
  327TIP3   OH222395   1.383   1.821   2.080  0.5062  0.0648  0.3026
  327TIP3    H122396   1.373   1.898   2.136  0.4821 -0.3587  0.8791
  327TIP3    H222397   1.294   1.801   2.051  0.5851  0.6051 -0.3184
  328TIP3   OH222398   3.643   5.937  14.407 -0.2336  0.1952 -0.5966
  328TIP3    H122399   3.620   5.845  14.397  0.2889 -0.2150  1.5899
  328TIP3    H222400   3.738   5.938  14.419  0.0293  1.2186 -2.5633
  329TIP3   OH222401   0.861   1.804   0.526  0.2623  0.4510 -0.0287
  329TIP3    H122402   0.932   1.749   0.558  1.5524  2.3404  0.4469
  329TIP3    H222403   0.905   1.879   0.485 -1.4503  1.8146  0.5690
  330TIP3   OH222404   5.119   0.389  15.631 -0.8281  0.4057 -0.6139
  330TIP3    H122405   5.196   0.445  15.641  0.2714 -0.8567 -1.7838
  330TIP3    H222406   5.045   0.448  15.642  0.2849  1.4241  1.7932
  331TIP3   OH222407   2.612   2.006  12.920  0.2083  0.3686  0.2245
  331TIP3    H122408   2.648   1.918  12.927 -2.8055 -1.0059 -0.7088
  331TIP3    H222409   2.631   2.034  12.831  2.0295  1.0996  0.8191
  332TIP3   OH222410   0.681   0.424  16.504 -0.3940  0.1215  0.0993
  332TIP3    H122411   0.746   0.373  16.455  0.6625  0.5719  1.0244
  332TIP3    H222412   0.703   0.515  16.486 -0.4598  0.2800  0.8132
  333TIP3   OH222413   0.169   1.245  11.989 -0.4296 -0.2535  0.2485
  333TIP3    H122414   0.220   1.263  12.068 -1.1829  1.3151  0.3935
  333TIP3    H222415   0.172   1.327  11.939 -2.7682 -0.1303  0.2460
  334TIP3   OH222416   6.093   3.844   2.902 -0.2365 -0.3781  0.3052
  334TIP3    H122417   6.041   3.924   2.906 -0.6570 -0.6479  0.2511
  334TIP3    H222418   6.148   3.846   2.980 -0.6801 -0.3353  0.6152
  335TIP3   OH222419   2.771   5.357   4.793 -0.0190  0.1381  0.0669
  335TIP3    H122420   2.781   5.449   4.816  1.5995  0.5229 -2.0157
  335TIP3    H222421   2.677   5.344   4.782 -0.0810  2.2030 -2.1096
  336TIP3   OH222422   1.612   0.267  13.503 -0.0109 -0.1765  0.5223
  336TIP3    H122423   1.700   0.230  13.497 -0.2538 -0.4020 -2.8027
  336TIP3    H222424   1.554   0.196  13.476 -0.9381  0.8652 -0.2888
  337TIP3   OH222425   1.354   6.666   3.556 -0.0522  0.5315 -0.0670
  337TIP3    H122426   1.334   6.734   3.620 -0.5592  0.4582 -0.1438
  337TIP3    H222427   1.274   6.613   3.550  0.4017 -0.1955  0.1438
  338TIP3   OH222428   6.680   4.494  13.823  0.0716  0.0050 -0.2648
  338TIP3    H122429   6.623   4.546  13.766 -0.0844 -0.5175 -0.5799
  338TIP3    H222430   6.622   4.464  13.893  0.5532  1.8076  0.9368
  339TIP3   OH222431   2.038   0.204  10.521 -0.0313  0.0535  0.0836
  339TIP3    H122432   1.962   0.151  10.542 -0.7831  0.9774 -0.2511
  339TIP3    H222433   2.023   0.286  10.568 -0.1672  0.9350 -1.4619
  340TIP3   OH222434   5.120   3.006  11.770  0.4311 -0.4850 -0.3531
  340TIP3    H122435   5.136   3.093  11.806 -1.5996  0.0384 -0.6826
  340TIP3    H222436   5.080   3.022  11.684 -3.8608 -1.6767  1.2977
  341TIP3   OH222437   0.383   2.605  16.951  1.0843  0.0076 -0.0018
  341TIP3    H122438   0.397   2.570  16.863  0.1605 -2.9951  0.9901
  341TIP3    H222439   0.333   2.537  16.996 -2.2343  3.3285  1.5553
  342TIP3   OH222440   2.081   3.935   3.162 -0.3190 -0.4973 -0.8851
  342TIP3    H122441   2.125   3.975   3.087 -1.0488 -0.0183 -1.0616
  342TIP3    H222442   2.053   4.010   3.216 -1.5031 -0.7659 -1.1066
  343TIP3   OH222443   2.275   1.606  14.149 -0.2849 -0.6185  0.2776
  343TIP3    H122444   2.214   1.680  14.154 -1.6738 -1.5793 -1.7830
  343TIP3    H222445   2.232   1.537  14.200  1.0144 -0.0555  2.2023
  344TIP3   OH222446   6.304   2.793   4.187  0.1081  0.0179  0.2186
  344TIP3    H122447   6.230   2.760   4.137  0.3936 -0.1149 -0.1258
  344TIP3    H222448   6.267   2.822   4.270 -0.0558 -1.8213  0.8239
  345TIP3   OH222449   1.036   2.373   3.557  0.0486  0.4925 -0.1723
  345TIP3    H122450   0.983   2.397   3.481 -0.2242 -0.0894 -0.1674
  345TIP3    H222451   0.987   2.303   3.600  0.6207  0.2253  0.0592
  346TIP3   OH222452   1.305   5.953   1.583 -0.0349 -0.4652  0.2017
  346TIP3    H122453   1.246   6.028   1.579  1.1919  0.5753  1.1698
  346TIP3    H222454   1.354   5.956   1.501 -0.2114 -0.3966  0.0989
  347TIP3   OH222455   2.781   1.288   4.899 -0.0905  0.0592 -0.0947
  347TIP3    H122456   2.791   1.297   4.994 -1.4175 -1.4961  0.2163
  347TIP3    H222457   2.858   1.239   4.872 -1.2726 -2.2833  0.6711
  348TIP3   OH222458   2.248   1.289   3.509  0.2359  0.7320  0.6477
  348TIP3    H122459   2.327   1.261   3.555  1.1141  0.3661 -1.0054
  348TIP3    H222460   2.183   1.223   3.529  1.7246 -1.5428 -1.6429
  349TIP3   OH222461   6.067   6.301  14.727  0.5891 -0.2385  0.3711
  349TIP3    H122462   6.083   6.389  14.694  2.0518 -1.1575 -1.4766
  349TIP3    H222463   6.016   6.259  14.657 -1.2904 -0.4615  1.8339
  350TIP3   OH222464   0.146   4.031  11.140 -0.0672 -0.5929  0.0138
  350TIP3    H122465   0.141   4.012  11.047 -0.9104 -2.2442  0.3848
  350TIP3    H222466   0.055   4.035  11.169  0.2153 -1.7899  1.0966
  351TIP3   OH222467   2.598   1.399  11.742 -0.2437  0.5217  0.0695
  351TIP3    H122468   2.579   1.399  11.648  0.5935  3.3519 -0.1554
  351TIP3    H222469   2.681   1.446  11.748  0.1272 -0.3739  2.1817
  352TIP3   OH222470   3.114   6.758   4.307  0.2730  0.5503 -0.4504
  352TIP3    H122471   3.073   6.804   4.233  0.5213  2.1350  0.3810
  352TIP3    H222472   3.133   6.827   4.370 -1.0038 -0.9377  1.6207
  353TIP3   OH222473   2.843   1.612  14.259 -0.4471  0.0814 -0.7220
  353TIP3    H122474   2.891   1.691  14.235 -0.1763 -0.1682 -1.0153
  353TIP3    H222475   2.754   1.627  14.228  0.0137 -0.4365 -2.3587
  354TIP3   OH222476   4.973   0.954   5.533 -0.5585  0.2766 -0.0415
  354TIP3    H122477   4.924   0.988   5.607  1.4730 -0.5435  1.7275
  354TIP3    H222478   4.995   0.864   5.557 -0.1574 -0.1206 -1.7904
  355TIP3   OH222479   2.704   3.907  14.037  0.0354  0.1206  0.2965
  355TIP3    H122480   2.637   3.918  13.970 -0.2994 -0.1816  0.5788
  355TIP3    H222481   2.658   3.926  14.120  0.3291  0.0409  0.4780
  356TIP3   OH222482   3.957   3.430   1.530  0.3849  0.7773 -0.0503
  356TIP3    H122483   4.053   3.434   1.537  0.4705 -1.6135  0.4342
  356TIP3    H222484   3.927   3.511   1.571  2.1478  0.9667  0.9221
  357TIP3   OH222485   0.124   5.496  11.981 -0.6036  0.2192  0.2241
  357TIP3    H122486   0.179   5.546  11.920  0.0655  1.9080  2.1690
  357TIP3    H222487   0.137   5.539  12.065 -2.4290 -1.3755  1.3406
  358TIP3   OH222488   1.129   5.148   5.952  0.1914 -0.1894 -0.8470
  358TIP3    H122489   1.044   5.113   5.925  0.3954 -0.3427 -1.2789
  358TIP3    H222490   1.109   5.197   6.032 -0.2738 -0.3770 -0.8436
  359TIP3   OH222491   5.735   0.074  13.703 -0.1026  0.2242  0.3506
  359TIP3    H122492   5.745  -0.020  13.688  0.6722  0.5751 -1.4330
  359TIP3    H222493   5.747   0.084  13.797 -1.8730 -1.6601  0.8148
  360TIP3   OH222494   6.778   4.297  14.931 -0.1284 -0.2067  0.0853
  360TIP3    H122495   6.813   4.281  15.019  0.8513 -1.4089 -0.5144
  360TIP3    H222496   6.752   4.389  14.932  1.3152  0.2069  1.1491
  361TIP3   OH222497   6.185   1.837   0.796  0.1187  0.0664 -0.0938
  361TIP3    H122498   6.236   1.822   0.717 -0.5595 -2.1781 -0.1634
  361TIP3    H222499   6.116   1.770   0.793  0.2670 -0.2761  2.5387
  362TIP3   OH222500   5.017   2.810  16.196 -0.2322  0.0499  0.7892
  362TIP3    H122501   4.953   2.755  16.150 -0.0322  0.0932  0.4583
  362TIP3    H222502   4.995   2.899  16.169 -1.9968  0.3745  3.0713
  363TIP3   OH222503   4.401   5.501   1.161  0.4858  0.6821  0.0786
  363TIP3    H122504   4.381   5.415   1.125  0.9358  0.8066 -0.4911
  363TIP3    H222505   4.455   5.484   1.238 -0.2455  0.4207  0.5306
  364TIP3   OH222506   6.587   5.184  16.502  0.4742  0.4187  0.2484
  364TIP3    H122507   6.678   5.191  16.527 -0.1970  0.4635  2.7488
  364TIP3    H222508   6.557   5.274  16.492  0.9636  0.4011 -1.7256
  365TIP3   OH222509   4.506   2.375  16.154 -0.3289  0.0602  0.2280
  365TIP3    H122510   4.438   2.355  16.219  0.3895 -0.6531  0.7578
  365TIP3    H222511   4.584   2.394  16.206 -0.0462  0.6397 -0.3936
  366TIP3   OH222512   4.442   6.562   0.016  0.6532 -0.3183  0.2971
  366TIP3    H122513   4.450   6.656   0.034  1.2204 -0.1292 -0.8753
  366TIP3    H222514   4.492   6.520   0.086  3.2462  0.4101 -1.0353
  367TIP3   OH222515   4.546   2.838   0.297 -0.1209 -0.1115  0.2344
  367TIP3    H122516   4.557   2.900   0.225  0.8925 -1.4435 -0.7681
  367TIP3    H222517   4.453   2.816   0.296 -0.4977  1.4069  0.6185
  368TIP3   OH222518   4.275   2.598  12.231 -0.0690  0.3488 -0.1314
  368TIP3    H122519   4.364   2.603  12.197 -0.2105  0.6670 -0.4729
  368TIP3    H222520   4.234   2.680  12.201 -0.0967  0.7904  1.1104
  369TIP3   OH222521   1.515   0.636  16.599  0.3126  0.3917  0.1110
  369TIP3    H122522   1.542   0.673  16.683 -0.9196  0.3809  0.5128
  369TIP3    H222523   1.491   0.713  16.545 -0.3512  0.3114  0.2848
  370TIP3   OH222524   1.349   3.991   4.200  0.0678  0.6867 -0.1266
  370TIP3    H122525   1.317   4.033   4.121  1.0155  0.2629 -0.7448
  370TIP3    H222526   1.414   4.052   4.235  0.5672  0.2927 -0.3662
  371TIP3   OH222527   3.491   3.850  11.631  0.4943  0.2462  0.4092
  371TIP3    H122528   3.419   3.899  11.670  0.7135 -0.4918  1.7713
  371TIP3    H222529   3.449   3.794  11.566 -0.0595  0.4504  0.5874
  372TIP3   OH222530   2.751   6.181   3.773 -0.0993  0.1118 -0.4897
  372TIP3    H122531   2.820   6.202   3.710 -0.9768 -0.5085 -1.6731
  372TIP3    H222532   2.735   6.264   3.819  0.4331  0.6095 -1.1817
  373TIP3   OH222533   4.416   0.574  15.710 -0.5181  0.1801  0.2997
  373TIP3    H122534   4.475   0.530  15.649  0.2696  0.1701  1.0553
  373TIP3    H222535   4.344   0.606  15.656 -0.9884 -1.8329 -0.2836
  374TIP3   OH222536   0.785   3.221   3.662 -0.0825  0.3977  0.3607
  374TIP3    H122537   0.695   3.228   3.631 -0.2166  0.6006  0.7828
  374TIP3    H222538   0.782   3.152   3.729  0.0312  0.5485  0.5241
  375TIP3   OH222539   5.394   2.424   3.616 -0.7217 -0.3520 -0.2399
  375TIP3    H122540   5.428   2.502   3.573 -0.4558  0.3197  1.1580
  375TIP3    H222541   5.467   2.362   3.615 -0.3265  0.1045  0.3392
  376TIP3   OH222542   5.972   0.550  14.828 -0.5229 -0.5239  0.2184
  376TIP3    H122543   5.928   0.540  14.912  0.1453  2.1420  0.9409
  376TIP3    H222544   5.901   0.551  14.764 -1.2825  0.5338  1.0554
  377TIP3   OH222545   0.174   3.141  11.232  0.1694 -0.5629 -0.0731
  377TIP3    H122546   0.193   3.076  11.164  0.8767 -1.1352  0.6754
  377TIP3    H222547   0.144   3.218  11.183 -0.4444 -1.3638 -0.9737
  378TIP3   OH222548   0.649   4.473  12.845  0.1254 -0.6190  0.5077
  378TIP3    H122549   0.645   4.415  12.921 -0.0504 -0.2190  0.8049
  378TIP3    H222550   0.741   4.499  12.839  0.2852 -1.2865  0.1034
  379TIP3   OH222551   5.540   1.710  13.554 -0.2877 -0.4550  0.1042
  379TIP3    H122552   5.473   1.659  13.509 -1.9829  2.3694 -0.7316
  379TIP3    H222553   5.595   1.744  13.484 -1.7985  2.3929  0.2172
  380TIP3   OH222554   1.843   6.175   1.667  0.0903  0.0941  0.5001
  380TIP3    H122555   1.773   6.150   1.607  0.1706  0.8220  0.0944
  380TIP3    H222556   1.798   6.216   1.740  0.0383 -0.1452  0.6011
  381TIP3   OH222557   3.955   3.113  16.305 -1.1268  0.1834 -0.3393
  381TIP3    H122558   4.046   3.105  16.334 -1.3213 -1.3851 -0.0984
  381TIP3    H222559   3.961   3.138  16.213 -0.4342 -0.6416 -0.5292
  382TIP3   OH222560   2.572   5.140   1.225  0.2541  0.6816 -0.0041
  382TIP3    H122561   2.633   5.200   1.182 -0.0331  1.3790  0.5433
  382TIP3    H222562   2.490   5.190   1.230 -0.6949 -0.6705 -1.7981
  383TIP3   OH222563   0.867   2.323   3.313 -0.1398  0.1149  0.4490
  383TIP3    H122564   0.947   2.350   3.268 -0.5023 -1.0320 -0.9392
  383TIP3    H222565   0.832   2.253   3.258 -1.8540  0.2979  1.2866
  384TIP3   OH222566   5.687   4.249  16.949  0.1542 -0.0635 -0.4452
  384TIP3    H122567   5.617   4.313  16.957 -1.2522 -1.2577 -2.5941
  384TIP3    H222568   5.669   4.184  17.017 -0.5756 -0.1222 -0.6914
  385TIP3   OH222569   3.452   6.731   4.742  0.3927  0.3757 -0.0803
  385TIP3    H122570   3.501   6.657   4.779 -0.8155 -0.6572 -0.4912
  385TIP3    H222571   3.361   6.711   4.763  0.0600  1.8174 -0.1208
  386TIP3   OH222572   5.463   0.469   2.573  0.5187  0.0843  0.1165
  386TIP3    H122573   5.460   0.431   2.485  1.5041 -1.3784  0.7017
  386TIP3    H222574   5.424   0.556   2.562 -2.4169 -1.2863 -1.1242
  387TIP3   OH222575   6.190   5.905  15.146 -0.7548 -0.1961 -0.6494
  387TIP3    H122576   6.151   5.851  15.215  0.0513  1.0409  0.8163
  387TIP3    H222577   6.278   5.868  15.135 -0.8316 -0.2990 -0.9194
  388TIP3   OH222578   6.199   4.445  12.653 -0.8093  0.3177  0.2446
  388TIP3    H122579   6.227   4.376  12.714 -1.3262  0.4591  0.6471
  388TIP3    H222580   6.125   4.487  12.697 -0.2271  1.4123  0.1973
  389TIP3   OH222581   2.800   5.596  16.798  0.2237 -0.1254  0.3587
  389TIP3    H122582   2.799   5.543  16.878 -0.1880  0.2392  0.5990
  389TIP3    H222583   2.820   5.533  16.728 -3.0395 -1.1750  0.2590
  390TIP3   OH222584   3.594   5.629   5.730 -0.5641 -0.2840  0.6916
  390TIP3    H122585   3.563   5.611   5.641 -1.4039 -0.2434  0.9685
  390TIP3    H222586   3.616   5.722   5.729 -0.4010 -0.3236  0.4781
  391TIP3   OH222587   6.702   6.397  16.663  0.0617 -0.8571  0.1054
  391TIP3    H122588   6.638   6.380  16.732 -1.7575  1.3278 -0.9827
  391TIP3    H222589   6.778   6.432  16.709  0.0760 -2.4098  1.3023
  392TIP3   OH222590   3.533   4.686  10.573  0.3023  0.7444 -0.1486
  392TIP3    H122591   3.559   4.759  10.516  1.1292  0.2461 -0.4193
  392TIP3    H222592   3.604   4.622  10.563 -0.3880 -0.0676  0.1377
  393TIP3   OH222593   1.638   2.474  14.616  0.2149  0.1709 -0.4838
  393TIP3    H122594   1.554   2.507  14.649 -0.2234 -0.6163 -0.8246
  393TIP3    H222595   1.694   2.472  14.694  0.0126  0.9726 -0.3104
  394TIP3   OH222596   4.884   2.113   4.946  0.3219  0.2538 -0.5966
  394TIP3    H122597   4.870   2.206   4.964  0.6023  0.1632  0.1114
  394TIP3    H222598   4.845   2.068   5.020  2.6175 -0.0767  0.4653
  395TIP3   OH222599   1.960   4.406  15.719 -0.0426 -0.3621  0.5901
  395TIP3    H122600   2.030   4.405  15.785  0.6020  0.3259 -0.0654
  395TIP3    H222601   1.908   4.483  15.741 -0.0889 -0.3882  0.5712
  396TIP3   OH222602   5.651   1.388   0.112  0.3179 -0.1866  0.0108
  396TIP3    H122603   5.692   1.304   0.132 -0.9063 -0.8115 -0.0050
  396TIP3    H222604   5.659   1.397   0.017  0.3911 -0.3165  0.0041
  397TIP3   OH222605   0.466   5.736  16.103 -0.1498  0.1221 -0.2985
  397TIP3    H122606   0.493   5.732  16.195 -1.4414  0.7241  0.1283
  397TIP3    H222607   0.437   5.648  16.083  1.0683 -0.2577 -0.4336
  398TIP3   OH222608   2.086   0.222  13.063  0.0240  0.2903  0.2031
  398TIP3    H122609   2.056   0.267  12.985  1.4804  1.5927  0.3852
  398TIP3    H222610   2.061   0.279  13.135 -0.4235 -0.4282  0.6232
  399TIP3   OH222611   2.367   3.868   0.911  0.1746  0.1433 -0.4040
  399TIP3    H122612   2.337   3.836   0.996  1.6150  0.4729  0.2346
  399TIP3    H222613   2.348   3.796   0.850 -1.0810  0.0034  0.1314
  400TIP3   OH222614   5.722   1.574  11.572  0.4693  0.1666 -0.3758
  400TIP3    H122615   5.773   1.494  11.563  0.1859  0.0691 -1.1206
  400TIP3    H222616   5.682   1.588  11.486 -0.2149  0.6143  0.0020
  401TIP3   OH222617   6.322   1.578  13.705  0.5279 -0.2224 -0.3616
  401TIP3    H122618   6.391   1.518  13.731  0.8906  0.1132 -0.5486
  401TIP3    H222619   6.335   1.655  13.760 -1.2388 -1.1330  1.4238
  402TIP3   OH222620   2.091   3.777   6.458  0.4962  0.1387 -0.2522
  402TIP3    H122621   2.004   3.802   6.489  0.6133 -0.8049  0.8626
  402TIP3    H222622   2.090   3.681   6.459  2.6796  0.0593  3.1371
  403TIP3   OH222623   5.769   1.542  16.175  0.0650 -0.0817 -0.5699
  403TIP3    H122624   5.710   1.605  16.133  0.8509  0.0286 -1.5389
  403TIP3    H222625   5.851   1.591  16.188  0.2115 -0.4747 -0.0045
  404TIP3   OH222626   4.898   3.846   5.068 -0.1966  0.1300  0.0944
  404TIP3    H122627   4.937   3.830   5.153  2.5229 -1.0090 -1.3050
  404TIP3    H222628   4.844   3.769   5.051  1.4517 -0.9402 -0.3814
  405TIP3   OH222629   2.223   3.367   5.639  0.4165  0.0794  0.4204
  405TIP3    H122630   2.215   3.310   5.716 -0.5650 -0.5512 -0.1381
  405TIP3    H222631   2.151   3.341   5.583  1.8071 -0.2546 -1.2414
  406TIP3   OH222632   5.215   3.144   4.906 -0.8369  0.6197 -0.2413
  406TIP3    H122633   5.257   3.076   4.958 -0.0835  1.1812 -0.1153
  406TIP3    H222634   5.211   3.108   4.817 -3.0593 -0.7625  0.3878
  407TIP3   OH222635   3.428   4.556  13.482  0.6640  0.6454 -0.2636
  407TIP3    H122636   3.422   4.628  13.545  0.0013  0.0873  0.3073
  407TIP3    H222637   3.493   4.497  13.519 -0.7669 -0.3942  0.6120
  408TIP3   OH222638   0.222   2.238  12.686 -0.6845 -0.1002  0.6261
  408TIP3    H122639   0.275   2.301  12.735  0.3610 -0.2857 -0.2303
  408TIP3    H222640   0.162   2.293  12.634  1.3999  0.3170 -1.4524
  409TIP3   OH222641   5.127   1.841  12.786 -0.3955  0.1777  0.2357
  409TIP3    H122642   5.175   1.885  12.855  1.0946 -1.6007  0.3516
  409TIP3    H222643   5.132   1.901  12.711  0.1326  0.9719  0.9020
  410TIP3   OH222644   5.704   4.902  10.696 -0.5328  0.2284 -0.2856
  410TIP3    H122645   5.671   4.845  10.627 -0.7450  0.1580 -0.1267
  410TIP3    H222646   5.775   4.852  10.736 -0.2985  0.3401 -0.5629
  411TIP3   OH222647   5.677   5.850   1.921  1.3115  1.0286  0.2289
  411TIP3    H122648   5.665   5.876   1.830  0.0184 -0.6619 -0.0995
  411TIP3    H222649   5.754   5.793   1.920 -0.0066 -0.7599 -0.1654
  412TIP3   OH222650   4.770   2.075  12.941 -0.2595 -0.5900 -0.0557
  412TIP3    H122651   4.797   2.083  12.849 -0.0168  4.0945  0.3032
  412TIP3    H222652   4.695   2.135  12.949  0.5513  0.0709  3.0989
  413TIP3   OH222653   5.808   2.449   5.614 -0.1716  0.2359  0.3966
  413TIP3    H122654   5.739   2.463   5.550  0.1351 -0.0156  0.0044
  413TIP3    H222655   5.777   2.492   5.693  1.6427  5.0728 -1.3445
  414TIP3   OH222656   4.307   1.886  16.779  0.0875  0.5170  0.3652
  414TIP3    H122657   4.375   1.821  16.798 -1.1233 -1.3183 -1.4296
  414TIP3    H222658   4.318   1.906  16.686 -1.8022  0.2152  0.0550
  415TIP3   OH222659   6.039   2.886  10.352  0.0411  0.0009  0.1813
  415TIP3    H122660   5.956   2.908  10.394 -0.7424 -0.3175 -1.1522
  415TIP3    H222661   6.101   2.952  10.384 -1.2340  1.5220 -0.4258
  416TIP3   OH222662   1.749   0.635   1.824 -0.6921  0.4943 -0.1650
  416TIP3    H122663   1.759   0.629   1.919  3.4594  0.9786 -0.4653
  416TIP3    H222664   1.760   0.545   1.793  0.1763  0.6629 -0.3449
  417TIP3   OH222665   2.316   5.866  16.542 -0.5077  0.2701 -0.3704
  417TIP3    H122666   2.354   5.942  16.586  0.0344  0.7417 -1.6427
  417TIP3    H222667   2.326   5.884  16.449  0.0616 -1.5771 -0.6870
  418TIP3   OH222668   4.491   0.228  13.551  0.4611  0.0209 -0.0885
  418TIP3    H122669   4.555   0.174  13.504 -2.3983 -1.7787 -2.0552
  418TIP3    H222670   4.433   0.165  13.594 -0.8723  1.5834  0.4531
  419TIP3   OH222671   6.712   2.273  16.004 -0.0682  0.1399 -0.2872
  419TIP3    H122672   6.644   2.220  16.044 -0.6856  1.7475  0.8019
  419TIP3    H222673   6.775   2.289  16.074  1.4171 -1.2455 -1.2506
  420TIP3   OH222674   5.735   3.271   1.780  0.2457  0.3997  0.5103
  420TIP3    H122675   5.742   3.365   1.765  0.5149  0.0407 -1.7787
  420TIP3    H222676   5.643   3.256   1.799 -0.3792  0.7408 -2.1355
  421TIP3   OH222677   2.294   4.186  15.056 -0.2920 -0.2799 -0.1037
  421TIP3    H122678   2.279   4.230  15.140  0.1111  0.8484 -0.6136
  421TIP3    H222679   2.224   4.218  15.000 -0.3792 -0.7948 -0.2888
  422TIP3   OH222680   5.300   4.810   5.224  0.0035  0.4156  0.4098
  422TIP3    H122681   5.296   4.832   5.131 -0.3535  0.5869  0.4680
  422TIP3    H222682   5.360   4.875   5.262 -1.0318  1.2772  0.5794
  423TIP3   OH222683   2.871   4.267   3.975  0.3685  0.2990 -0.1652
  423TIP3    H122684   2.848   4.360   3.976 -0.7436  0.0523  2.7393
  423TIP3    H222685   2.812   4.227   4.038  3.7413 -1.6119  1.9723
  424TIP3   OH222686   0.335   2.427   3.956 -0.0018 -0.4867  0.4502
  424TIP3    H122687   0.425   2.403   3.934 -0.5094 -2.4437  0.4747
  424TIP3    H222688   0.302   2.469   3.876  0.8724  0.1068  0.3888
  425TIP3   OH222689   3.094   4.688   1.699  0.9109 -0.0505 -0.3146
  425TIP3    H122690   3.055   4.606   1.731 -0.0649 -0.6910 -3.0074
  425TIP3    H222691   3.038   4.757   1.735 -0.4884 -0.7754 -1.0372
  426TIP3   OH222692   2.022   1.286  16.520 -0.1993 -0.3696  1.0236
  426TIP3    H122693   1.942   1.339  16.517  0.1861  0.1708  0.4565
  426TIP3    H222694   1.994   1.204  16.562 -1.7660 -1.4304 -1.9454
  427TIP3   OH222695   5.890   2.500  12.676 -0.6460  0.3083  0.0648
  427TIP3    H122696   5.926   2.458  12.598  1.1205 -1.0327  1.5457
  427TIP3    H222697   5.810   2.452  12.695 -0.2072 -0.4594  0.0100
  428TIP3   OH222698   2.551   3.392   2.666  0.5572  0.1354 -0.5038
  428TIP3    H122699   2.593   3.407   2.751  0.2132 -1.2313 -0.0836
  428TIP3    H222700   2.466   3.435   2.675  0.6425  0.2604 -0.2649
  429TIP3   OH222701   2.951   2.194   1.920  0.6896  0.0461  0.5534
  429TIP3    H122702   3.029   2.138   1.919  0.6218 -0.0382  0.0320
  429TIP3    H222703   2.960   2.251   1.844 -0.1802 -0.5521 -0.0093
  430TIP3   OH222704   0.194   0.695  12.728 -0.0096  0.1511  0.1841
  430TIP3    H122705   0.213   0.692  12.635  0.4920  3.4913  0.1128
  430TIP3    H222706   0.123   0.759  12.735  2.0449  2.2528  2.3762
  431TIP3   OH222707   2.347   0.340   1.929 -0.8742 -0.5188 -0.4857
  431TIP3    H122708   2.294   0.352   2.008 -0.4957 -1.8242 -0.0077
  431TIP3    H222709   2.423   0.290   1.959 -0.7953 -1.1412 -1.6922
  432TIP3   OH222710   4.736   2.006   0.118 -0.5491 -0.0474 -0.1484
  432TIP3    H122711   4.755   1.961   0.036  0.1018 -1.7658  0.9195
  432TIP3    H222712   4.819   2.047   0.143 -0.4686 -0.4076  0.1797
  433TIP3   OH222713   2.144   4.244   0.140  0.0849 -0.0496  0.4287
  433TIP3    H122714   2.083   4.314   0.117  0.4749 -0.2796 -1.3217
  433TIP3    H222715   2.143   4.184   0.066 -0.4698 -2.0958  2.0248
  434TIP3   OH222716   2.980   5.861   0.958  0.2083 -0.1508  0.2815
  434TIP3    H122717   2.975   5.782   0.904 -0.5221  0.6126 -0.7785
  434TIP3    H222718   3.072   5.867   0.983  0.3281 -1.1515  0.0873
  435TIP3   OH222719   3.075   6.661  12.623  0.4188 -0.4251  0.0723
  435TIP3    H122720   3.160   6.681  12.661 -0.8601  0.4895  2.6030
  435TIP3    H222721   3.085   6.573  12.585  2.8181  0.2264 -0.8643
  436TIP3   OH222722   0.720   1.950   0.265 -0.5222 -0.3520  0.1674
  436TIP3    H122723   0.708   1.997   0.183 -0.8141 -0.2058  0.2928
  436TIP3    H222724   0.672   1.868   0.254  1.1917 -1.2866 -0.5989
  437TIP3   OH222725   3.628   4.908  13.363  0.6196 -0.1565 -0.2869
  437TIP3    H122726   3.659   4.879  13.448  2.2128  0.2701 -0.7076
  437TIP3    H222727   3.542   4.947  13.380  0.5373 -0.8766  0.9720
  438TIP3   OH222728   4.453   0.169   2.573  0.4159  0.0503  0.2123
  438TIP3    H122729   4.477   0.135   2.659  1.6387  2.6542  0.9539
  438TIP3    H222730   4.362   0.197   2.582 -0.1685 -1.7023 -0.0212
  439TIP3   OH222731   0.756   0.998   5.589 -0.1842 -0.1298 -0.4268
  439TIP3    H122732   0.679   0.950   5.619 -0.1770  0.1638  0.0616
  439TIP3    H222733   0.723   1.083   5.561 -0.1842 -0.3804 -1.2120
  440TIP3   OH222734   2.998   2.637   3.484  0.0746 -0.2611 -0.1357
  440TIP3    H122735   2.961   2.700   3.546  1.0554 -0.5711  0.7874
  440TIP3    H222736   3.025   2.563   3.539 -0.4540 -1.2113 -1.1195
  441TIP3   OH222737   4.829   5.866   5.352  0.1175  0.0193  0.1303
  441TIP3    H122738   4.806   5.959   5.347  0.1923  0.0176 -0.2838
  441TIP3    H222739   4.783   5.834   5.429  0.0777  0.3979  0.2649
  442TIP3   OH222740   1.168   3.376  12.024 -0.3815 -0.1216 -0.0478
  442TIP3    H122741   1.171   3.452  11.966  3.0474 -0.0347  0.1369
  442TIP3    H222742   1.131   3.306  11.971  2.8483 -0.0931 -2.4753
  443TIP3   OH222743   4.488   1.492  14.477  0.1953 -0.3796  0.8898
  443TIP3    H122744   4.544   1.414  14.483 -1.0221 -1.2682  0.9170
  443TIP3    H222745   4.537   1.552  14.421  2.1872 -0.2626  2.6520
  444TIP3   OH222746   0.338   2.140   4.947  0.6040  0.3779  0.0258
  444TIP3    H122747   0.339   2.146   4.852 -0.5962  1.8784  0.0909
  444TIP3    H222748   0.412   2.193   4.976  0.1382  1.0547 -0.0227
  445TIP3   OH222749   4.824   3.374  14.096  0.1229  0.2874  0.8315
  445TIP3    H122750   4.797   3.312  14.028 -1.2764  1.0647  0.6600
  445TIP3    H222751   4.867   3.445  14.048  1.6298 -0.4783  1.0180
  446TIP3   OH222752   3.418   5.882   4.686 -0.3325  0.5274  0.6400
  446TIP3    H122753   3.401   5.819   4.756  1.3238 -1.2971 -0.5430
  446TIP3    H222754   3.334   5.926   4.672 -2.4287 -3.5989 -0.5864
  447TIP3   OH222755   4.476   5.271   4.828 -0.0516  0.0007  0.0107
  447TIP3    H122756   4.401   5.211   4.818  1.3055 -1.8117  0.4672
  447TIP3    H222757   4.437   5.352   4.861 -1.8985 -0.7180 -0.3065
  448TIP3   OH222758   6.454   1.465  14.356  0.7301 -0.2341  0.1932
  448TIP3    H122759   6.446   1.538  14.417  0.9332  0.0128 -0.0737
  448TIP3    H222760   6.402   1.491  14.280  0.7570 -0.3901  0.1205
  449TIP3   OH222761   2.513   3.266  13.502  0.2275 -0.8162  0.0100
  449TIP3    H122762   2.448   3.249  13.571  0.6868  0.0446  0.6609
  449TIP3    H222763   2.462   3.306  13.431 -0.0786 -0.8066  0.2320
  450TIP3   OH222764   2.674   5.483  13.938  0.2685 -0.4847  0.3810
  450TIP3    H122765   2.647   5.446  13.853 -0.2538 -0.4233  0.5163
  450TIP3    H222766   2.630   5.428  14.002 -0.5652  0.4058  0.5858
  451TIP3   OH222767   5.231   2.556   5.812 -0.2720 -0.1548  0.3646
  451TIP3    H122768   5.234   2.600   5.728  1.5108 -0.8637  0.0336
  451TIP3    H222769   5.254   2.624   5.876  1.1133 -0.2609 -0.0078
  452TIP3   OH222770   5.226   2.021  12.976  0.7028  0.1876 -0.4946
  452TIP3    H122771   5.298   2.000  13.036  1.1274  1.7904 -0.4066
  452TIP3    H222772   5.222   2.117  12.976 -2.8082  0.1286  1.1504
  453TIP3   OH222773   3.921   4.067   4.654  0.2439 -0.2693  0.1582
  453TIP3    H122774   3.924   3.986   4.704 -3.3634 -1.4834 -1.4088
  453TIP3    H222775   3.977   4.051   4.579 -1.2090 -1.7376 -0.6512
  454TIP3   OH222776   4.878   4.090  12.120  0.3294 -0.0521 -0.5265
  454TIP3    H122777   4.912   4.129  12.039  1.3559 -1.2725 -0.6975
  454TIP3    H222778   4.785   4.074  12.101  0.4560  0.0869 -1.2967
  455TIP3   OH222779   5.716   0.549  11.907  0.1233  0.3630  0.1549
  455TIP3    H122780   5.641   0.606  11.891  0.3559  0.4461 -0.6120
  455TIP3    H222781   5.720   0.542  12.003 -0.9412  0.2550  0.2028
  456TIP3   OH222782   1.430   5.815   4.456 -0.9545  0.2023 -0.0227
  456TIP3    H122783   1.429   5.908   4.433 -0.4873 -0.2361 -1.8363
  456TIP3    H222784   1.348   5.780   4.420  0.1621 -0.6546 -1.7555
  457TIP3   OH222785   0.343   1.825   1.338  0.0851  0.1438 -0.5722
  457TIP3    H122786   0.332   1.759   1.270 -3.0466  0.2690 -0.2561
  457TIP3    H222787   0.289   1.794   1.410  2.6292  0.4948  1.5634
  458TIP3   OH222788   2.682   3.159   1.427 -0.2944 -0.0786  0.5511
  458TIP3    H122789   2.639   3.122   1.351 -0.2695  0.7733  0.1191
  458TIP3    H222790   2.611   3.195   1.480 -0.1352  1.2678 -0.1296
  459TIP3   OH222791   2.194   4.970   1.426  0.2255  0.1465 -0.5212
  459TIP3    H122792   2.286   4.942   1.420 -0.2763 -1.7468  0.0633
  459TIP3    H222793   2.198   5.063   1.448  2.0099 -0.0876  0.2176
  460TIP3   OH222794   0.941   1.304   2.598  0.1886 -0.0834  0.1833
  460TIP3    H122795   0.868   1.332   2.654 -0.2158 -0.9313  0.1015
  460TIP3    H222796   0.948   1.210   2.614  0.3736 -0.2539 -0.8526
  461TIP3   OH222797   2.095   5.024   3.880  0.5080 -0.5808  0.0463
  461TIP3    H122798   2.060   4.990   3.797  1.5381 -0.9550 -0.2353
  461TIP3    H222799   2.017   5.053   3.928 -0.5087 -3.9657  0.5910
  462TIP3   OH222800   6.047   0.185  15.271  0.3246  0.0882 -0.3670
  462TIP3    H122801   6.077   0.274  15.289  0.9957 -0.1409 -0.3566
  462TIP3    H222802   6.015   0.154  15.356  0.1719  0.2879 -0.3507
  463TIP3   OH222803   0.648   3.971   6.076  0.4657  0.2942 -0.6546
  463TIP3    H122804   0.705   4.041   6.045 -1.1148  2.0452  0.3044
  463TIP3    H222805   0.684   3.948   6.161  1.6501 -0.8648 -1.4451
  464TIP3   OH222806   0.087   2.887  11.692 -0.4000 -0.0970 -0.5634
  464TIP3    H122807   0.055   2.805  11.654 -2.8329 -0.5637  2.2786
  464TIP3    H222808   0.048   2.955  11.637 -1.4334 -0.7976 -0.7265
  465TIP3   OH222809   6.549   1.610   1.210 -0.2279 -0.3346 -0.0468
  465TIP3    H122810   6.456   1.636   1.208 -0.1966 -0.2541 -0.3608
  465TIP3    H222811   6.547   1.515   1.208 -0.3030 -0.3321 -0.0994
  466TIP3   OH222812   2.695   4.868  12.496 -0.8985 -0.0540  0.3514
  466TIP3    H122813   2.780   4.830  12.518 -0.4168  0.5042 -0.5477
  466TIP3    H222814   2.684   4.850  12.403  0.2221  3.6814 -0.5857
  467TIP3   OH222815   6.042   0.859  16.160  0.6631  0.1173  0.2576
  467TIP3    H122816   6.135   0.856  16.138  0.4430  0.4710 -0.7611
  467TIP3    H222817   6.029   0.946  16.198  0.3475  0.8739 -1.5305
  468TIP3   OH222818   0.671   1.084  13.441  0.3361 -0.0183 -0.2466
  468TIP3    H122819   0.625   1.156  13.397 -0.8385  0.4411  1.6669
  468TIP3    H222820   0.726   1.046  13.373 -1.0946  0.9401 -1.9971
  469TIP3   OH222821   6.075   2.174  15.824  0.5113 -0.3007  0.0599
  469TIP3    H122822   6.086   2.141  15.735 -0.4527  1.5938 -0.7873
  469TIP3    H222823   6.047   2.098  15.874 -0.2791 -1.1010 -1.5464
  470TIP3   OH222824   0.278   1.283  12.961 -0.4577  0.3797  0.1008
  470TIP3    H122825   0.374   1.278  12.958 -0.3306  1.1855  1.8168
  470TIP3    H222826   0.253   1.315  12.874  0.6929 -1.3979 -0.9217
  471TIP3   OH222827   2.722   0.450  17.089  0.5604  0.1993  0.2495
  471TIP3    H122828   2.678   0.397  17.154  0.9541  0.9191  1.1161
  471TIP3    H222829   2.785   0.502  17.139  0.0868  1.5759 -0.5418
  472TIP3   OH222830   6.496   4.584  13.627  0.3767  0.3022  0.8334
  472TIP3    H122831   6.416   4.575  13.678  2.0094  0.9445  3.6314
  472TIP3    H222832   6.503   4.678  13.608  0.6992  0.3141  1.0029
  473TIP3   OH222833   1.203   3.801   2.256 -0.2723  0.5852 -0.5303
  473TIP3    H122834   1.168   3.877   2.210 -0.1588 -0.1580 -1.8824
  473TIP3    H222835   1.179   3.726   2.200  0.7542 -0.2361  0.1031
  474TIP3   OH222836   4.973   0.055  15.373  0.4254  0.5972 -0.4976
  474TIP3    H122837   4.906  -0.013  15.382  0.3877  0.3135 -2.6667
  474TIP3    H222838   5.036   0.035  15.442 -1.6211  0.7624  1.4493
  475TIP3   OH222839   1.843   1.200   4.906 -0.3687 -0.2434  0.3281
  475TIP3    H122840   1.757   1.216   4.867 -0.0747 -0.7465 -0.5535
  475TIP3    H222841   1.877   1.125   4.858  1.4722  1.2680 -0.8272
  476TIP3   OH222842   6.294   6.145  13.882  0.6409  0.3190 -0.1087
  476TIP3    H122843   6.305   6.195  13.802  0.7201 -0.8139 -0.8176
  476TIP3    H222844   6.276   6.056  13.853  0.9397 -0.1626  1.1257
  477TIP3   OH222845   4.735   3.766   1.847 -0.5752  0.2502  0.4089
  477TIP3    H122846   4.659   3.739   1.796 -0.2589 -0.3727  0.2562
  477TIP3    H222847   4.747   3.695   1.911 -0.7105  0.8140  1.0668
  478TIP3   OH222848   5.133   5.677   4.057  0.1520  0.4057  0.6169
  478TIP3    H122849   5.140   5.633   3.973 -0.1855  0.5199  0.5287
  478TIP3    H222850   5.199   5.746   4.054  0.9846 -0.3553  0.9214
  479TIP3   OH222851   0.127   6.312  15.802 -0.4598  0.0635  0.3245
  479TIP3    H122852   0.205   6.265  15.773 -0.9022 -0.2550 -0.3657
  479TIP3    H222853   0.157   6.402  15.815  0.0120 -0.0507  0.0356
  480TIP3   OH222854   5.870   0.293   2.564  0.0519  0.3424  0.8883
  480TIP3    H122855   5.932   0.348   2.516 -0.1229 -0.2880 -0.0837
  480TIP3    H222856   5.820   0.248   2.495 -1.4314  0.7853  1.6628
  481TIP3   OH222857   5.132   5.906  12.579  0.1602 -0.4920 -0.2298
  481TIP3    H122858   5.118   5.824  12.626  1.4448 -0.4423  0.2629
  481TIP3    H222859   5.169   5.965  12.644  1.3245 -0.2143 -1.1269
  482TIP3   OH222860   4.161   0.454  15.663 -0.1387  0.7237 -0.0706
  482TIP3    H122861   4.235   0.394  15.667  1.1785  2.3638  1.2110
  482TIP3    H222862   4.097   0.418  15.725  0.5844  0.5527  0.5810
  483TIP3   OH222863   2.857   4.722  12.029  0.6561  0.0161  0.0769
  483TIP3    H122864   2.889   4.632  12.037  1.3297  0.3730  1.5998
  483TIP3    H222865   2.824   4.728  11.939  3.0145 -0.9514 -0.8987
  484TIP3   OH222866   3.150   6.394   2.539  0.0324 -0.4937  0.1797
  484TIP3    H122867   3.066   6.366   2.576 -0.8519  0.8968 -0.7240
  484TIP3    H222868   3.215   6.349   2.592 -1.2507 -0.1968  2.0844
  485TIP3   OH222869   6.179   2.702  12.070  0.3244 -0.2919 -0.4475
  485TIP3    H122870   6.203   2.764  12.139 -2.0759  0.2914 -0.0845
  485TIP3    H222871   6.156   2.621  12.116 -0.6101 -0.1171 -0.5909
  486TIP3   OH222872   3.464   3.692  13.346 -0.2474 -0.2293 -0.0156
  486TIP3    H122873   3.548   3.674  13.389 -0.8391  1.2597  1.8611
  486TIP3    H222874   3.475   3.780  13.310 -0.6207 -0.4806 -0.7365
  487TIP3   OH222875   3.355   4.657  11.244 -0.0650 -0.6900 -0.6905
  487TIP3    H122876   3.353   4.566  11.275 -0.6534 -0.8856 -1.2751
  487TIP3    H222877   3.286   4.661  11.178  1.1322 -0.2853 -1.9466
  488TIP3   OH222878   5.644   1.901  14.425  0.1389  0.5888 -0.1423
  488TIP3    H122879   5.599   1.817  14.428 -0.4852  0.8537 -1.7143
  488TIP3    H222880   5.638   1.935  14.514  1.4687 -1.5752  0.8103
  489TIP3   OH222881   4.485   3.579  10.878 -0.3571 -0.2592 -0.5154
  489TIP3    H122882   4.547   3.507  10.868 -0.6307 -0.4138 -1.1344
  489TIP3    H222883   4.430   3.575  10.799 -0.5969  0.4110 -0.3904
  490TIP3   OH222884   6.135   2.099   0.791 -0.1382 -0.2208 -0.5151
  490TIP3    H122885   6.155   2.104   0.697  0.1515 -0.9284 -0.4911
  490TIP3    H222886   6.129   2.006   0.810 -0.5883 -0.0733  0.0933
  491TIP3   OH222887   5.897   0.683  11.173  0.0174 -0.6216 -0.0377
  491TIP3    H122888   5.945   0.654  11.095 -0.9271  2.8657 -2.0196
  491TIP3    H222889   5.948   0.758  11.205 -0.6740 -0.8314  1.6024
  492TIP3   OH222890   2.331   6.763   4.584  0.3669  0.7415  0.0314
  492TIP3    H122891   2.313   6.757   4.678  0.7449 -0.9615  0.0177
  492TIP3    H222892   2.248   6.792   4.545  0.3599  1.9641  0.9287
  493TIP3   OH222893   0.318   6.652   6.292  0.1090 -0.4779 -0.1300
  493TIP3    H122894   0.321   6.738   6.250 -0.9927 -0.5988 -0.4893
  493TIP3    H222895   0.394   6.606   6.258  1.9291  1.0910  1.7264
  494TIP3   OH222896   2.790   6.563  16.823 -0.3440  0.1313 -0.7014
  494TIP3    H122897   2.733   6.556  16.899  0.7915  0.6518  0.2123
  494TIP3    H222898   2.877   6.541  16.856 -0.2217 -2.1002 -2.3772
  495TIP3   OH222899   0.862   0.867  12.240 -0.2258 -0.1443  0.4385
  495TIP3    H122900   0.790   0.868  12.177 -2.1477 -0.9645  2.5477
  495TIP3    H222901   0.937   0.834  12.190 -1.1130  1.3474 -1.9667
  496TIP3   OH222902   4.089   2.090  13.711 -0.4283  0.2904  0.5499
  496TIP3    H122903   4.014   2.149  13.724 -0.6530  0.0054  0.5571
  496TIP3    H222904   4.135   2.092  13.794 -0.5261  0.3329  0.6051
  497TIP3   OH222905   4.739   4.181   2.392 -0.4590  0.0980 -0.5481
  497TIP3    H122906   4.764   4.189   2.484 -1.4857  2.4821 -0.4387
  497TIP3    H222907   4.820   4.196   2.343  0.2671 -2.0207 -0.0678
  498TIP3   OH222908   1.403   3.008   5.677 -0.2990 -0.5481 -0.5596
  498TIP3    H122909   1.388   3.035   5.587  2.1439  0.5350 -0.6655
  498TIP3    H222910   1.432   2.917   5.670  2.6400  0.4140 -1.1039
  499TIP3   OH222911   4.948   3.885   0.427 -0.5504  0.1664  0.3236
  499TIP3    H122912   4.926   3.966   0.380  1.8259  0.7312  0.1322
  499TIP3    H222913   4.976   3.825   0.358 -2.6481 -0.9815  0.4266
  500TIP3   OH222914   2.465   4.759  15.774 -0.3253 -0.2849 -0.1334
  500TIP3    H122915   2.439   4.842  15.815 -1.7850 -0.7712 -0.0599
  500TIP3    H222916   2.535   4.783  15.713 -0.4589  0.9330  0.1890
  501TIP3   OH222917   0.756   2.679   2.957 -0.4357  0.2304 -0.0183
  501TIP3    H122918   0.743   2.607   3.019 -0.0914 -0.1004 -0.3342
  501TIP3    H222919   0.710   2.651   2.878 -1.5496  0.9959  0.3419
  502TIP3   OH222920   1.519   0.037   2.500 -0.3621 -0.4973 -0.0584
  502TIP3    H122921   1.455   0.052   2.431 -2.9702 -3.3870  1.6376
  502TIP3    H222922   1.510  -0.056   2.522  2.1235 -0.2075  2.4856
  503TIP3   OH222923   0.785   4.053   5.637  0.1912  0.5233  0.1565
  503TIP3    H122924   0.742   4.138   5.650 -0.1796  0.6778 -1.8725
  503TIP3    H222925   0.714   3.989   5.644  0.2406  0.4955  0.3865
  504TIP3   OH222926   0.303   6.242   6.334  0.0104 -0.4833 -0.0157
  504TIP3    H122927   0.395   6.250   6.310  0.1196 -0.0417  0.5470
  504TIP3    H222928   0.276   6.332   6.356 -0.6532 -0.5521 -0.5559
  505TIP3   OH222929   5.445   2.734  15.150 -0.2641  0.2623  1.0433
  505TIP3    H122930   5.512   2.731  15.218  0.3313  0.8795  0.4846
  505TIP3    H222931   5.493   2.750  15.069 -0.7074 -2.9431  0.0972
  506TIP3   OH222932   3.783   1.109  13.415  0.2894 -0.3074 -0.3002
  506TIP3    H122933   3.747   1.033  13.368 -0.6381 -0.0578 -0.0017
  506TIP3    H222934   3.750   1.185  13.367 -2.1217  0.0077  1.7283
  507TIP3   OH222935   4.307   4.576  12.592  0.6387 -0.3803  0.4925
  507TIP3    H122936   4.273   4.499  12.547  0.4623  0.3938 -0.7059
  507TIP3    H222937   4.284   4.649  12.536  3.2719  0.2740  0.2088
  508TIP3   OH222938   2.352   1.904   1.041 -0.6135  0.3031 -0.3496
  508TIP3    H122939   2.396   1.899   1.126 -3.0711 -0.4065  0.9358
  508TIP3    H222940   2.359   1.996   1.016 -0.3799  0.6493  0.9350
  509TIP3   OH222941   4.471   5.920  13.591 -0.6665 -0.0456  0.1973
  509TIP3    H122942   4.390   5.874  13.568 -1.8810  1.2697  1.7677
  509TIP3    H222943   4.444   5.988  13.652  1.4513  1.2364 -0.2308
  510TIP3   OH222944   3.175   0.184  12.993  0.4628 -0.2857 -0.3864
  510TIP3    H122945   3.157   0.277  13.006 -0.8822 -0.3538 -1.7013
  510TIP3    H222946   3.230   0.160  13.068  0.0748  1.3487  0.4446
  511TIP3   OH222947   5.147   0.516  17.221 -0.2746 -0.4372  0.6741
  511TIP3    H122948   5.076   0.467  17.264 -1.2389 -0.4361 -0.8737
  511TIP3    H222949   5.155   0.595  17.274 -1.9955 -0.0617  0.4232
  512TIP3   OH222950   0.799   0.080  16.608  0.0357 -0.1094 -0.2549
  512TIP3    H122951   0.854   0.025  16.664  0.0853  1.4825  1.3196
  512TIP3    H222952   0.849   0.089  16.527  0.1491 -2.1209 -0.4326
  513TIP3   OH222953   6.402   6.068   0.253  0.2451 -0.0428  0.1712
  513TIP3    H122954   6.416   6.160   0.230  1.7533 -0.4347 -0.5570
  513TIP3    H222955   6.368   6.029   0.173  1.0945 -0.4299 -0.0133
  514TIP3   OH222956   0.247   6.336  11.511  0.1800 -0.5225 -0.2373
  514TIP3    H122957   0.245   6.432  11.506  1.8248 -0.4548  0.2431
  514TIP3    H222958   0.200   6.308  11.432 -3.4686  0.6673  1.3933
  515TIP3   OH222959   6.595   0.246  14.008 -0.5139  0.2611  0.2783
  515TIP3    H122960   6.648   0.324  14.019  0.9121 -0.7685  0.9275
  515TIP3    H222961   6.582   0.238  13.913  1.0523  0.1675  0.0618
  516TIP3   OH222962   3.423   3.371  13.391  0.5737  0.1852 -0.0792
  516TIP3    H122963   3.353   3.431  13.419  0.0853  0.4144 -1.6895
  516TIP3    H222964   3.481   3.426  13.338  0.8290 -0.4857 -0.4987
  517TIP3   OH222965   3.336   5.654   0.028  0.1064 -0.0827  0.2808
  517TIP3    H122966   3.351   5.566   0.063  0.2871 -0.2529 -0.2117
  517TIP3    H222967   3.284   5.698   0.094  0.0892 -0.5369  0.5703
  518TIP3   OH222968   4.888   2.254  14.119 -0.1157  0.2953  0.7445
  518TIP3    H122969   4.965   2.310  14.122  0.0249  0.2899 -1.6799
  518TIP3    H222970   4.849   2.271  14.033 -1.6323 -1.2450  1.0923
  519TIP3   OH222971   4.499   5.917  15.761 -0.4219 -0.2350  0.1199
  519TIP3    H122972   4.484   5.874  15.845  0.8504  1.9570  1.5266
  519TIP3    H222973   4.594   5.911  15.748 -0.3460  1.3227 -0.0977
  520TIP3   OH222974   2.233   3.603  14.709  0.2540 -0.1511 -0.0116
  520TIP3    H122975   2.310   3.587  14.764 -0.1429  0.6152  0.7827
  520TIP3    H222976   2.162   3.616  14.771 -0.1416  1.0419 -0.6890
  521TIP3   OH222977   2.014   6.138  14.635  0.3773  0.1030 -0.2039
  521TIP3    H122978   1.977   6.053  14.615  1.0059 -0.2562  0.1362
  521TIP3    H222979   2.108   6.128  14.617  0.4549  0.7148 -0.1537
  522TIP3   OH222980   1.329   0.183   4.266 -0.2082 -0.2237 -0.1665
  522TIP3    H122981   1.408   0.210   4.312 -0.6577 -1.7897  1.6063
  522TIP3    H222982   1.259   0.234   4.307 -0.2520  0.4028 -1.0208
  523TIP3   OH222983   6.586   1.117  13.806 -0.3476  0.1559  0.1043
  523TIP3    H122984   6.614   1.088  13.893 -0.2253  1.9702  0.6906
  523TIP3    H222985   6.597   1.212  13.808 -0.9869  0.2818 -1.6740
  524TIP3   OH222986   3.767   5.489  11.188  0.1362  0.2040  0.0025
  524TIP3    H122987   3.713   5.411  11.175  2.7814 -2.0858  2.1010
  524TIP3    H222988   3.817   5.497  11.107  0.3214 -0.7058  0.0174
  525TIP3   OH222989   4.250   2.476   3.290 -0.2539  0.3007 -0.0911
  525TIP3    H122990   4.278   2.523   3.212  0.3866  1.4929  0.8412
  525TIP3    H222991   4.332   2.445   3.330 -0.4728  0.8330  0.7935
  526TIP3   OH222992   2.075   2.475  13.818 -0.3192 -0.2133 -0.4742
  526TIP3    H122993   2.136   2.514  13.880 -1.3026  0.9771 -0.2516
  526TIP3    H222994   2.112   2.389  13.799 -0.7839 -1.2344  2.9180
  527TIP3   OH222995   6.772   2.086  12.439  0.0393 -0.0108 -0.2038
  527TIP3    H122996   6.767   2.026  12.364 -0.6988 -0.7538  0.4292
  527TIP3    H222997   6.721   2.162  12.413  1.0674  0.3958 -1.0561
  528TIP3   OH222998   3.516   0.706  16.491 -0.5783  0.0636 -0.2175
  528TIP3    H122999   3.566   0.778  16.453  0.3388 -0.6308 -0.3493
  528TIP3    H223000   3.548   0.628  16.444  0.0546 -0.7132  1.4679
  529TIP3   OH223001   5.704   3.412  15.854  0.0776 -0.5695  0.0592
  529TIP3    H123002   5.667   3.430  15.768  1.8904  0.8469 -0.4526
  529TIP3    H223003   5.799   3.410  15.840  0.3071 -2.3782  1.6504
  530TIP3   OH223004   4.527   4.745   2.872  0.0493  0.0245 -0.2076
  530TIP3    H123005   4.549   4.828   2.828  2.1869  0.3520  1.4012
  530TIP3    H223006   4.500   4.687   2.801  1.1704  1.2686 -1.6861
  531TIP3   OH223007   0.713   6.706   5.354 -0.1033 -0.0751 -0.2763
  531TIP3    H123008   0.656   6.629   5.346 -1.2736  0.6415  0.8736
  531TIP3    H223009   0.773   6.699   5.280 -1.3537 -1.1271 -1.2313
  532TIP3   OH223010   4.915   6.181   4.195  0.0861 -0.2740  0.5043
  532TIP3    H123011   4.834   6.130   4.206  0.2086 -0.3946  0.8624
  532TIP3    H223012   4.971   6.152   4.267 -0.1060  0.8829  1.1190
  533TIP3   OH223013   2.867   1.011   3.473 -0.3708 -0.2596  0.1147
  533TIP3    H123014   2.815   0.958   3.534  1.2938 -1.2839  0.6602
  533TIP3    H223015   2.936   0.952   3.442 -0.6470  0.5204 -2.0711
  534TIP3   OH223016   3.199   0.086   0.251  0.1347  0.3685  0.5966
  534TIP3    H123017   3.172   0.158   0.194  1.0287  0.5627  0.3983
  534TIP3    H223018   3.240   0.023   0.192 -1.1374 -0.5723  0.6912
  535TIP3   OH223019   2.514   2.548   5.869 -0.5274  0.4227 -0.3250
  535TIP3    H123020   2.531   2.605   5.795 -0.3709  0.3242 -0.3649
  535TIP3    H223021   2.600   2.516   5.896 -0.8130 -1.6143 -1.7444
  536TIP3   OH223022   5.631   3.712   2.512 -0.1598 -0.2304 -0.0784
  536TIP3    H123023   5.647   3.770   2.438  1.1337 -0.8639 -0.2977
  536TIP3    H223024   5.708   3.722   2.568 -0.3355 -1.0567  0.3253
  537TIP3   OH223025   4.721   3.111  16.395  0.7003  0.2537 -0.3874
  537TIP3    H123026   4.713   3.201  16.363  1.5943 -0.0021 -1.3419
  537TIP3    H223027   4.765   3.064  16.324  1.0855 -0.7273  0.4919
  538TIP3   OH223028   0.563   0.322  11.818  1.2460 -0.1126  0.5249
  538TIP3    H123029   0.594   0.401  11.772 -0.4405  0.1840 -0.1250
  538TIP3    H223030   0.579   0.251  11.756  0.3242  0.0904  0.0427
  539TIP3   OH223031   3.073   5.290   2.389  0.2935 -0.7370  0.4254
  539TIP3    H123032   3.158   5.262   2.423  0.5414 -0.2970  0.1694
  539TIP3    H223033   3.082   5.284   2.294  0.0892 -0.5420  0.3935
  540TIP3   OH223034   6.033   5.617  15.599  0.5638 -0.0334  0.2039
  540TIP3    H123035   6.125   5.599  15.576  0.7233  0.4844  0.4437
  540TIP3    H223036   5.988   5.621  15.514  0.8881  0.4069  0.0544
  541TIP3   OH223037   0.110   6.490  14.881 -0.3558 -0.0753  0.0015
  541TIP3    H123038   0.030   6.542  14.886 -0.5826 -0.4852  0.6264
  541TIP3    H223039   0.082   6.400  14.896  0.0631 -0.3631 -0.9184
  542TIP3   OH223040   1.907   2.107   2.870 -0.5781  0.0412  0.0703
  542TIP3    H123041   1.935   2.101   2.962 -1.1159 -2.5607  0.1008
  542TIP3    H223042   1.989   2.107   2.821 -0.3247 -1.5738  0.4460
  543TIP3   OH223043   0.544   0.070   2.617 -0.0917 -0.0220  0.1916
  543TIP3    H123044   0.608   0.110   2.558 -0.2912  0.1025  0.0549
  543TIP3    H223045   0.579  -0.017   2.635 -0.1363 -0.1442 -0.2908
  544TIP3   OH223046   2.853   1.307  12.790 -0.0490 -0.0930 -0.3887
  544TIP3    H123047   2.770   1.352  12.806 -0.1626  0.7156 -3.0732
  544TIP3    H223048   2.920   1.376  12.801  0.3310 -0.7782  1.9353
  545TIP3   OH223049   4.426   6.354   2.593 -0.0340  0.0124 -0.2771
  545TIP3    H123050   4.340   6.314   2.581 -0.1263 -0.1453  0.8506
  545TIP3    H223051   4.409   6.432   2.645  0.4968  0.0255 -0.1227
  546TIP3   OH223052   3.304   3.586   2.223  0.1166 -0.3644 -0.2610
  546TIP3    H123053   3.271   3.629   2.145 -1.6047  0.4736  0.8784
  546TIP3    H223054   3.397   3.608   2.226  0.0927 -0.0092 -1.7928
  547TIP3   OH223055   4.675   3.286  13.122  0.0738  0.0284 -0.2504
  547TIP3    H123056   4.679   3.353  13.054 -0.3188  0.6554  0.3379
  547TIP3    H223057   4.737   3.219  13.093  1.2744  1.1348 -0.3071
  548TIP3   OH223058   3.159   1.990   3.461  0.5358  0.4572 -0.1363
  548TIP3    H123059   3.236   1.961   3.413  1.0494  1.8183 -0.1656
  548TIP3    H223060   3.193   2.056   3.522 -0.4744  0.4687  0.4203
  549TIP3   OH223061   1.782   5.158   6.662 -0.3673 -0.3562 -0.0373
  549TIP3    H123062   1.849   5.098   6.629  0.3697  0.3807  0.1065
  549TIP3    H223063   1.795   5.160   6.757 -0.9216 -0.6014  0.0450
  550TIP3   OH223064   0.828   1.067  12.426 -0.4728 -0.7310 -0.2751
  550TIP3    H123065   0.815   0.975  12.403  0.2425 -0.5254 -1.5654
  550TIP3    H223066   0.831   1.113  12.342 -2.1115  0.6657  0.3921
  551TIP3   OH223067   2.452   0.403  13.875 -0.1248  0.4966  0.1133
  551TIP3    H123068   2.381   0.392  13.811  0.7875  0.1592 -0.8453
  551TIP3    H223069   2.449   0.323  13.928  0.1925  0.0335 -0.5698
  552TIP3   OH223070   2.033   6.718  11.102  0.2497 -0.2665 -0.3147
  552TIP3    H123071   1.986   6.713  11.019 -0.1257 -1.0403 -0.0691
  552TIP3    H223072   2.111   6.770  11.083 -0.2063  0.1829 -0.9715
  553TIP3   OH223073   4.697   2.147   3.883  0.7315 -0.1102 -0.2341
  553TIP3    H123074   4.618   2.177   3.840  0.9156  0.7847  0.0462
  553TIP3    H223075   4.688   2.178   3.973  0.1601 -2.2886  0.5006
  554TIP3   OH223076   1.969   5.363   4.914 -0.3909 -0.0053 -0.3779
  554TIP3    H123077   2.007   5.282   4.949 -1.6551  0.1726  1.5379
  554TIP3    H223078   2.044   5.418   4.894  0.4524 -1.1170 -0.3622
  555TIP3   OH223079   6.266   6.022  11.574  0.0177 -0.8150  0.0081
  555TIP3    H123080   6.192   6.018  11.513 -0.5358  0.7123  0.5521
  555TIP3    H223081   6.226   6.015  11.660  0.3089  1.5607  0.3856
  556TIP3   OH223082   0.014   6.510   4.863 -0.0523 -0.5250 -0.7920
  556TIP3    H123083  -0.058   6.514   4.800 -0.4521 -1.3944 -0.3872
  556TIP3    H223084   0.006   6.592   4.912 -0.4292 -0.3656 -1.1115
  557TIP3   OH223085   1.447   5.154  15.331 -0.0886  0.5408  0.2896
  557TIP3    H123086   1.471   5.148  15.423 -1.2174 -0.8480  0.5063
  557TIP3    H223087   1.352   5.170  15.332 -0.0163  1.0666 -0.6213
  558TIP3   OH223088   6.200   3.543   2.903 -0.2684 -0.0934 -0.3249
  558TIP3    H123089   6.262   3.615   2.919 -1.2626  0.5240  0.8549
  558TIP3    H223090   6.135   3.553   2.972 -1.3215 -1.1406 -1.1645
  559TIP3   OH223091   0.061   1.108  16.011  0.5646  0.6150 -0.0211
  559TIP3    H123092   0.074   1.076  15.921 -0.5895  0.3178 -0.0816
  559TIP3    H223093   0.003   1.183  16.001  1.6408  1.5214  0.3330
  560TIP3   OH223094   5.801   0.280   4.414  0.1923 -0.1882  0.0795
  560TIP3    H123095   5.893   0.257   4.424  0.1336 -0.5890 -0.3171
  560TIP3    H223096   5.801   0.365   4.370  0.3355 -0.8885 -1.2684
  561TIP3   OH223097   3.738   2.869   3.392 -0.3909  0.6486  0.0279
  561TIP3    H123098   3.812   2.811   3.412 -0.3977  1.4229  2.4358
  561TIP3    H223099   3.661   2.812   3.396 -0.1937  0.3934  0.2064
  562TIP3   OH223100   6.096   5.618   2.560 -0.2559 -0.0701  0.4284
  562TIP3    H123101   6.001   5.614   2.548 -0.0194 -0.8204 -1.2775
  562TIP3    H223102   6.122   5.698   2.513 -0.1616  0.6732  1.7340
  563TIP3   OH223103   2.566   5.419   0.054 -0.4406  0.0853 -0.3843
  563TIP3    H123104   2.573   5.481   0.127 -2.3441 -1.5407  1.2208
  563TIP3    H223105   2.636   5.355   0.070 -0.7531 -0.1792 -0.0777
  564TIP3   OH223106   0.807   4.668  12.920  0.1224 -0.3952 -0.5768
  564TIP3    H123107   0.736   4.645  12.981 -1.1098 -1.4642 -2.3736
  564TIP3    H223108   0.843   4.749  12.956 -1.1174 -0.5515  1.1260
  565TIP3   OH223109   6.422   0.155   4.403 -0.1659  0.4514  0.2856
  565TIP3    H123110   6.390   0.242   4.426 -2.2420 -0.0375 -0.6596
  565TIP3    H223111   6.406   0.102   4.481 -1.2243  0.3283 -0.0107
  566TIP3   OH223112   1.284   1.458   5.199 -0.0584  0.4041 -0.0056
  566TIP3    H123113   1.321   1.532   5.150  0.0413  0.6303  0.4060
  566TIP3    H223114   1.353   1.391   5.197 -0.0711  0.3988 -0.2120
  567TIP3   OH223115   6.291   4.208   1.742 -0.0417 -0.2023 -0.1975
  567TIP3    H123116   6.340   4.227   1.662  0.2655  1.5307  0.3813
  567TIP3    H223117   6.356   4.174   1.803 -0.2001 -1.1127 -0.5134
  568TIP3   OH223118   6.043   2.153  13.925 -0.0886  0.4833 -0.3072
  568TIP3    H123119   6.008   2.240  13.905  0.1561  0.6422 -0.0519
  568TIP3    H223120   6.056   2.154  14.020 -1.0577 -0.1903 -0.1529
  569TIP3   OH223121   3.901   6.631  17.161  0.3948 -0.0245 -0.0146
  569TIP3    H123122   3.921   6.714  17.205 -0.5845  0.8707 -1.2295
  569TIP3    H223123   3.975   6.618  17.101  0.0229  0.5186 -0.5924
  570TIP3   OH223124   3.912   4.057  12.261  0.4403  0.2261  0.5152
  570TIP3    H123125   3.923   4.051  12.166  0.7445  1.2298  0.4786
  570TIP3    H223126   3.903   3.967  12.290  1.1193 -0.1365 -0.3832
  571TIP3   OH223127   0.522   6.219  14.629 -0.8101 -0.4296 -0.2795
  571TIP3    H123128   0.496   6.232  14.537  0.7583 -0.9385 -0.8093
  571TIP3    H223129   0.522   6.307  14.666  3.5595  0.5269 -2.1684
  572TIP3   OH223130   5.767   4.616   5.033 -0.2048  0.1939  0.0956
  572TIP3    H123131   5.743   4.537   4.984 -0.7291  1.0854 -1.1201
  572TIP3    H223132   5.743   4.597   5.123 -1.4933 -0.5727 -0.3976
  573TIP3   OH223133   5.698   0.783  15.170  0.7187 -0.0598  0.1395
  573TIP3    H123134   5.628   0.797  15.234  1.4940 -1.0572  1.2162
  573TIP3    H223135   5.731   0.871  15.151 -0.6452  0.3931 -0.1941
  574TIP3   OH223136   4.558   3.022   2.156  0.5063  0.1443 -0.4936
  574TIP3    H123137   4.532   3.021   2.248  0.2751  1.0146 -0.5469
  574TIP3    H223138   4.475   3.023   2.108  0.6338  0.6606 -0.6982
  575TIP3   OH223139   2.164   5.751  15.214 -0.1840  0.5893 -0.5183
  575TIP3    H123140   2.124   5.664  15.213 -0.3600  0.6653 -0.0431
  575TIP3    H223141   2.182   5.768  15.306 -0.2951  1.1236 -0.5954
  576TIP3   OH223142   5.088   1.340   0.552  0.3196 -0.3192  0.2838
  576TIP3    H123143   5.140   1.313   0.476  1.1560  1.2127  0.3132
  576TIP3    H223144   5.030   1.265   0.568  0.6910 -0.9815 -1.3609
  577TIP3   OH223145   4.078   2.120  16.952  0.1898  0.0203  0.1882
  577TIP3    H123146   4.110   2.039  16.913 -0.1062 -0.2916  0.5751
  577TIP3    H223147   4.047   2.093  17.039  0.0792  0.5477  0.3110
  578TIP3   OH223148   3.155   3.930  12.880 -0.0674  0.2812  0.2748
  578TIP3    H123149   3.232   3.887  12.918 -0.0958  0.6792  0.7866
  578TIP3    H223150   3.080   3.888  12.923 -0.1006  0.7140  0.6411
  579TIP3   OH223151   5.404   6.596   4.609  0.1627 -0.3506 -0.1179
  579TIP3    H123152   5.474   6.534   4.630 -2.1448 -3.1816 -0.4141
  579TIP3    H223153   5.422   6.623   4.519  1.6103  0.0331  0.2627
  580TIP3   OH223154   6.708   4.550  14.671 -0.1170 -0.3082 -0.1248
  580TIP3    H123155   6.663   4.578  14.592 -0.2629 -1.2743 -0.3896
  580TIP3    H223156   6.641   4.552  14.739 -0.5444 -1.6308 -0.4941
  581TIP3   OH223157   5.577   4.749  12.165 -0.6096 -0.1482 -0.4012
  581TIP3    H123158   5.643   4.692  12.127 -1.4652 -1.1103 -0.4666
  581TIP3    H223159   5.597   4.836  12.131  0.2484 -0.5361 -0.8933
  582TIP3   OH223160   5.960   0.789   5.045 -0.0251 -0.4051 -0.4790
  582TIP3    H123161   5.957   0.726   4.973  1.8906  1.1711 -1.9849
  582TIP3    H223162   5.985   0.872   5.004 -0.0758  0.7923  1.8213
  583TIP3   OH223163   4.824   0.430  10.931 -0.2824  0.0329 -0.1689
  583TIP3    H123164   4.730   0.443  10.928  0.1511  4.0179  1.0959
  583TIP3    H223165   4.856   0.462  10.847 -0.1717 -3.1250 -1.3986
  584TIP3   OH223166   0.140   5.074  16.731  0.3106  0.7324 -0.3914
  584TIP3    H123167   0.158   5.087  16.824  2.1388  0.8041 -0.7266
  584TIP3    H223168   0.204   5.129  16.686  0.9300 -0.9875 -1.6965
  585TIP3   OH223169   4.352   5.023  11.023  0.4957  0.3501  0.5219
  585TIP3    H123170   4.339   5.022  10.928  1.0660 -0.5708  0.4450
  585TIP3    H223171   4.415   5.093  11.037 -1.7952  2.4840  0.5450
  586TIP3   OH223172   5.225   4.639  14.302  0.1412 -0.9229 -0.3296
  586TIP3    H123173   5.246   4.585  14.378  1.2221 -0.5565 -0.3528
  586TIP3    H223174   5.265   4.724  14.321  0.1312 -0.7249 -1.1484
  587TIP3   OH223175   1.454   5.786  17.183 -0.8162 -0.0061  0.3035
  587TIP3    H123176   1.403   5.781  17.103  0.4025 -1.6801 -0.3928
  587TIP3    H223177   1.508   5.706  17.183  0.7547  1.0099  1.7183
  588TIP3   OH223178   0.967   0.983   0.505  0.0140  0.1577  0.5364
  588TIP3    H123179   0.928   0.928   0.438  1.5916  0.0941 -0.3523
  588TIP3    H223180   0.956   0.934   0.586 -0.7925 -0.3291  0.1357
  589TIP3   OH223181   0.401   4.407  14.385 -0.2114 -0.0515 -0.6009
  589TIP3    H123182   0.395   4.486  14.332  1.4884  0.1439 -0.5477
  589TIP3    H223183   0.318   4.403  14.433 -0.4233  1.5457 -0.8118
  590TIP3   OH223184   5.486   3.943   5.348  0.4438 -0.3663  0.4841
  590TIP3    H123185   5.550   3.941   5.277 -0.8889  0.8278 -0.7961
  590TIP3    H223186   5.490   4.033   5.381 -1.7809  0.2332 -0.7844
  591TIP3   OH223187   4.959   4.182  13.561  0.4751  0.2489 -0.0293
  591TIP3    H123188   4.984   4.266  13.523  1.1924  0.7921  1.6223
  591TIP3    H223189   5.035   4.125  13.547  0.6061  0.3465  0.2885
  592TIP3   OH223190   2.926   6.684   1.491  0.5853 -0.5200 -0.0185
  592TIP3    H123191   2.994   6.741   1.456  2.6216 -0.9846  2.9774
  592TIP3    H223192   2.958   6.595   1.476 -0.3869 -0.7964 -0.5161
  593TIP3   OH223193   3.787   3.910  15.041  0.1648  0.0724 -0.0346
  593TIP3    H123194   3.800   3.976  15.109  0.3946 -1.2782  1.2526
  593TIP3    H223195   3.707   3.865  15.067 -0.9554  0.9606 -1.8474
  594TIP3   OH223196   6.440   6.650  15.747  0.2811  0.0397  0.2135
  594TIP3    H123197   6.468   6.565  15.714  0.2511  0.0740  0.0992
  594TIP3    H223198   6.447   6.643  15.842  0.2308 -0.1074  0.2055
  595TIP3   OH223199   4.053   6.445   2.488  0.0439  0.0772 -0.3420
  595TIP3    H123200   4.033   6.441   2.582 -0.3752 -0.3292 -0.4413
  595TIP3    H223201   4.125   6.506   2.481 -1.9340  2.5104 -0.0913
  596TIP3   OH223202   5.507   4.741  14.647 -0.1192  0.1603  0.1099
  596TIP3    H123203   5.519   4.697  14.731  0.9966  0.8916  0.3417
  596TIP3    H223204   5.578   4.709  14.592  0.4893  1.3701  0.1618
  597TIP3   OH223205   0.267   3.371   5.665 -0.2679 -0.0908 -0.3992
  597TIP3    H123206   0.342   3.426   5.684 -0.3906  0.1220 -0.5272
  597TIP3    H223207   0.254   3.380   5.570 -1.2442  0.8870 -0.1856
  598TIP3   OH223208   0.406   4.717  14.973  0.9092  0.0802  0.0543
  598TIP3    H123209   0.315   4.744  14.961  0.9588 -0.3800 -1.5379
  598TIP3    H223210   0.408   4.675  15.059 -1.0289 -2.5162 -1.1171
  599TIP3   OH223211   5.002   2.770   1.708  0.2141 -0.2784 -0.4759
  599TIP3    H123212   4.969   2.715   1.637  1.0893 -0.6208 -0.6184
  599TIP3    H223213   5.034   2.709   1.774 -1.3690  0.0242  0.5937
  600TIP3   OH223214   4.489   4.961   1.900  0.2608  0.3266 -0.2118
  600TIP3    H123215   4.561   4.901   1.919 -1.1790 -2.0704 -2.0364
  600TIP3    H223216   4.411   4.906   1.904 -1.2188  2.3494 -0.7141
  601TIP3   OH223217   0.720   2.368   6.238  0.4112 -0.7257 -0.2113
  601TIP3    H123218   0.772   2.433   6.191  0.4463  0.1868  1.0595
  601TIP3    H223219   0.777   2.341   6.311 -0.0052 -1.4112 -0.1395
  602TIP3   OH223220   3.281   3.443  15.500  0.1745  0.0312 -0.6991
  602TIP3    H123221   3.221   3.510  15.467 -0.5042 -0.0335  0.3615
  602TIP3    H223222   3.287   3.379  15.429  1.3996  1.5510 -2.0029
  603TIP3   OH223223   1.721   4.025   2.435 -0.0348 -0.3111 -0.0453
  603TIP3    H123224   1.770   3.946   2.413  1.1944  0.2198  0.7431
  603TIP3    H223225   1.663   3.999   2.506 -1.5253 -1.1502 -1.5308
  604TIP3   OH223226   6.610   6.737   0.858 -0.4395  0.3428 -0.4981
  604TIP3    H123227   6.640   6.654   0.821  0.3661  0.2331  0.3919
  604TIP3    H223228   6.689   6.790   0.866 -0.9846  1.2993 -1.2835
  605TIP3   OH223229   3.328   0.138   5.255 -0.5224 -0.2371 -0.2887
  605TIP3    H123230   3.367   0.214   5.212  2.2517 -0.4925  1.6739
  605TIP3    H223231   3.280   0.174   5.330 -0.5722 -0.2848 -0.2972
  606TIP3   OH223232   6.288   1.525   4.029  0.8833  0.3796  0.1338
  606TIP3    H123233   6.314   1.555   4.117  1.8027  1.7805 -0.5836
  606TIP3    H223234   6.305   1.431   4.030  2.2876  0.6163  1.0070
  607TIP3   OH223235   6.004   3.732  11.223  0.3888  0.1679  0.1417
  607TIP3    H123236   5.928   3.737  11.165  0.3114  0.7356  0.2870
  607TIP3    H223237   6.068   3.680  11.175 -0.6979 -1.7130  0.7104
  608TIP3   OH223238   3.206   3.107  13.767  0.6242 -0.0881  0.6236
  608TIP3    H123239   3.252   3.188  13.788  1.9987 -1.1346  1.7490
  608TIP3    H223240   3.212   3.099  13.672  1.2996  0.6407  0.6039
  609TIP3   OH223241   2.907   2.944   0.924 -0.5836 -0.3301  0.2565
  609TIP3    H123242   2.924   2.938   0.830 -1.7092  1.7293 -0.1186
  609TIP3    H223243   2.829   2.890   0.938 -0.2123 -0.9168  0.0749
  610TIP3   OH223244   5.816   4.655  10.762 -0.3086 -0.2472  0.0682
  610TIP3    H123245   5.885   4.628  10.701  0.7836  0.1580  1.0972
  610TIP3    H223246   5.801   4.579  10.817 -0.3868 -0.1993  0.1123
  611TIP3   OH223247   6.471   5.258  12.723  0.3452 -0.0613  0.2231
  611TIP3    H123248   6.380   5.235  12.702 -0.0790  1.3588  0.4807
  611TIP3    H223249   6.498   5.192  12.787 -0.6863 -0.1522  0.5665
  612TIP3   OH223250   5.815   0.609   0.394  0.9069 -0.3528  0.6150
  612TIP3    H123251   5.770   0.581   0.314 -2.4319  2.0720  1.5182
  612TIP3    H223252   5.908   0.605   0.371  0.1956 -2.9637 -2.2431
  613TIP3   OH223253   6.592   1.832  14.229  0.0612 -0.8622  0.0483
  613TIP3    H123254   6.653   1.904  14.213  0.8031 -1.7788 -1.3331
  613TIP3    H223255   6.641   1.770  14.283 -0.5286 -0.4317  1.1115
  614TIP3   OH223256   3.855   1.765   3.820 -0.4666  0.3982 -0.5416
  614TIP3    H123257   3.891   1.741   3.735  0.3491  1.3847 -0.4799
  614TIP3    H223258   3.793   1.835   3.800 -0.6066  0.3220 -0.3731
  615TIP3   OH223259   1.150   1.407   4.816 -0.4338  0.1662 -0.4102
  615TIP3    H123260   1.068   1.387   4.862  0.1954 -2.2250 -0.3110
  615TIP3    H223261   1.153   1.346   4.743  0.0943  1.9049 -1.8940
  616TIP3   OH223262   4.380   6.255  15.041 -0.2522 -0.4841 -0.0596
  616TIP3    H123263   4.429   6.198  15.100 -2.1668 -1.9041  0.2056
  616TIP3    H223264   4.293   6.216  15.037 -1.1563  1.5633 -1.1003
  617TIP3   OH223265   3.241   0.410   2.825 -0.6097 -1.0163 -0.1670
  617TIP3    H123266   3.213   0.400   2.734 -0.6974 -0.2256 -0.2343
  617TIP3    H223267   3.190   0.485   2.857 -2.9135 -3.1762  1.4724
  618TIP3   OH223268   0.510   4.653   3.229  0.2007 -0.8689  0.7376
  618TIP3    H123269   0.498   4.561   3.204 -0.8427 -0.7468  0.7673
  618TIP3    H223270   0.514   4.699   3.145 -0.9530 -0.7433  0.7448
  619TIP3   OH223271   5.985   0.195   5.092 -0.6553  0.1082  0.0772
  619TIP3    H123272   6.049   0.210   5.161  0.4450 -2.5356 -0.3207
  619TIP3    H223273   6.036   0.194   5.011 -1.5275  0.1668 -0.4849
  620TIP3   OH223274   3.917   3.645   6.077  0.1777  0.2106  0.2441
  620TIP3    H123275   3.972   3.574   6.108 -0.4239  0.3477  1.6714
  620TIP3    H223276   3.884   3.686   6.157 -3.0520 -0.7148 -0.5470
  621TIP3   OH223277   3.469   0.836   4.122  0.5318  0.1680  0.4510
  621TIP3    H123278   3.432   0.924   4.111  0.5100  0.3440  1.8441
  621TIP3    H223279   3.551   0.838   4.073  0.9822  1.2676  1.2158
  622TIP3   OH223280   0.471   2.303   2.624  0.4126  0.4625  0.1633
  622TIP3    H123281   0.448   2.347   2.706  0.0089 -0.9249  0.8043
  622TIP3    H223282   0.566   2.294   2.627  0.3253 -0.2134  0.7912
  623TIP3   OH223283   3.126   5.834  15.492 -0.5353  0.1622  0.0289
  623TIP3    H123284   3.070   5.868  15.561  2.7804  1.4894  2.2075
  623TIP3    H223285   3.212   5.825  15.533  0.9353 -1.5655 -3.2174
  624TIP3   OH223286   5.801   0.209   1.368  0.1703  0.0886  0.1199
  624TIP3    H123287   5.788   0.189   1.460 -0.9228  1.9322  0.3781
  624TIP3    H223288   5.720   0.252   1.340  0.9633  0.6522 -1.3893
  625TIP3   OH223289   1.546   5.104   3.174  0.6562  0.1855  0.1419
  625TIP3    H123290   1.510   5.154   3.247 -1.8230 -0.1895 -0.7719
  625TIP3    H223291   1.509   5.017   3.184  0.9588 -0.0922 -1.0915
  626TIP3   OH223292   3.464   1.314   5.684 -0.2058 -0.7197  0.2138
  626TIP3    H123293   3.422   1.399   5.669  0.9102  0.0701  1.4165
  626TIP3    H223294   3.392   1.255   5.703 -1.0974 -0.3264 -1.8948
  627TIP3   OH223295   4.713   2.433  14.390 -0.0144  0.1295 -0.0897
  627TIP3    H123296   4.742   2.520  14.418 -1.7262  1.0442 -1.0649
  627TIP3    H223297   4.780   2.404  14.328 -0.5412  1.7100 -1.4334
  628TIP3   OH223298   5.525   1.553  13.004 -0.1382  0.0703  0.0413
  628TIP3    H123299   5.494   1.603  12.928  0.9399 -1.0721 -1.1630
  628TIP3    H223300   5.619   1.570  13.007 -0.0044 -0.7476  0.4914
  629TIP3   OH223301   2.317   5.103   4.361  0.3310 -0.0979  0.1762
  629TIP3    H123302   2.263   5.024   4.363  0.1458 -0.0555 -2.1257
  629TIP3    H223303   2.254   5.175   4.349  0.7780  0.0685 -1.2340
  630TIP3   OH223304   4.004   2.063   5.737 -0.0229  0.1333 -0.3023
  630TIP3    H123305   4.020   1.988   5.679 -1.5639 -0.9697  0.6436
  630TIP3    H223306   4.025   2.140   5.684  3.1665 -1.0107 -0.7687
  631TIP3   OH223307   6.583   3.713   5.573 -0.1047 -0.1524 -0.0172
  631TIP3    H123308   6.622   3.790   5.532 -0.6699  0.6100  0.8784
  631TIP3    H223309   6.535   3.747   5.648 -2.2266 -1.1244 -0.9106
  632TIP3   OH223310   1.190   4.371  16.520 -0.4950 -0.2714  0.0300
  632TIP3    H123311   1.223   4.415  16.441  1.8974 -1.1579  0.4957
  632TIP3    H223312   1.217   4.280  16.510  1.5100 -0.0090  2.7459
  633TIP3   OH223313   6.254   1.129  11.309  0.1779 -0.1107 -0.3778
  633TIP3    H123314   6.217   1.141  11.396 -0.0554 -1.5766 -0.2647
  633TIP3    H223315   6.346   1.153  11.318  0.1856 -0.4073  0.3000
  634TIP3   OH223316   1.701   5.676  12.188  0.5054 -0.2876  0.3859
  634TIP3    H123317   1.641   5.725  12.130  0.8088 -0.0918  0.2386
  634TIP3    H223318   1.646   5.650  12.262  1.0943  3.0565  2.0675
  635TIP3   OH223319   4.259   3.257  16.711 -0.8526 -0.1704  0.6328
  635TIP3    H123320   4.239   3.215  16.794 -0.5199  0.6852  1.1565
  635TIP3    H223321   4.270   3.350  16.733  2.2192 -0.3482  0.1651
  636TIP3   OH223322   2.296   4.921  13.186 -0.2192 -0.0969  0.1587
  636TIP3    H123323   2.302   4.843  13.241  0.8691 -0.3973 -0.3709
  636TIP3    H223324   2.355   4.904  13.113 -1.1693  0.5633 -0.7890
  637TIP3   OH223325   1.461   0.189   3.469 -0.0332 -0.4331  0.0695
  637TIP3    H123326   1.492   0.145   3.548 -1.0327  0.2484  0.8629
  637TIP3    H223327   1.385   0.240   3.498 -0.2978 -0.0182 -1.2925
  638TIP3   OH223328   1.979   5.690   1.232  0.3547  0.2394  0.2778
  638TIP3    H123329   1.952   5.781   1.234  0.4501  0.2567  2.1950
  638TIP3    H223330   2.075   5.693   1.225  0.4118  0.3044  1.0566
  639TIP3   OH223331   6.125   1.825  10.710  0.0749 -0.2668  0.3146
  639TIP3    H123332   6.184   1.790  10.777 -0.2583  0.0190  0.7590
  639TIP3    H223333   6.094   1.908  10.746  0.5119  0.2727 -0.5421
  640TIP3   OH223334   2.516   0.188  16.006  0.6532  0.1699  0.3559
  640TIP3    H123335   2.528   0.203  16.100 -0.1333  1.3070  0.2889
  640TIP3    H223336   2.597   0.147  15.977  1.1601  0.4202  1.4167
  641TIP3   OH223337   4.922   2.656  13.645 -0.0138  0.2766  0.2798
  641TIP3    H123338   4.854   2.716  13.677  0.1695  1.7595 -2.0010
  641TIP3    H223339   4.883   2.569  13.656 -1.6439  1.0054  0.4969
  642TIP3   OH223340   4.592   6.465  14.378 -0.6093 -0.5535 -0.1167
  642TIP3    H123341   4.502   6.462  14.410 -0.5171 -0.2452  0.1738
  642TIP3    H223342   4.604   6.554  14.346 -0.1284 -0.3232  0.6787
  643TIP3   OH223343   1.554   1.009   3.071 -0.1262 -0.0233 -0.3975
  643TIP3    H123344   1.649   1.000   3.080 -0.0070  1.0314 -0.5337
  643TIP3    H223345   1.521   0.919   3.074  0.6283 -0.2729  2.3326
  644TIP3   OH223346   1.637   3.854   4.274  0.3856 -0.2010 -0.3603
  644TIP3    H123347   1.593   3.938   4.263  2.4600  0.7610 -1.7836
  644TIP3    H223348   1.730   3.875   4.268  0.9788 -2.4402  0.4774
  645TIP3   OH223349   2.481   5.542   4.948  0.0689  0.4348 -0.2598
  645TIP3    H123350   2.470   5.622   4.898 -2.3930  0.2379 -0.1070
  645TIP3    H223351   2.541   5.566   5.019 -0.6347  2.1359 -0.2222
  646TIP3   OH223352   5.630   2.955  16.731  0.3389  0.3823 -0.1327
  646TIP3    H123353   5.609   3.047  16.749  0.4376 -0.0432  2.4848
  646TIP3    H223354   5.594   2.908  16.806 -0.5269 -1.8439 -1.8959
  647TIP3   OH223355   3.249   5.133   1.941 -0.0502  0.1171 -0.4392
  647TIP3    H123356   3.203   5.076   2.003 -0.1931  0.2170 -0.4508
  647TIP3    H223357   3.183   5.154   1.875  0.0616  0.1249 -0.5485
  648TIP3   OH223358   0.778   2.797   2.007 -0.3155 -0.4480 -0.6680
  648TIP3    H123359   0.861   2.804   1.959 -0.4484  0.1532 -0.8227
  648TIP3    H223360   0.711   2.800   1.939 -0.5443  1.4144 -0.3988
  649TIP3   OH223361   0.069   4.262  14.102  0.3459 -0.2722  0.7689
  649TIP3    H123362   0.162   4.264  14.126  0.6333  1.5467 -0.3721
  649TIP3    H223363   0.025   4.308  14.173  0.5708  0.6454  0.3185
  650TIP3   OH223364   0.881   0.234   1.440 -0.2752  0.5451 -0.1889
  650TIP3    H123365   0.925   0.211   1.359 -2.0865 -2.7883 -0.3366
  650TIP3    H223366   0.806   0.288   1.413 -0.4263  0.0956 -0.6728
  651TIP3   OH223367   4.960   5.668   0.255  0.0808  0.4417  0.0649
  651TIP3    H123368   4.899   5.690   0.185 -0.0469 -0.5364 -0.1343
  651TIP3    H223369   5.046   5.694   0.221 -0.1236  1.0878  0.0328
  652TIP3   OH223370   6.265   4.689   5.380  0.2203 -0.1134  0.0338
  652TIP3    H123371   6.331   4.744   5.422  0.6387 -1.7060  1.4992
  652TIP3    H223372   6.308   4.604   5.368  0.5555  0.5744 -4.7845
  653TIP3   OH223373   2.620   1.466   3.327  0.5146  0.3972  0.0054
  653TIP3    H123374   2.681   1.400   3.359  0.2109  0.1339  0.0434
  653TIP3    H223375   2.652   1.487   3.239 -0.7963 -1.5928 -0.9841
  654TIP3   OH223376   5.102   1.080  16.745  0.3597 -0.2444 -0.0622
  654TIP3    H123377   5.121   1.162  16.791  2.6469 -0.0892 -1.1903
  654TIP3    H223378   5.136   1.012  16.803 -0.0839 -0.2898  0.1468
  655TIP3   OH223379   3.138   3.500   0.133 -0.0445 -0.1507 -0.4272
  655TIP3    H123380   3.109   3.581   0.090 -1.2021 -0.4341 -0.2026
  655TIP3    H223381   3.059   3.447   0.141  0.2428 -0.3477  1.5116
  656TIP3   OH223382   3.907   6.514  10.780  0.0289  0.3164 -0.6280
  656TIP3    H123383   3.857   6.438  10.750  0.2616 -1.2286  2.6521
  656TIP3    H223384   3.840   6.574  10.814  0.1828 -0.5110  1.1519
  657TIP3   OH223385   2.624   5.437   5.359 -0.1255 -0.4245 -0.3140
  657TIP3    H123386   2.535   5.404   5.347  0.1546 -1.3871  0.2701
  657TIP3    H223387   2.651   5.406   5.445  0.1152  1.4111  0.3002
  658TIP3   OH223388   3.630   2.500   2.290 -0.0096 -0.2169  0.4179
  658TIP3    H123389   3.649   2.407   2.273  0.1656 -0.0711 -0.1960
  658TIP3    H223390   3.550   2.499   2.342 -1.1184 -0.6348 -1.2671
  659TIP3   OH223391   3.817   4.151  15.188  0.0017 -0.9018  0.0546
  659TIP3    H123392   3.766   4.231  15.200  1.3034  0.1936 -1.5714
  659TIP3    H223393   3.859   4.138  15.273  1.0240  1.0494 -0.1135
  660TIP3   OH223394   6.069   4.513   0.538 -0.0017 -0.0249  0.0201
  660TIP3    H123395   6.142   4.492   0.479 -1.1983 -0.1451 -1.4500
  660TIP3    H223396   6.012   4.570   0.486 -2.1197 -1.8219  0.3055
  661TIP3   OH223397   3.715   4.983  12.678 -0.0011 -0.0747 -0.1204
  661TIP3    H123398   3.761   5.067  12.687  0.3944 -0.5463  2.8924
  661TIP3    H223399   3.732   4.956  12.588 -0.0846  3.0300 -1.1302
  662TIP3   OH223400   5.089   4.725  11.755 -0.0767  0.3883  0.2465
  662TIP3    H123401   5.057   4.815  11.751  1.9373  1.0756 -1.4697
  662TIP3    H223402   5.140   4.714  11.674 -1.2090 -2.6583 -0.1128
  663TIP3   OH223403   5.707   2.073  11.011 -0.0752  0.4563 -0.2553
  663TIP3    H123404   5.679   2.148  10.959 -2.3601 -0.2605 -0.1230
  663TIP3    H223405   5.784   2.104  11.058 -0.8869  2.6671 -0.3035
  664TIP3   OH223406   1.345   2.279  10.409  0.2175 -0.0037 -0.0447
  664TIP3    H123407   1.299   2.228  10.476  0.4239 -1.7663 -1.2240
  664TIP3    H223408   1.396   2.215  10.361  2.5712  1.6930  0.1178
  665TIP3   OH223409   0.965   1.598  17.223  0.0028  0.0059  0.8319
  665TIP3    H123410   0.999   1.539  17.291 -0.3941 -3.0033 -1.4964
  665TIP3    H223411   1.041   1.652  17.198  0.9035 -0.9092  1.5361
  666TIP3   OH223412   1.619   1.946   5.022 -0.2042 -0.1594  0.3805
  666TIP3    H123413   1.589   2.017   4.965 -0.8162 -0.5093  0.2573
  666TIP3    H223414   1.671   1.890   4.965 -2.4206 -1.5498 -0.3244
  667TIP3   OH223415   2.742   0.401   2.856  0.2891  0.7073 -0.4350
  667TIP3    H123416   2.707   0.352   2.782  0.3789  0.1067 -0.0868
  667TIP3    H223417   2.676   0.468   2.874 -1.0496 -0.8548  0.6697
  668TIP3   OH223418   0.182   4.821   2.741  0.6023  0.5676 -0.1545
  668TIP3    H123419   0.098   4.805   2.784  0.2489 -0.9710 -1.3780
  668TIP3    H223420   0.248   4.786   2.801  0.4635  2.5778  1.2190
  669TIP3   OH223421   0.901   4.006   2.443  0.2158 -0.6772  0.7452
  669TIP3    H123422   0.871   4.095   2.462 -1.3278 -1.4238  1.9223
  669TIP3    H223423   0.867   3.987   2.356 -0.2543 -0.4470  0.8765
  670TIP3   OH223424   1.873   2.554  12.627 -0.2725  0.5562 -0.0743
  670TIP3    H123425   1.785   2.519  12.638 -0.2237  0.2533 -0.6512
  670TIP3    H223426   1.864   2.648  12.638 -0.7164  0.5550 -0.4684
  671TIP3   OH223427   1.293   0.485   0.841  0.1223 -0.1586 -0.2434
  671TIP3    H123428   1.363   0.535   0.883  1.5167 -1.1790 -1.3166
  671TIP3    H223429   1.310   0.394   0.866  0.4017 -0.6606 -2.1726
  672TIP3   OH223430   6.406   4.080   5.091 -0.0767 -0.1266  0.1328
  672TIP3    H123431   6.332   4.039   5.045 -0.3150  0.7086 -0.2495
  672TIP3    H223432   6.478   4.018   5.080 -0.2941 -0.2135 -0.8746
  673TIP3   OH223433   4.777   5.780  16.707  0.2679  0.2010 -0.1930
  673TIP3    H123434   4.833   5.776  16.629  1.3713 -0.9550  0.6523
  673TIP3    H223435   4.799   5.702  16.757 -1.6013  0.0913  0.5045
  674TIP3   OH223436   1.234   1.620  11.236 -0.2730 -0.9082 -0.3236
  674TIP3    H123437   1.251   1.688  11.302  3.4218  0.0474 -2.0903
  674TIP3    H223438   1.259   1.538  11.279  2.0033 -0.3056 -0.4115
  675TIP3   OH223439   2.812   4.607  12.629 -0.5798  0.2001  0.0130
  675TIP3    H123440   2.779   4.583  12.542 -0.3111  0.3983 -0.1457
  675TIP3    H223441   2.776   4.540  12.688 -2.7795  1.4594  0.1368
  676TIP3   OH223442   2.834   2.260  15.763  0.0623  0.2449 -0.7530
  676TIP3    H123443   2.926   2.232  15.762  0.0979  0.3813 -1.4738
  676TIP3    H223444   2.832   2.339  15.709 -0.4672  0.2863 -0.6805
  677TIP3   OH223445   5.370   5.562  15.379 -0.2306 -0.3509 -0.3602
  677TIP3    H123446   5.369   5.611  15.461 -0.1399  0.4882 -0.8572
  677TIP3    H223447   5.281   5.570  15.345 -0.5142 -1.4442  0.0860
  678TIP3   OH223448   5.887   1.500  15.530  0.3668 -0.2187 -0.5697
  678TIP3    H123449   5.877   1.410  15.499  1.5549 -0.2350 -0.9436
  678TIP3    H223450   5.912   1.549  15.452  1.2986  0.1327 -0.0584
  679TIP3   OH223451   3.739   0.359   3.346  0.0669  0.3718  0.6332
  679TIP3    H123452   3.833   0.369   3.360  0.5720 -1.1930 -1.3332
  679TIP3    H223453   3.726   0.264   3.335 -1.2439  0.8028 -2.0711
  680TIP3   OH223454   2.023   5.416  10.968 -0.5038 -0.3648  0.4550
  680TIP3    H123455   1.988   5.477  11.033  0.5014 -0.4964  1.1342
  680TIP3    H223456   2.060   5.344  11.020  0.4597 -0.3835 -0.2468
  681TIP3   OH223457   4.048   0.286   4.768 -1.0322 -0.3424 -0.4581
  681TIP3    H123458   4.044   0.267   4.861 -1.2142  1.4574 -0.0851
  681TIP3    H223459   3.983   0.355   4.754 -0.3286  0.0805 -1.7378
  682TIP3   OH223460   6.209   3.100  12.752  0.0241 -0.8852 -0.6993
  682TIP3    H123461   6.198   3.191  12.725 -0.8307 -0.7767 -0.0081
  682TIP3    H223462   6.235   3.054  12.672 -1.2386 -0.3542 -1.4249
  683TIP3   OH223463   3.669   5.644   4.701  0.3722 -0.4530 -0.1996
  683TIP3    H123464   3.671   5.599   4.785 -0.4000 -0.5586 -0.2356
  683TIP3    H223465   3.622   5.726   4.718  3.3177  1.2354  0.2842
  684TIP3   OH223466   1.104   2.605   1.186 -0.1590  0.1923 -0.0864
  684TIP3    H123467   1.064   2.680   1.142  1.7763  2.4157  1.7889
  684TIP3    H223468   1.041   2.579   1.253 -0.1259  1.1872  0.3263
  685TIP3   OH223469   4.350   2.875  11.371 -0.6962  0.5165 -0.1055
  685TIP3    H123470   4.333   2.830  11.288 -2.3333 -1.0296  1.0212
  685TIP3    H223471   4.445   2.879  11.378 -0.5452 -0.6328 -1.3735
  686TIP3   OH223472   0.499   4.954  15.593 -0.0275  0.0695 -0.0016
  686TIP3    H123473   0.568   4.988  15.649 -0.9829 -0.5362  1.5715
  686TIP3    H223474   0.541   4.889  15.537  0.8584  0.4278  0.2548
  687TIP3   OH223475   0.915   5.038   3.384  0.2059  0.4559 -0.0216
  687TIP3    H123476   0.949   4.955   3.350  0.8109  1.1952 -1.2896
  687TIP3    H223477   0.994   5.089   3.404 -0.1478  1.2019 -0.4916
  688TIP3   OH223478   0.470   3.131  11.581 -0.3663 -0.5676  0.0265
  688TIP3    H123479   0.521   3.078  11.520 -0.3763 -1.5751  0.8840
  688TIP3    H223480   0.429   3.068  11.640 -0.0153  0.3933  1.3425
  689TIP3   OH223481   6.458   5.234   4.886 -0.2357  0.0069 -0.5689
  689TIP3    H123482   6.375   5.244   4.933  1.6120  0.2970  2.8016
  689TIP3    H223483   6.476   5.140   4.889 -0.5768 -0.1052 -1.6244
  690TIP3   OH223484   2.565   4.293  12.301 -0.4676  0.5379 -0.0679
  690TIP3    H123485   2.606   4.361  12.248  0.5099 -0.0671 -0.1050
  690TIP3    H223486   2.474   4.322  12.312  0.0543  2.0595  0.3054
  691TIP3   OH223487   0.326   0.866   5.451 -0.1221 -0.1129  0.5266
  691TIP3    H123488   0.267   0.805   5.496 -1.6509  1.2858  0.4423
  691TIP3    H223489   0.338   0.937   5.514 -0.9054  1.0314 -0.5945
  692TIP3   OH223490   5.078   4.675  13.853  0.2001  0.1285  0.1691
  692TIP3    H123491   5.053   4.602  13.797 -1.0410 -0.3590  1.3207
  692TIP3    H223492   5.015   4.744  13.834  0.8533  0.5965 -0.3042
  693TIP3   OH223493   0.875   3.123   6.324  0.0944 -0.0510  0.2049
  693TIP3    H123494   0.960   3.083   6.344  0.5245  1.0807  0.6816
  693TIP3    H223495   0.828   3.122   6.408 -0.9506 -2.0149 -0.3666
  694TIP3   OH223496   4.590   4.614  16.507  0.3989 -0.4154 -0.5821
  694TIP3    H123497   4.530   4.543  16.481  0.7049 -0.2025 -1.9231
  694TIP3    H223498   4.663   4.606  16.446 -0.4872  2.2720 -2.0632
  695TIP3   OH223499   5.950   0.836   3.225  0.4050  0.0181  0.1728
  695TIP3    H123500   5.874   0.804   3.273  0.3994  0.6847  0.6099
  695TIP3    H223501   5.984   0.759   3.180  0.3443 -0.5879  1.1559
  696TIP3   OH223502   2.217   5.455  13.388 -0.9939  0.4983  0.2608
  696TIP3    H123503   2.165   5.424  13.314 -1.8708 -0.1566  1.1458
  696TIP3    H223504   2.304   5.471  13.351 -1.1462 -0.8320 -0.6837
  697TIP3   OH223505   0.638   2.405  14.700  0.4841  0.0534  0.7470
  697TIP3    H123506   0.698   2.331  14.689 -0.3762 -0.6975  1.0758
  697TIP3    H223507   0.553   2.365  14.717 -0.2140  1.1085 -0.1919
  698TIP3   OH223508   6.300   2.608   2.505 -0.1457 -0.2613 -0.4341
  698TIP3    H123509   6.303   2.531   2.448  0.4606 -0.7017  0.1895
  698TIP3    H223510   6.206   2.624   2.518 -0.2779 -0.6832 -0.8477
  699TIP3   OH223511   1.666   6.501   1.624 -0.0047  0.3443 -0.1478
  699TIP3    H123512   1.633   6.461   1.543 -0.2666 -0.0510  0.1498
  699TIP3    H223513   1.614   6.580   1.635  0.2852  0.5916 -0.5649
  700TIP3   OH223514   6.059   0.183  12.077  0.1390 -0.4867  0.0136
  700TIP3    H123515   6.139   0.149  12.117  1.5190  1.3549 -1.1022
  700TIP3    H223516   6.077   0.181  11.983 -1.1557 -0.0772 -0.2510
  701TIP3   OH223517   5.807   0.535   4.269 -0.5470  1.0505  0.6632
  701TIP3    H123518   5.888   0.583   4.254 -0.3328  0.2726 -0.7423
  701TIP3    H223519   5.738   0.596   4.243 -0.3222  0.9670 -0.1320
  702TIP3   OH223520   5.557   2.498   1.130 -0.2532  0.0644  0.3214
  702TIP3    H123521   5.467   2.469   1.115 -0.3594  0.5941 -0.1000
  702TIP3    H223522   5.565   2.577   1.076 -0.6205  1.9970  3.0113
  703TIP3   OH223523   3.682   1.359  11.723 -0.2479 -0.0994 -0.4668
  703TIP3    H123524   3.766   1.401  11.705 -1.9451  2.4437 -2.8006
  703TIP3    H223525   3.677   1.287  11.660  0.4049 -0.6096  0.0567
  704TIP3   OH223526   1.552   6.440  12.513 -0.1056  0.2937 -0.1736
  704TIP3    H123527   1.572   6.360  12.561  1.0859  1.1086  0.7188
  704TIP3    H223528   1.522   6.501  12.580  2.3124  1.6914 -0.3040
  705TIP3   OH223529   3.992   5.296  12.763 -0.0563 -0.4017 -0.0754
  705TIP3    H123530   3.990   5.390  12.778  2.1726 -0.5685  1.4957
  705TIP3    H223531   3.926   5.281  12.695  1.2091  2.5965 -2.0789
  706TIP3   OH223532   5.963   3.492  16.101 -0.5323 -0.1965  0.8184
  706TIP3    H123533   5.941   3.454  16.016 -1.0426 -0.2766  0.9848
  706TIP3    H223534   5.952   3.420  16.163 -1.5401  0.2320  1.1405
  707TIP3   OH223535   5.728   5.695  14.464 -0.0227 -0.0745  0.4030
  707TIP3    H123536   5.822   5.677  14.456 -0.5053 -2.7568  0.3345
  707TIP3    H223537   5.693   5.674  14.378 -0.5514  2.0603  0.0674
  708TIP3   OH223538   4.236   6.701   0.831 -0.2107  0.0180  0.2181
  708TIP3    H123539   4.200   6.614   0.848  0.5875 -0.5932 -1.1913
  708TIP3    H223540   4.203   6.724   0.744 -0.3690  1.1045  0.5588
  709TIP3   OH223541   6.605   1.398  13.919  0.1132  0.1677  0.3306
  709TIP3    H123542   6.568   1.486  13.929 -3.3046 -0.9903 -1.0923
  709TIP3    H223543   6.693   1.413  13.885 -0.1482  3.0355  0.7234
  710TIP3   OH223544   3.541   4.226   4.325  0.0022 -0.4156  0.0014
  710TIP3    H123545   3.566   4.140   4.293 -1.2264 -0.7506 -0.0678
  710TIP3    H223546   3.589   4.237   4.407  2.1279 -0.1033 -1.2638
  711TIP3   OH223547   4.158   5.711   3.438 -0.3197  0.0443 -0.4051
  711TIP3    H123548   4.222   5.702   3.509 -0.6518 -0.9964 -0.2222
  711TIP3    H223549   4.109   5.629   3.440 -2.3448  1.2082  0.1252
  712TIP3   OH223550   3.159   3.626   4.479  0.8107  0.1788 -0.3072
  712TIP3    H123551   3.083   3.661   4.525  0.1899 -0.4155 -0.8787
  712TIP3    H223552   3.233   3.675   4.516  0.2924 -0.0542  1.0851
  713TIP3   OH223553   0.525   0.412  11.460 -0.1868  0.2915 -0.0195
  713TIP3    H123554   0.487   0.483  11.513  1.1880  1.4393 -0.5218
  713TIP3    H223555   0.595   0.455  11.410  1.3799 -1.6625  0.4647
  714TIP3   OH223556   1.863   3.967  16.419 -0.4248  0.2816  0.7277
  714TIP3    H123557   1.885   3.963  16.326 -0.3220  1.7506  0.6891
  714TIP3    H223558   1.947   3.960  16.464 -0.3467  0.9658  0.6859
  715TIP3   OH223559   5.007   1.649   5.007  0.4067 -0.1168 -0.1005
  715TIP3    H123560   5.000   1.728   4.953 -0.8023  0.4560  0.8338
  715TIP3    H223561   5.066   1.591   4.959  2.3559  1.8677 -0.1887
  716TIP3   OH223562   4.401   2.286   3.480  0.1115 -0.5790  0.2216
  716TIP3    H123563   4.337   2.219   3.505 -2.2359  1.1692 -0.9380
  716TIP3    H223564   4.411   2.339   3.559  0.3099 -1.0144  0.4881
  717TIP3   OH223565   6.716   6.394  12.909  0.1242  0.3034 -0.1566
  717TIP3    H123566   6.757   6.454  12.972  1.3252  0.5563 -1.1614
  717TIP3    H223567   6.783   6.326  12.894 -0.8551 -0.7658  0.2317
  718TIP3   OH223568   1.067   2.997  15.842 -0.0542  0.4134  0.5521
  718TIP3    H123569   1.069   3.035  15.929  0.9660  0.3641  0.5615
  718TIP3    H223570   1.117   3.059  15.788  1.1701 -0.6193  0.4653
  719TIP3   OH223571   1.664   6.299  12.186  0.2903 -0.2234  0.3790
  719TIP3    H123572   1.585   6.246  12.177  1.3116 -1.4813 -1.5470
  719TIP3    H223573   1.727   6.243  12.231  0.3802  0.4689  1.1308
  720TIP3   OH223574   1.969   2.780  15.876 -0.6364 -0.2388  0.9039
  720TIP3    H123575   1.945   2.870  15.894  0.4614  0.3300 -0.4175
  720TIP3    H223576   1.940   2.765  15.786 -1.1267 -1.3185  1.2310
  721TIP3   OH223577   4.770   5.778   5.619 -0.3616  0.4951  0.4988
  721TIP3    H123578   4.743   5.833   5.691 -1.0034  0.0831  0.5778
  721TIP3    H223579   4.798   5.696   5.660 -0.9669  0.1688  0.2641
  722TIP3   OH223580   3.007   3.218   3.202 -0.1433  0.1623 -0.6716
  722TIP3    H123581   3.071   3.252   3.264 -1.4996  0.2134  0.7025
  722TIP3    H223582   2.964   3.296   3.167 -0.5881  0.0457 -0.3805
  723TIP3   OH223583   1.936   1.425  16.249 -0.3280  0.3317  0.7660
  723TIP3    H123584   1.869   1.492  16.239 -1.7890 -0.8585  2.3324
  723TIP3    H223585   2.018   1.475  16.258 -0.8179  1.7569 -2.1444
  724TIP3   OH223586   2.468   0.557   0.642 -0.2913 -0.2672 -0.7645
  724TIP3    H123587   2.480   0.633   0.698 -2.1833  0.7817 -1.7344
  724TIP3    H223588   2.519   0.577   0.563 -1.3936  0.3280 -1.3262
  725TIP3   OH223589   2.288   6.159   2.555 -0.5819  0.1444 -0.3108
  725TIP3    H123590   2.324   6.201   2.477  1.9680 -0.1053  0.6463
  725TIP3    H223591   2.309   6.066   2.544 -0.1182  0.1180  0.6685
  726TIP3   OH223592   4.605   0.930   2.310 -0.1111  0.2036 -0.0460
  726TIP3    H123593   4.621   0.939   2.404 -1.0754  1.1555  0.0425
  726TIP3    H223594   4.539   0.861   2.303  1.3530 -1.2185 -0.1708
  727TIP3   OH223595   5.036   2.668  12.856 -0.0937 -1.0870  0.2331
  727TIP3    H123596   5.081   2.750  12.877  1.3013 -1.2537 -1.8906
  727TIP3    H223597   4.975   2.691  12.786  1.1788 -2.0559 -1.2365
  728TIP3   OH223598   6.203   2.108  11.695 -1.0617 -0.3884 -0.1248
  728TIP3    H123599   6.158   2.175  11.644 -2.7874 -1.3887  0.0295
  728TIP3    H223600   6.222   2.039  11.631  0.3460  0.0539 -0.2019
  729TIP3   OH223601   6.769   2.850   0.615 -0.1193  0.2126 -0.2850
  729TIP3    H123602   6.731   2.905   0.683  0.1442 -0.3118  0.2871
  729TIP3    H223603   6.696   2.800   0.580 -0.1982  0.2414 -0.1594
  730TIP3   OH223604   2.850   0.710   5.436 -0.3572 -0.4971  0.1009
  730TIP3    H123605   2.765   0.703   5.478 -1.4054  1.8067 -1.4918
  730TIP3    H223606   2.903   0.761   5.497 -0.9932  0.3845 -0.0622
  731TIP3   OH223607   0.013   4.781   0.572  0.5190  0.3888  0.1005
  731TIP3    H123608  -0.044   4.783   0.495  1.0408  0.6993 -0.2759
  731TIP3    H223609  -0.041   4.818   0.642  0.3683  1.0068 -0.3344
  732TIP3   OH223610   0.927   1.109  16.160  0.3549  0.1560  0.5033
  732TIP3    H123611   0.876   1.059  16.223  0.1516 -1.1115 -0.6521
  732TIP3    H223612   0.982   1.044  16.116  1.6914  1.2524  0.5015
  733TIP3   OH223613   0.363   0.950   1.103 -0.1555 -0.4479 -0.0843
  733TIP3    H123614   0.277   0.910   1.093 -1.3236  1.4530  1.9485
  733TIP3    H223615   0.397   0.914   1.186  0.3906 -0.0975 -0.1511
  734TIP3   OH223616   5.484   2.418   5.552  0.1369 -0.2462  0.3001
  734TIP3    H123617   5.451   2.348   5.608 -2.0543 -0.0672 -0.7245
  734TIP3    H223618   5.520   2.372   5.476 -2.1463 -0.2676 -0.8092
  735TIP3   OH223619   5.798   3.753  11.459 -0.0312  0.0773 -0.2913
  735TIP3    H123620   5.774   3.660  11.463  2.0808 -0.5200 -0.6902
  735TIP3    H223621   5.847   3.762  11.377 -2.6314  2.1710 -1.6859
  736TIP3   OH223622   6.186   6.631  16.255 -0.0641  0.1489 -0.2582
  736TIP3    H123623   6.245   6.596  16.321 -0.5139 -0.4461 -0.1667
  736TIP3    H223624   6.099   6.617  16.290 -0.2733  0.7292 -0.5358
  737TIP3   OH223625   5.482   4.776  16.998 -0.4097  0.1156  0.2249
  737TIP3    H123626   5.499   4.717  17.071  0.5313  0.9075  0.6673
  737TIP3    H223627   5.535   4.854  17.018 -0.7145  0.6294 -0.9302
  738TIP3   OH223628   0.074   3.361  16.119 -1.1668  0.0673 -0.0939
  738TIP3    H123629   0.016   3.390  16.049  0.0099  0.3873 -0.9466
  738TIP3    H223630   0.105   3.275  16.091 -1.1889 -0.0823  0.3350
  739TIP3   OH223631   5.180   1.912  11.401 -0.4032 -0.0936 -0.1861
  739TIP3    H123632   5.130   1.875  11.328 -1.8082  0.8998  0.2614
  739TIP3    H223633   5.143   1.870  11.479  1.6398 -1.7692 -0.0653
  740TIP3   OH223634   1.143   5.572  10.815 -0.4633  0.3316 -0.2861
  740TIP3    H123635   1.067   5.532  10.773  0.4724  0.5013 -2.2100
  740TIP3    H223636   1.107   5.633  10.879 -1.9359  0.3947 -1.1602
  741TIP3   OH223637   6.484   0.233   0.023 -0.3169  0.3981  0.7117
  741TIP3    H123638   6.397   0.273   0.035  0.0167  1.3201  0.1130
  741TIP3    H223639   6.538   0.273   0.091 -0.1725  0.3782  0.6064
  742TIP3   OH223640   6.444   3.610  14.681  0.4430 -0.0082  0.3731
  742TIP3    H123641   6.448   3.605  14.777 -0.2243  0.0661  0.4064
  742TIP3    H223642   6.369   3.555  14.657  1.6892 -1.4646 -0.2344
  743TIP3   OH223643   3.419   4.569   3.702  0.0102 -0.4104 -0.4341
  743TIP3    H123644   3.427   4.651   3.750 -0.3779 -1.5149  1.5444
  743TIP3    H223645   3.324   4.557   3.691  0.0137 -1.1989  0.3503
  744TIP3   OH223646   2.719   3.976  16.491 -0.3432  0.4303  0.3832
  744TIP3    H123647   2.770   3.951  16.568  0.6991 -0.1860 -0.4925
  744TIP3    H223648   2.707   4.071  16.500  0.5667  0.5095  0.8278
  745TIP3   OH223649   4.307   3.229   0.093  0.2033 -0.2168  0.6119
  745TIP3    H123650   4.231   3.275   0.130 -0.8074 -0.7496 -0.7674
  745TIP3    H223651   4.380   3.290   0.106 -1.1442  1.9049 -1.3530
  746TIP3   OH223652   0.123   0.707   4.457  1.0988 -0.0081  0.0669
  746TIP3    H123653   0.130   0.616   4.483  2.7077 -0.7324 -2.6946
  746TIP3    H223654   0.134   0.706   4.362 -0.6065  2.8883 -0.2308
  747TIP3   OH223655   2.823   0.566  16.530  0.2546  0.2853 -0.1082
  747TIP3    H123656   2.881   0.640  16.511  0.9784 -0.2701 -0.0644
  747TIP3    H223657   2.750   0.576  16.468  0.3919  0.9783 -0.1640
  748TIP3   OH223658   2.845   0.807   3.008 -0.0360  0.0193  1.0834
  748TIP3    H123659   2.840   0.773   3.098 -1.0538 -1.1544  0.6000
  748TIP3    H223660   2.770   0.866   3.002  1.0231  1.4156  1.5368
  749TIP3   OH223661   5.212   3.048  11.109 -0.2431  0.4683  0.3858
  749TIP3    H123662   5.133   3.100  11.120  0.0083  0.9040  0.1557
  749TIP3    H223663   5.188   2.981  11.045 -0.8985 -0.3957  1.5118
  750TIP3   OH223664   3.541   0.603   3.700  0.3345  0.7366  0.4553
  750TIP3    H123665   3.567   0.511   3.705  0.7504  0.7247 -1.7098
  750TIP3    H223666   3.608   0.649   3.751  0.2114 -0.1176  1.4186
  751TIP3   OH223667   3.966   2.472  16.044  0.2330  0.0010 -0.2796
  751TIP3    H123668   3.959   2.398  15.985  0.1139 -0.7498  0.6598
  751TIP3    H223669   4.015   2.538  15.995 -0.2972 -0.4149 -1.3903
  752TIP3   OH223670   5.033   1.419   0.840 -0.3554  0.1244 -0.0498
  752TIP3    H123671   5.033   1.430   0.745  0.3917  0.4128 -0.0163
  752TIP3    H223672   4.954   1.466   0.869  1.0365  2.6581 -0.2425
  753TIP3   OH223673   4.824   4.947   5.603 -0.2833  0.0171 -0.7492
  753TIP3    H123674   4.887   5.002   5.557  0.9213 -0.9316 -0.2320
  753TIP3    H223675   4.757   4.928   5.537  1.0533 -0.7178 -1.9239
  754TIP3   OH223676   6.671   6.736   1.389 -0.6472  0.2657 -0.7203
  754TIP3    H123677   6.729   6.808   1.414 -1.0259  0.3020  0.0737
  754TIP3    H223678   6.728   6.673   1.345  0.1749 -0.0826  0.7939
  755TIP3   OH223679   0.128   2.739   5.790 -0.5450  0.6515 -0.0827
  755TIP3    H123680   0.078   2.774   5.716 -0.7694  1.1441  0.3041
  755TIP3    H223681   0.119   2.805   5.858 -1.0242 -0.1792  0.6709
  756TIP3   OH223682   0.159   2.828   4.075 -0.2677 -0.2828  0.3582
  756TIP3    H123683   0.237   2.876   4.047  0.2614  0.2079  2.5962
  756TIP3    H223684   0.086   2.888   4.060 -0.0299 -0.1272 -0.1898
  757TIP3   OH223685   5.743   3.038  16.504 -0.3735 -0.1286 -0.2472
  757TIP3    H123686   5.722   2.978  16.576 -0.5396  0.2235 -0.0019
  757TIP3    H223687   5.681   3.111  16.515  1.4853  1.3150  0.9638
  758TIP3   OH223688   1.368   4.825  12.573  0.3510 -0.2811 -0.1722
  758TIP3    H123689   1.432   4.860  12.512  0.0798  0.8092  0.1542
  758TIP3    H223690   1.403   4.845  12.659  0.5800 -1.5354  0.0253
  759TIP3   OH223691   0.558   2.693   3.884 -0.2667 -0.0741  0.4268
  759TIP3    H123692   0.581   2.745   3.961  1.7639 -0.7452  0.2845
  759TIP3    H223693   0.550   2.603   3.917 -0.6453 -0.1705  0.0795
  760TIP3   OH223694   4.781   3.418   1.917  0.4267  0.2256 -0.4549
  760TIP3    H123695   4.692   3.411   1.884  1.4189 -0.3690 -3.1144
  760TIP3    H223696   4.784   3.359   1.992 -1.9488  1.8074  0.9452
  761TIP3   OH223697   1.248   6.191  16.870  0.1991 -0.1419  0.1834
  761TIP3    H123698   1.255   6.280  16.903  2.3123 -0.0128 -0.5374
  761TIP3    H223699   1.175   6.153  16.919 -1.3547  2.2503 -0.1896
  762TIP3   OH223700   4.013   4.869  16.258  0.3700  0.5306  0.6117
  762TIP3    H123701   3.935   4.921  16.278 -0.9738 -0.8689 -0.8435
  762TIP3    H223702   4.008   4.852  16.164  2.0405 -0.2167  0.6305
  763TIP3   OH223703   0.987   2.576  16.921 -0.8023  0.4005 -0.5211
  763TIP3    H123704   0.919   2.578  16.854 -0.7987  2.7475 -0.5041
  763TIP3    H223705   1.067   2.555  16.873 -0.4772  3.8372 -1.6326
  764TIP3   OH223706   2.755   0.302   5.928  0.3370  0.1479 -0.1016
  764TIP3    H123707   2.748   0.317   5.834  0.5411 -0.9465 -0.3041
  764TIP3    H223708   2.664   0.307   5.960  0.1821 -0.1817 -0.4819
  765TIP3   OH223709   1.624   0.726  14.472  0.2388  0.5430 -0.6731
  765TIP3    H123710   1.569   0.648  14.474  0.2413  0.5827  1.3475
  765TIP3    H223711   1.563   0.799  14.463  0.2422  0.3254 -2.6625
  766TIP3   OH223712   2.792   0.274   3.910  0.0743  0.2235 -0.6039
  766TIP3    H123713   2.826   0.245   3.825  0.6027 -0.1492 -0.2723
  766TIP3    H223714   2.697   0.263   3.903  0.2890 -2.1276 -0.3061
  767TIP3   OH223715   6.396   3.284  16.401  0.6791  0.0825 -0.3950
  767TIP3    H123716   6.374   3.284  16.308  0.9955  0.9821 -0.4710
  767TIP3    H223717   6.352   3.362  16.436  0.8326 -0.0674  0.1456
  768TIP3   OH223718   5.202   2.201   6.113 -0.1391 -0.6236 -0.1415
  768TIP3    H123719   5.133   2.241   6.166  0.2986  1.3131 -1.0112
  768TIP3    H223720   5.268   2.173   6.176  0.2911  1.4917  0.3719
  769TIP3   OH223721   2.128   1.178   0.518 -0.4535 -0.5698 -0.1249
  769TIP3    H123722   2.104   1.271   0.522  1.2743 -0.0643 -0.7906
  769TIP3    H223723   2.059   1.137   0.467 -0.5072  0.6185 -1.0293
  770TIP3   OH223724   0.811   2.969  13.797 -0.2114  0.4668  0.0279
  770TIP3    H123725   0.839   2.895  13.743 -0.5988  1.1292 -1.0879
  770TIP3    H223726   0.782   3.035  13.735  0.0272  1.5258  1.0286
  771TIP3   OH223727   0.392   4.107   6.446  0.3472  0.4200  0.0024
  771TIP3    H123728   0.410   4.024   6.490  1.1497  0.7082  0.2451
  771TIP3    H223729   0.387   4.171   6.518 -0.6709  0.5111 -0.1515
  772TIP3   OH223730   3.002   5.410  12.196  0.5284 -0.3175 -0.0061
  772TIP3    H123731   2.929   5.448  12.148  0.0113 -1.8905 -0.4702
  772TIP3    H223732   2.969   5.326  12.229  1.2653  0.1574  2.0510
  773TIP3   OH223733   5.638   3.665   4.455  0.5154 -0.2577 -0.0814
  773TIP3    H123734   5.671   3.755   4.454  0.8720 -0.3878  0.0467
  773TIP3    H223735   5.689   3.621   4.523 -2.6573  0.5695  2.9404
  774TIP3   OH223736   0.268   1.835   3.291  0.4253 -0.2573  0.0472
  774TIP3    H123737   0.352   1.840   3.246 -0.4483 -0.2821 -1.6003
  774TIP3    H223738   0.236   1.925   3.293  0.5150 -0.2334  0.7511
  775TIP3   OH223739   2.099   0.447  15.735 -0.2727 -0.4878  0.4307
  775TIP3    H123740   2.141   0.482  15.814 -0.8319  1.4339 -0.1006
  775TIP3    H223741   2.169   0.447  15.669  0.0004 -1.3879  0.7149
  776TIP3   OH223742   4.181   6.233   1.666 -0.3700  0.1735 -0.0050
  776TIP3    H123743   4.147   6.148   1.640  1.3450 -0.6610  0.4008
  776TIP3    H223744   4.104   6.282   1.695 -1.1733 -1.7913  1.2715
  777TIP3   OH223745   4.996   5.539  13.704 -0.0713 -0.5250 -0.1117
  777TIP3    H123746   5.075   5.579  13.742 -0.0204 -2.0349  1.4215
  777TIP3    H223747   5.024   5.510  13.617  0.4753  0.8213 -0.4075
  778TIP3   OH223748   4.359   1.364  11.870  0.1746  0.3525 -0.2524
  778TIP3    H123749   4.291   1.309  11.907  0.6291  0.0224  0.1079
  778TIP3    H223750   4.317   1.410  11.798 -0.3138 -0.1597 -0.2943
  779TIP3   OH223751   0.520   0.678   2.198  0.4249 -0.3639  0.6874
  779TIP3    H123752   0.523   0.609   2.131  1.4764 -0.1772  0.5346
  779TIP3    H223753   0.496   0.757   2.150  2.2045 -0.0216  0.3501
  780TIP3   OH223754   3.775   2.844   1.852  0.6120 -0.6469  0.3062
  780TIP3    H123755   3.703   2.782   1.849  1.0536 -1.1360 -0.7248
  780TIP3    H223756   3.746   2.912   1.912 -1.2612 -0.1720 -1.0647
  781TIP3   OH223757   1.670   5.772  13.817  0.4341  0.6341  0.0296
  781TIP3    H123758   1.631   5.859  13.809  0.3394  0.4611 -1.5722
  781TIP3    H223759   1.601   5.718  13.856 -0.4545  0.6500 -1.4981
  782TIP3   OH223760   3.140   4.084   5.132  0.1814  0.0849  0.3715
  782TIP3    H123761   3.098   4.127   5.058 -0.3563 -0.8053  0.1560
  782TIP3    H223762   3.129   3.991   5.116 -0.2416 -0.1175  1.7552
  783TIP3   OH223763   6.088   2.757   6.167  0.3350  0.1913  0.4412
  783TIP3    H123764   6.176   2.741   6.132 -0.7793 -3.5479 -0.8266
  783TIP3    H223765   6.094   2.732   6.260  0.3581 -1.1055  0.0970
  784TIP3   OH223766   3.673   4.449  15.536  0.0010  0.0354 -0.4328
  784TIP3    H123767   3.599   4.499  15.503 -0.3814  0.5481  1.1514
  784TIP3    H223768   3.648   4.425  15.626  1.9135  0.5758  0.2788
  785TIP3   OH223769   6.208   0.804  12.668  0.6052  0.0347  0.2437
  785TIP3    H123770   6.168   0.780  12.585 -0.2262 -0.6014  0.8182
  785TIP3    H223771   6.278   0.740  12.681  1.6658  0.9951 -0.6394
  786TIP3   OH223772   4.979   0.761   0.128 -0.5934  0.3263  0.2055
  786TIP3    H123773   4.898   0.799   0.094 -1.5615 -1.3034  0.6328
  786TIP3    H223774   4.951   0.705   0.200  1.0941  1.0316  1.4546
  787TIP3   OH223775   5.534   3.170  13.309 -0.2912  0.0566  0.1060
  787TIP3    H123776   5.587   3.234  13.261  0.7045 -0.1234  0.9351
  787TIP3    H223777   5.464   3.146  13.248  2.0407 -1.6643 -2.0681
  788TIP3   OH223778   0.368   6.056  12.127 -0.1225  0.2133 -0.0452
  788TIP3    H123779   0.295   6.039  12.067 -0.5633  0.7666  0.3257
  788TIP3    H223780   0.334   6.122  12.188  0.0994 -0.8314  1.2262
  789TIP3   OH223781   1.901   3.090  11.724  0.4960  0.2826 -0.2774
  789TIP3    H123782   1.977   3.103  11.668  1.5903 -1.5484  0.7172
  789TIP3    H223783   1.934   3.102  11.813 -0.6381  0.6528  0.1020
  790TIP3   OH223784   3.457   2.718   2.833  0.3557 -0.6662  0.2743
  790TIP3    H123785   3.428   2.770   2.908 -0.5346 -1.8327  0.7591
  790TIP3    H223786   3.545   2.690   2.856  0.2222 -0.7190  0.7353
  791TIP3   OH223787   6.007   4.043   3.685  0.7910  0.1660  0.3183
  791TIP3    H123788   6.033   4.075   3.599 -1.2784  0.9627 -0.0515
  791TIP3    H223789   6.057   3.962   3.698  1.9303  0.6324 -1.1406
  792TIP3   OH223790   0.122   3.288   0.469 -0.3555  0.0698  0.3731
  792TIP3    H123791   0.174   3.251   0.399 -2.6308  0.3546 -1.5388
  792TIP3    H223792   0.129   3.383   0.457 -1.4821  0.1094 -0.0517
  793TIP3   OH223793   3.088   0.594   5.929  0.8812 -0.0398 -0.4871
  793TIP3    H123794   3.184   0.587   5.926  1.0651  1.1464  1.8784
  793TIP3    H223795   3.071   0.688   5.931 -0.2907 -0.2682  0.3277
  794TIP3   OH223796   3.405   3.086   3.752  0.6159 -0.5939 -0.0429
  794TIP3    H123797   3.441   3.006   3.716  0.0005 -0.9768  0.1854
  794TIP3    H223798   3.310   3.077   3.741  0.4443 -0.5744  1.4042
  795TIP3   OH223799   5.836   0.580  12.443 -0.6249  0.3902 -0.0844
  795TIP3    H123800   5.915   0.632  12.451 -0.2750 -0.2930  1.0608
  795TIP3    H223801   5.830   0.533  12.526 -0.1278 -2.5043 -1.6206
  796TIP3   OH223802   5.531   0.544  16.971  0.0988  0.4476 -0.3120
  796TIP3    H123803   5.533   0.579  16.881 -0.1681  0.0587 -0.4697
  796TIP3    H223804   5.618   0.563  17.005  0.7027 -0.7277 -1.1613
  797TIP3   OH223805   0.753   1.583   3.200 -0.5289 -0.6034 -0.3198
  797TIP3    H123806   0.837   1.619   3.228 -0.4510 -0.9384 -0.1261
  797TIP3    H223807   0.693   1.605   3.272 -0.1521 -2.1753  0.5065
  798TIP3   OH223808   2.228   2.669   5.600 -0.2130  0.2066  0.0321
  798TIP3    H123809   2.281   2.589   5.600 -1.2111 -0.4713  1.1775
  798TIP3    H223810   2.143   2.642   5.565 -1.1095  0.3574  2.0086
  799TIP3   OH223811   5.446   2.303  10.281  0.0074 -0.1451  0.5523
  799TIP3    H123812   5.436   2.243  10.207  1.6050 -2.0474  1.8214
  799TIP3    H223813   5.356   2.324  10.307 -0.5645  0.6000 -1.9429
  800TIP3   OH223814   0.361   2.202   1.887  0.1448  0.5168 -0.0931
  800TIP3    H123815   0.394   2.261   1.820  0.2923 -0.0810 -0.5554
  800TIP3    H223816   0.274   2.235   1.909  0.9203  1.9279  0.9174
  801TIP3   OH223817   0.791   3.018   3.860 -0.2960  0.2327 -1.0603
  801TIP3    H123818   0.853   2.945   3.851 -1.4718 -1.0372  0.8947
  801TIP3    H223819   0.798   3.045   3.951 -1.2503  1.3446 -1.3020
  802TIP3   OH223820   2.002   2.918   1.364 -0.5963 -0.3040  0.3135
  802TIP3    H123821   1.935   2.941   1.428 -0.2552  2.6604 -0.3151
  802TIP3    H223822   2.084   2.947   1.404 -0.1898 -0.0127 -0.7177
  803TIP3   OH223823   1.902   3.908   4.244 -0.1770  0.0521  0.0704
  803TIP3    H123824   1.935   3.909   4.334 -0.8937  0.4637  0.3380
  803TIP3    H223825   1.956   3.971   4.198 -0.3557  0.4616  0.4186
  804TIP3   OH223826   6.156   3.998   0.561  0.0844  0.0436  0.2041
  804TIP3    H123827   6.177   4.091   0.571 -0.7734  0.1653  0.9563
  804TIP3    H223828   6.191   3.956   0.639  1.7911 -0.5200 -0.8306
  805TIP3   OH223829   1.142   1.648  16.154 -0.4170  0.4839 -0.0170
  805TIP3    H123830   1.080   1.576  16.141 -0.5385  0.6097 -0.1331
  805TIP3    H223831   1.102   1.702  16.223  0.4887 -0.4811  1.2894
  806TIP3   OH223832   0.856   4.838   0.107  0.3102 -0.0501  0.0651
  806TIP3    H123833   0.798   4.881   0.044  2.8811  0.8298 -1.7485
  806TIP3    H223834   0.859   4.898   0.181 -0.1063  0.5092 -0.3651
  807TIP3   OH223835   4.824   2.179   1.891 -0.0207  0.6380 -0.0718
  807TIP3    H123836   4.769   2.121   1.944 -0.5032  0.5082 -0.7121
  807TIP3    H223837   4.786   2.266   1.905 -0.5330  0.5166 -0.6934
  808TIP3   OH223838   5.675   2.317   2.775 -0.1179 -0.1212  0.4220
  808TIP3    H123839   5.677   2.346   2.866 -0.8173  2.0251 -0.2132
  808TIP3    H223840   5.675   2.221   2.780 -0.6289 -0.0292  2.6759
  809TIP3   OH223841   0.317   5.748   1.670  0.4375  0.8317 -0.8956
  809TIP3    H123842   0.270   5.695   1.606  0.9990  0.8116 -1.2888
  809TIP3    H223843   0.335   5.831   1.625 -1.1585  1.6811 -0.0161
  810TIP3   OH223844   6.403   6.487   1.911  0.2705  0.1227 -0.6405
  810TIP3    H123845   6.460   6.438   1.852  0.6409  0.2815 -0.4148
  810TIP3    H223846   6.327   6.430   1.923  1.4810 -1.2282  1.0612
  811TIP3   OH223847   6.135   6.467   1.066  0.1706 -0.1530  0.0715
  811TIP3    H123848   6.043   6.479   1.040 -0.1179  0.8381  1.4901
  811TIP3    H223849   6.178   6.436   0.986 -1.2220  0.1889 -0.8441
  812TIP3   OH223850   3.764   3.689  16.342  0.4010  0.4369  0.7200
  812TIP3    H123851   3.778   3.602  16.380  0.8945 -0.3604 -1.1958
  812TIP3    H223852   3.803   3.749  16.404 -0.3357 -0.6766  2.2927
  813TIP3   OH223853   0.228   2.145  10.954 -0.8743  0.0058 -0.4165
  813TIP3    H123854   0.283   2.138  10.876 -1.2633  0.2611 -0.7210
  813TIP3    H223855   0.221   2.056  10.988 -2.2898 -0.4373 -1.7849
  814TIP3   OH223856   0.656   6.329   5.648 -0.0457  0.4121  0.0105
  814TIP3    H123857   0.585   6.393   5.642  0.3625  1.1465  2.6980
  814TIP3    H223858   0.613   6.244   5.636 -1.0247  0.9896 -0.6319
  815TIP3   OH223859   1.243   0.919   0.462  0.2244  0.0902 -0.1957
  815TIP3    H123860   1.261   0.878   0.377 -0.3944 -1.5284  0.4466
  815TIP3    H223861   1.148   0.915   0.471  0.2671  0.5101  0.4574
  816TIP3   OH223862   1.040   6.668   4.910  0.0564 -0.2311 -0.2483
  816TIP3    H123863   1.105   6.649   4.979 -0.0814 -0.8810 -0.2920
  816TIP3    H223864   1.091   6.672   4.830 -0.1177 -2.0143 -0.4641
  817TIP3   OH223865   1.938   2.527  16.327 -0.5069  0.0883 -0.8752
  817TIP3    H123866   1.844   2.525  16.304 -0.9599  0.7354  0.8695
  817TIP3    H223867   1.941   2.503  16.419  0.9893  0.7966 -0.7226
  818TIP3   OH223868   3.045   4.773  16.780 -0.1519 -0.1515  0.0259
  818TIP3    H123869   3.108   4.828  16.734 -1.3520  0.6325 -0.7033
  818TIP3    H223870   3.029   4.700  16.719  0.8044 -0.8991  0.6416
  819TIP3   OH223871   2.522   3.394  13.193  0.0009  0.1123 -0.7693
  819TIP3    H123872   2.594   3.334  13.213  1.3275  2.4677  1.9638
  819TIP3    H223873   2.563   3.467  13.147 -0.3534  2.0399  1.8452
  820TIP3   OH223874   3.636   2.110   1.423 -0.1024  0.3341 -0.0499
  820TIP3    H123875   3.555   2.104   1.474  0.1408  1.3263  0.4596
  820TIP3    H223876   3.647   2.203   1.406  1.3566  0.2865  0.5630
  821TIP3   OH223877   2.390   3.142   5.996  0.0085  0.5962  0.0582
  821TIP3    H123878   2.482   3.150   5.972  0.5515  0.0485  1.9536
  821TIP3    H223879   2.387   3.074   6.062 -1.5237  1.8141  1.3001
  822TIP3   OH223880   3.744   5.644  15.084  0.2349 -0.1163  0.0672
  822TIP3    H123881   3.783   5.583  15.147  0.8584  0.1950 -0.0047
  822TIP3    H223882   3.657   5.610  15.067  0.6190 -1.0427 -0.0480
  823TIP3   OH223883   0.272   4.150   5.622  0.0829 -1.1092  0.4376
  823TIP3    H123884   0.268   4.183   5.532  2.1020 -1.1430  0.3281
  823TIP3    H223885   0.216   4.072   5.622 -0.5058 -0.6947 -0.5979
  824TIP3   OH223886   4.837   0.588  13.068  0.1697 -0.0241  0.3719
  824TIP3    H123887   4.766   0.604  13.006 -0.9665  0.2983  1.7302
  824TIP3    H223888   4.800   0.612  13.153  1.4811 -1.1130  1.2607
  825TIP3   OH223889   5.219   5.181  15.259  0.1930  0.3224 -0.4399
  825TIP3    H123890   5.188   5.187  15.169  0.9420  0.3507 -0.7003
  825TIP3    H223891   5.140   5.170  15.312 -0.2994  1.0833 -1.0308
  826TIP3   OH223892   5.972   0.081  16.293  0.1324  0.2863 -0.1955
  826TIP3    H123893   6.032   0.076  16.368 -0.8136  0.1791  0.5747
  826TIP3    H223894   6.027   0.110  16.220  1.5892 -1.9975 -0.0437
  827TIP3   OH223895   5.715   3.138  11.783 -0.1360 -0.2033 -0.3809
  827TIP3    H123896   5.630   3.116  11.821  1.4295 -2.1163  2.1397
  827TIP3    H223897   5.710   3.101  11.694 -0.8211 -3.1575  0.8034
  828TIP3   OH223898   0.810   3.879  16.671 -0.2438  0.0325 -0.0880
  828TIP3    H123899   0.823   3.810  16.606  1.7306 -2.1365  2.4814
  828TIP3    H223900   0.724   3.860  16.709  0.9355 -1.9560  1.6462
  829TIP3   OH223901   5.815   0.419   5.145  0.6996  0.3735  0.1179
  829TIP3    H123902   5.836   0.332   5.112 -3.4610 -0.4975 -0.4901
  829TIP3    H223903   5.772   0.463   5.072  2.6129  2.9486  0.4623
  830TIP3   OH223904   1.429   1.623  11.997 -0.5836  0.2979 -0.7075
  830TIP3    H123905   1.474   1.707  11.993  1.1999 -0.4464  2.2437
  830TIP3    H223906   1.407   1.612  12.089 -1.2701 -2.2172 -1.1314
  831TIP3   OH223907   5.760   2.932  12.050  0.2568 -0.2746  0.1366
  831TIP3    H123908   5.731   2.854  12.004 -0.7946 -0.8711  1.7786
  831TIP3    H223909   5.807   2.983  11.983 -1.7516 -0.8070 -1.7437
  832TIP3   OH223910   2.740   3.840   4.074 -0.3326 -0.0087 -0.2164
  832TIP3    H123911   2.645   3.836   4.057 -0.3478  0.9960 -0.4300
  832TIP3    H223912   2.752   3.790   4.155 -1.1731  0.6146  0.3056
  833TIP3   OH223913   0.025   5.196  14.164  0.2931  0.8837 -0.4909
  833TIP3    H123914  -0.021   5.261  14.112  0.6999  1.0604 -0.6297
  833TIP3    H223915   0.083   5.152  14.102  0.0782  0.4433 -0.3814
  834TIP3   OH223916   4.147   3.895  13.800 -0.6081  0.3408  0.4954
  834TIP3    H123917   4.184   3.961  13.741 -0.7929  0.3955  0.4375
  834TIP3    H223918   4.180   3.918  13.886  3.6800 -2.5731 -0.2253
  835TIP3   OH223919   3.068   0.448   3.262  0.2697 -0.9506 -0.5096
  835TIP3    H123920   3.057   0.416   3.173  2.5513 -2.0199 -0.4351
  835TIP3    H223921   3.022   0.384   3.317  0.0280 -1.0159 -0.7856
  836TIP3   OH223922   5.469   1.600   3.116 -0.2597  0.5360  0.2698
  836TIP3    H123923   5.554   1.580   3.077 -0.2629  0.1750  0.4470
  836TIP3    H223924   5.416   1.522   3.099 -0.0106  0.0349  1.7030
  837TIP3   OH223925   2.797   5.475  15.285 -0.2569 -0.6097  0.0794
  837TIP3    H123926   2.861   5.414  15.247 -0.2032 -0.2907 -0.3553
  837TIP3    H223927   2.797   5.549  15.225  1.6443  1.0090  1.9829
  838TIP3   OH223928   1.307   6.606   0.886 -0.1945 -0.1820 -0.1277
  838TIP3    H123929   1.396   6.641   0.892 -0.7323  0.8293  2.0995
  838TIP3    H223930   1.264   6.661   0.820  0.9089 -0.8916 -1.4609
  839TIP3   OH223931   0.666   4.791  16.502  0.8279  0.1178 -0.6497
  839TIP3    H123932   0.587   4.813  16.453 -0.3378  0.2476  1.2324
  839TIP3    H223933   0.685   4.701  16.479 -1.3457 -0.7533  0.7728
  840TIP3   OH223934   5.183   2.879  13.243  0.4238 -0.4159  1.1866
  840TIP3    H123935   5.226   2.829  13.313  0.3657 -0.8180  0.9391
  840TIP3    H223936   5.242   2.953  13.227 -0.0365  0.1956  2.3114
  841TIP3   OH223937   0.660   2.066   1.048 -0.5864 -0.5276  0.1588
  841TIP3    H123938   0.716   2.019   0.986  0.6507  1.2483 -0.1030
  841TIP3    H223939   0.624   2.139   0.999  0.1959  0.7563  1.4544
  842TIP3   OH223940   5.987   6.041   6.661  0.1383  0.5408 -0.2100
  842TIP3    H123941   6.029   6.103   6.602 -1.0583  0.3536 -1.2772
  842TIP3    H223942   5.894   6.047   6.640 -0.4431  1.1825  2.3170
  843TIP3   OH223943   1.390   2.959  11.732 -0.8917 -0.3127  0.9356
  843TIP3    H123944   1.435   2.876  11.719  0.2744  0.3727  0.5282
  843TIP3    H223945   1.395   3.003  11.647  1.1455  1.4402  1.9182
  844TIP3   OH223946   2.219   4.904   5.404  0.0254 -0.3578  0.3782
  844TIP3    H123947   2.294   4.904   5.345 -0.2489  1.2975  0.0031
  844TIP3    H223948   2.147   4.869   5.351 -0.0987  0.6427 -0.1268
  845TIP3   OH223949   1.875   3.194  12.602  0.0629 -0.3682 -0.3703
  845TIP3    H123950   1.861   3.121  12.542  1.8155 -0.5554 -0.5704
  845TIP3    H223951   1.960   3.230  12.577 -0.8272  1.8298 -0.3596
  846TIP3   OH223952   6.253   2.690   1.443 -0.1591 -0.1253  0.1993
  846TIP3    H123953   6.241   2.605   1.400 -0.7548  1.6618 -3.3535
  846TIP3    H223954   6.332   2.727   1.404 -0.0692  1.1273  1.4948
  847TIP3   OH223955   4.187   0.160  16.033  0.1992 -0.3038  0.6524
  847TIP3    H123956   4.221   0.243  16.066  0.8405 -0.0999 -0.5221
  847TIP3    H223957   4.126   0.184  15.964 -1.1500 -0.7367  1.6661
  848TIP3   OH223958   6.379   5.170  14.857 -0.3551  0.0418 -0.6134
  848TIP3    H123959   6.435   5.124  14.795  0.9667 -0.1906  0.7129
  848TIP3    H223960   6.420   5.153  14.942 -1.5113  1.2535  0.1933
  849TIP3   OH223961   2.066   2.128   3.607 -0.3747 -0.1891 -0.6134
  849TIP3    H123962   1.978   2.165   3.604 -0.0114  0.8524  1.2055
  849TIP3    H223963   2.122   2.200   3.637  0.6279 -1.6428  1.1385
  850TIP3   OH223964   3.527   3.710   0.835  0.3110 -0.5508 -0.4811
  850TIP3    H123965   3.561   3.766   0.905  0.7037  0.5176 -1.5125
  850TIP3    H223966   3.563   3.623   0.854  0.9784 -0.1171  0.2414
  851TIP3   OH223967   3.894   6.425   5.139  0.5347 -0.2366 -0.2671
  851TIP3    H123968   3.964   6.438   5.202 -0.6378 -1.5245  1.3139
  851TIP3    H223969   3.872   6.332   5.144 -0.9526  0.0421 -1.1073
  852TIP3   OH223970   5.171   6.648  13.244  0.7419  0.4089  0.1358
  852TIP3    H123971   5.084   6.608  13.254  0.4214  0.7733 -1.0737
  852TIP3    H223972   5.228   6.596  13.300 -0.5358  1.0733  2.0870
  853TIP3   OH223973   6.016   3.150   3.941  0.0880 -0.6987  0.3588
  853TIP3    H123974   5.978   3.063   3.929 -0.5569 -0.4955  0.8758
  853TIP3    H223975   6.110   3.135   3.939 -0.0189 -1.3941  0.3270
  854TIP3   OH223976   6.546   4.120   4.824 -0.5635 -0.3306 -0.1045
  854TIP3    H123977   6.632   4.131   4.865  0.3385 -2.1077 -1.4655
  854TIP3    H223978   6.489   4.088   4.895  0.4931 -1.4382  0.2580
  855TIP3   OH223979   1.638   4.488  12.626 -0.5439 -0.3762 -1.1273
  855TIP3    H123980   1.661   4.433  12.552 -1.0450 -2.3682  0.1597
  855TIP3    H223981   1.578   4.435  12.678 -0.6774  1.2086  0.3822
  856TIP3   OH223982   0.125   1.141  15.691 -0.3112 -0.4621  0.0827
  856TIP3    H123983   0.159   1.054  15.669  1.6224  0.4486 -0.6351
  856TIP3    H223984   0.170   1.200  15.631 -0.9024  1.1495  1.2036
  857TIP3   OH223985   6.474   1.940  11.374  0.2660  0.0366  0.3192
  857TIP3    H123986   6.450   2.023  11.413  0.9932  0.4506 -0.0934
  857TIP3    H223987   6.570   1.941  11.373  0.2720 -0.5909 -0.1320
  858TIP3   OH223988   3.023   3.272   4.572 -0.0358  0.4658  0.1335
  858TIP3    H123989   3.008   3.212   4.645  0.3786  0.5917  0.3228
  858TIP3    H223990   3.102   3.321   4.597  0.2380  0.3522 -0.4967
  859TIP3   OH223991   3.129   0.925  12.790 -0.3176 -0.3005 -0.1281
  859TIP3    H123992   3.120   0.919  12.885  1.0749  2.7349  0.2504
  859TIP3    H223993   3.039   0.930  12.757 -0.7798 -0.5584  1.0830
  860TIP3   OH223994   2.648   4.908  15.641 -0.4102  0.5034 -0.3248
  860TIP3    H123995   2.715   4.842  15.654 -0.0938  1.3532  2.8134
  860TIP3    H223996   2.677   4.957  15.564  0.7658 -1.2428 -1.0248
  861TIP3   OH223997   1.911   1.520   5.305 -0.7832  0.3713  0.2288
  861TIP3    H123998   1.982   1.547   5.247 -2.1010  1.7052 -0.7967
  861TIP3    H223999   1.845   1.483   5.247 -0.2822 -2.3859  1.3232
  862TIP3   OH224000   3.227   1.739   3.623 -0.1086  0.4346 -0.0148
  862TIP3    H124001   3.266   1.801   3.562  1.9469  0.4805  1.2840
  862TIP3    H224002   3.138   1.772   3.638  0.1037  1.6117 -1.2842
  863TIP3   OH224003   0.859   0.062  12.834  0.1202  0.4193  0.2180
  863TIP3    H124004   0.798   0.110  12.778  0.6171  0.0577 -0.6339
  863TIP3    H224005   0.901   0.131  12.886  1.1655  0.9850 -1.3281
  864TIP3   OH224006   5.209   6.730   1.716 -0.6075 -0.0198 -0.5512
  864TIP3    H124007   5.208   6.786   1.638 -1.7050  1.7818  0.7310
  864TIP3    H224008   5.264   6.777   1.779 -2.8988  0.4697  1.1264
  865TIP3   OH224009   0.642   2.670  11.037  0.3878 -0.2329  0.8938
  865TIP3    H124010   0.635   2.738  11.104  0.6307 -0.9076  1.6102
  865TIP3    H224011   0.639   2.718  10.954 -1.4788  0.4737  1.3471
  866TIP3   OH224012   2.431   1.720   4.245  0.7010 -0.2330  0.3216
  866TIP3    H124013   2.477   1.638   4.231 -1.1370 -1.4151  1.0409
  866TIP3    H224014   2.385   1.709   4.328  0.3725  1.4882  0.3915
  867TIP3   OH224015   5.776   6.275  11.149 -0.3510 -0.9024 -0.5265
  867TIP3    H124016   5.803   6.228  11.070  1.6172 -1.8182  0.6536
  867TIP3    H224017   5.720   6.214  11.195 -0.5694 -0.7935 -0.6463
  868TIP3   OH224018   6.653   5.828  12.634 -0.2448 -0.1830  0.3051
  868TIP3    H124019   6.586   5.768  12.602 -0.3138  0.1280 -0.1452
  868TIP3    H224020   6.735   5.793  12.599 -0.3107  0.1078 -0.1497
  869TIP3   OH224021   1.091   6.706   0.397  0.1435 -0.1319  0.3982
  869TIP3    H124022   1.159   6.718   0.463  0.3288 -0.1197  0.2083
  869TIP3    H224023   1.027   6.648   0.437 -0.3599  0.8562  1.0463
  870TIP3   OH224024   5.125   3.370  14.103  0.3027 -0.2198  0.5383
  870TIP3    H124025   5.043   3.350  14.147 -0.3605 -2.0013 -1.4568
  870TIP3    H224026   5.101   3.433  14.035  0.3908 -1.4789 -0.6826
  871TIP3   OH224027   5.858   2.409  11.955 -0.0602 -0.0205  0.5850
  871TIP3    H124028   5.782   2.448  11.998 -1.5562 -0.6926 -1.3827
  871TIP3    H224029   5.884   2.338  12.014 -2.9213 -1.8090 -0.1980
  872TIP3   OH224030   0.613   2.199  15.765 -0.0096  1.0514  0.1825
  872TIP3    H124031   0.649   2.239  15.685 -0.5253  1.9739  0.4096
  872TIP3    H224032   0.519   2.211  15.757 -0.3118 -1.5754 -0.5212
  873TIP3   OH224033   2.303   0.646   1.412  0.0622 -0.5013 -0.0645
  873TIP3    H124034   2.348   0.568   1.381  1.4112  0.1256  0.2549
  873TIP3    H224035   2.367   0.716   1.401 -0.6034  0.2981  1.0476
  874TIP3   OH224036   3.150   4.375   5.377 -0.2132 -0.3468  0.3310
  874TIP3    H124037   3.235   4.334   5.392 -0.3665 -0.9610 -0.4073
  874TIP3    H224038   3.169   4.447   5.316 -0.1428 -0.1741  0.5590
  875TIP3   OH224039   0.176   0.341   0.037  0.0079 -0.2355  0.8270
  875TIP3    H124040   0.260   0.370   0.001 -2.2580 -0.2853 -5.0617
  875TIP3    H224041   0.178   0.246   0.030 -0.9360 -0.1766 -0.4813
  876TIP3   OH224042   4.119   0.929   2.980 -0.3251 -0.0100  0.1101
  876TIP3    H124043   4.107   0.840   2.948  0.0347 -0.3906  1.0231
  876TIP3    H224044   4.174   0.971   2.913  1.3250 -1.1236  0.7429
  877TIP3   OH224045   4.624   3.755  14.848 -0.1596 -0.4521 -0.1230
  877TIP3    H124046   4.709   3.799  14.847 -0.2579 -0.2128  0.8438
  877TIP3    H224047   4.624   3.705  14.930 -1.5187  0.7259  0.6339
  878TIP3   OH224048   1.841   5.247   1.363  0.3746  0.5824  0.4546
  878TIP3    H124049   1.763   5.284   1.323 -0.6805 -1.3237  0.6666
  878TIP3    H224050   1.848   5.159   1.326  1.8171  0.3434  1.2341
  879TIP3   OH224051   1.639   0.178   4.421  0.3612  0.3170 -0.8403
  879TIP3    H124052   1.653   0.260   4.374  0.6276  0.3898 -0.6334
  879TIP3    H224053   1.616   0.204   4.510  0.5467  0.1658 -0.7477
  880TIP3   OH224054   6.381   2.584  16.586 -0.3986  0.2171  0.5299
  880TIP3    H124055   6.297   2.617  16.555 -1.1100 -1.3208  0.8020
  880TIP3    H224056   6.433   2.663  16.603 -1.3262  1.1454 -0.8704
  881TIP3   OH224057   0.571   2.560  15.466 -0.4136 -0.6019  0.4633
  881TIP3    H124058   0.630   2.627  15.499 -0.0632 -0.6891  0.0154
  881TIP3    H224059   0.573   2.571  15.371 -0.2058 -1.3699  0.3783
  882TIP3   OH224060   1.880   3.358  12.976 -0.2144  0.3465 -0.4547
  882TIP3    H124061   1.898   3.409  13.055 -1.7454 -0.0819  0.1908
  882TIP3    H224062   1.917   3.411  12.905  0.3739  1.1794  0.4575
  883TIP3   OH224063   5.848   0.558   3.591 -0.0188  0.2498  0.2819
  883TIP3    H124064   5.756   0.583   3.598  0.1441  0.5250  1.6032
  883TIP3    H224065   5.851   0.496   3.518 -1.3633 -0.2814  0.6702
  884TIP3   OH224066   2.691   1.123   0.823 -0.5776 -0.2188 -0.4017
  884TIP3    H124067   2.703   1.148   0.915 -1.7834 -0.9234 -0.0383
  884TIP3    H224068   2.751   1.049   0.811  1.1966  1.2608 -0.8034
  885TIP3   OH224069   4.156   6.381  10.825 -0.1202  0.2191  0.4121
  885TIP3    H124070   4.166   6.293  10.789 -0.1609 -0.6354  2.4324
  885TIP3    H224071   4.082   6.418  10.776  0.3474 -0.5987 -0.9430
  886TIP3   OH224072   4.036   0.283  13.829 -0.0216  0.0401 -0.5009
  886TIP3    H124073   3.952   0.326  13.815 -1.3704 -2.6079 -0.6338
  886TIP3    H224074   4.095   0.325  13.766 -1.6714  0.6442 -1.6600
  887TIP3   OH224075   6.413   1.382   4.471  0.0952 -0.4172  0.1968
  887TIP3    H124076   6.442   1.382   4.562 -1.0040 -1.4526  0.5526
  887TIP3    H224077   6.464   1.314   4.428  1.4215  0.8312 -0.2344
  888TIP3   OH224078   6.031   4.476   6.546  0.0578 -0.0271 -0.8439
  888TIP3    H124079   5.978   4.509   6.618  0.9499  0.3896 -0.3623
  888TIP3    H224080   5.978   4.490   6.468  0.1373  1.8917 -0.5650
  889TIP3   OH224081   0.303   3.167  14.664 -0.0254 -0.9892  0.2705
  889TIP3    H124082   0.347   3.097  14.617 -0.2632 -1.3342  0.5558
  889TIP3    H224083   0.360   3.243  14.654 -0.9291 -0.5649 -2.0879
  890TIP3   OH224084   5.397   0.888   0.952  0.1172 -0.1128  0.3485
  890TIP3    H124085   5.416   0.835   0.875  0.4712  0.1560  0.2462
  890TIP3    H224086   5.469   0.952   0.955  0.3616 -0.4198  1.1672
  891TIP3   OH224087   0.450   2.838   4.970  0.0943  0.1474 -0.0224
  891TIP3    H124088   0.368   2.886   4.959 -0.1332 -0.6351 -2.1356
  891TIP3    H224089   0.430   2.770   5.035 -1.6544 -1.4845 -2.1732
  892TIP3   OH224090   1.960   6.550  12.168 -0.2792  0.2279  0.2324
  892TIP3    H124091   1.967   6.634  12.213 -0.2997 -0.3918  1.4149
  892TIP3    H224092   1.901   6.498  12.222  0.7475 -0.9902  0.2165
  893TIP3   OH224093   6.308   6.299   6.169 -0.9596 -0.8590 -0.0228
  893TIP3    H124094   6.403   6.307   6.165 -1.1138 -0.0439 -2.5803
  893TIP3    H224095   6.287   6.314   6.262  1.3963 -1.1891  0.5887
  894TIP3   OH224096   4.589   1.260   1.955 -0.7448  0.6778  0.4204
  894TIP3    H124097   4.516   1.214   1.998  0.7785 -2.7760 -0.5710
  894TIP3    H224098   4.614   1.328   2.018 -2.1206 -0.7522  2.5923
  895TIP3   OH224099   4.466   6.052   1.581  0.6083 -0.1154 -0.3362
  895TIP3    H124100   4.412   6.009   1.514  0.1238 -1.2552  0.7784
  895TIP3    H224101   4.441   6.144   1.576  0.0386 -0.3092 -1.2221
  896TIP3   OH224102   2.883   4.298  17.131 -0.0924 -0.7153  0.4159
  896TIP3    H124103   2.973   4.266  17.142  0.1101 -0.7861 -1.3187
  896TIP3    H224104   2.870   4.301  17.036 -1.1392  1.4766  0.5983
  897TIP3   OH224105   0.492   5.149   0.058  0.1899 -0.2949  0.3734
  897TIP3    H124106   0.416   5.143   0.116  0.5647  0.2264  0.9269
  897TIP3    H224107   0.542   5.070   0.076 -0.5156 -0.9351 -0.4226
  898TIP3   OH224108   3.268   2.520  12.275 -0.3165 -0.3724  0.4736
  898TIP3    H124109   3.284   2.584  12.344 -0.4918  0.6124 -0.3960
  898TIP3    H224110   3.278   2.435  12.319 -1.5484  0.2289  1.9721
  899TIP3   OH224111   3.110   1.572   5.560  0.6934 -0.5701  0.2513
  899TIP3    H124112   3.094   1.507   5.628 -0.1887 -0.9893 -0.3500
  899TIP3    H224113   3.079   1.654   5.597  2.8746 -0.2559  1.4638
  900TIP3   OH224114   0.599   3.897  16.069 -0.0147  0.6877 -0.2581
  900TIP3    H124115   0.590   3.802  16.068  0.4500  0.6198  1.2438
  900TIP3    H224116   0.672   3.913  16.129  0.8264  1.9195 -1.5777
  901TIP3   OH224117   0.595   3.486  15.576 -0.2631  0.0531  0.0814
  901TIP3    H124118   0.527   3.533  15.625  0.8082 -0.9428  2.5527
  901TIP3    H224119   0.579   3.511  15.484 -3.5733  0.3025  0.6716
  902TIP3   OH224120   3.453   0.443   4.643 -0.0293  0.0499 -0.1292
  902TIP3    H124121   3.376   0.423   4.696 -0.1981  0.9744 -0.0185
  902TIP3    H224122   3.466   0.364   4.590  0.5324 -1.1433  1.7377
  903TIP3   OH224123   2.728   5.427   4.262  0.3722 -0.2053  0.5869
  903TIP3    H124124   2.658   5.429   4.327  0.6609  0.8145  0.8875
  903TIP3    H224125   2.783   5.353   4.288 -0.4256 -0.8105  0.5311
  904TIP3   OH224126   6.237   2.224  16.666  0.0014 -0.4252 -0.2928
  904TIP3    H124127   6.160   2.224  16.610 -0.2010  0.2711 -0.0195
  904TIP3    H224128   6.252   2.317  16.686 -0.0223 -0.6692  0.9300
  905TIP3   OH224129   2.658   6.726   4.190 -0.1286 -0.4699 -0.1124
  905TIP3    H124130   2.671   6.634   4.214  1.9294  0.0607  0.8979
  905TIP3    H224131   2.738   6.750   4.145 -0.9464  0.6503 -0.9823
  906TIP3   OH224132   4.552   4.842   1.593 -0.5507  0.0305 -0.1217
  906TIP3    H124133   4.615   4.770   1.601 -1.6055 -1.0078 -0.8194
  906TIP3    H224134   4.497   4.834   1.671 -1.4111 -0.6852 -0.7830
  907TIP3   OH224135   0.791   5.589   1.807  0.8135 -0.6713  0.4977
  907TIP3    H124136   0.707   5.553   1.778 -0.1320  1.3999  0.5312
  907TIP3    H224137   0.801   5.557   1.897 -0.2001 -0.5601  0.6643
  908TIP3   OH224138   0.849   1.575  15.277  0.2914  0.2073 -0.7664
  908TIP3    H124139   0.932   1.528  15.288  0.7230  1.4145  1.2023
  908TIP3    H224140   0.782   1.507  15.289  0.9520 -0.4114 -0.5229
  909TIP3   OH224141   3.517   0.026   3.578 -0.3085  0.5298  0.3818
  909TIP3    H124142   3.460   0.102   3.566  0.0223  1.0084  1.7510
  909TIP3    H224143   3.545   0.031   3.669  0.9216 -0.3982  0.0744
  910TIP3   OH224144   0.822   0.709  16.038 -0.3302  0.0667  0.1071
  910TIP3    H124145   0.778   0.625  16.027 -0.1987 -0.1142  0.9518
  910TIP3    H224146   0.759   0.774  16.006 -1.8903 -0.0413  2.7579
  911TIP3   OH224147   0.912   2.723   5.688  0.0335  0.3228 -0.2232
  911TIP3    H124148   0.841   2.772   5.647 -1.2842  0.9669  2.7453
  911TIP3    H224149   0.983   2.787   5.697 -0.3712  0.6999  0.2934
  912TIP3   OH224150   5.889   0.932  14.331  0.1490  0.0794 -0.4112
  912TIP3    H124151   5.962   0.870  14.331 -0.5134 -0.7713  1.7737
  912TIP3    H224152   5.814   0.879  14.302 -0.0148  0.3725 -0.5188
  913TIP3   OH224153   4.444   1.414   1.499  0.4895 -0.4980  0.3220
  913TIP3    H124154   4.443   1.354   1.424 -0.2117  1.0166 -0.9064
  913TIP3    H224155   4.515   1.382   1.554  0.4319 -2.1744 -0.5475
  914TIP3   OH224156   2.466   5.603   2.610  0.3329 -0.2539 -0.4130
  914TIP3    H124157   2.443   5.529   2.665  2.3760  0.3564  1.3595
  914TIP3    H224158   2.462   5.679   2.668  0.8027  0.6711 -1.5477
  915TIP3   OH224159   4.365   4.882   4.625  0.7777 -0.3981 -0.1581
  915TIP3    H124160   4.316   4.829   4.562  0.0224 -1.6003  1.4070
  915TIP3    H224161   4.450   4.840   4.632  0.4084 -1.0408  0.5850
  916TIP3   OH224162   6.199   6.026   3.024 -0.3985  0.5907 -0.0729
  916TIP3    H124163   6.167   6.113   3.003  0.8428  0.8413 -0.9641
  916TIP3    H224164   6.213   5.984   2.939 -3.0413 -1.2558  0.3459
  917TIP3   OH224165   2.698   6.740   2.721 -0.2143  0.3880 -0.0008
  917TIP3    H124166   2.682   6.834   2.726 -1.3038  0.3302 -1.7984
  917TIP3    H224167   2.720   6.724   2.629  1.2975 -0.9227  0.5664
  918TIP3   OH224168   1.119   1.695  15.313  0.0632  0.2209 -0.1376
  918TIP3    H124169   1.147   1.607  15.338 -0.1904  0.2706  0.3393
  918TIP3    H224170   1.094   1.687  15.221 -1.9328 -0.6937  0.4446
  919TIP3   OH224171   6.427   2.998  13.314 -0.0403 -0.3628  0.5125
  919TIP3    H124172   6.511   3.020  13.354 -0.2969  1.5444  0.0525
  919TIP3    H224173   6.377   2.958  13.385  0.8312 -0.3922  1.1172
  920TIP3   OH224174   4.519   2.230  12.416 -0.4650 -0.2811 -0.0108
  920TIP3    H124175   4.597   2.266  12.373 -0.5710 -0.6359 -0.4965
  920TIP3    H224176   4.466   2.195  12.345 -0.3949 -1.3290  0.4530
  921TIP3   OH224177   5.004   6.673   0.122 -0.0726  0.2705  0.3425
  921TIP3    H124178   5.017   6.735   0.050 -0.3449  0.9899  0.9109
  921TIP3    H224179   4.926   6.623   0.096  0.0549  0.2701 -0.0411
  922TIP3   OH224180   3.706   3.145  14.418  0.7227  0.1932 -0.6593
  922TIP3    H124181   3.646   3.071  14.406  0.6625  0.1204  0.1157
  922TIP3    H224182   3.729   3.171  14.328 -2.1245  1.5883 -1.0534
  923TIP3   OH224183   3.044   2.527  11.157 -0.2244 -0.4809 -0.4000
  923TIP3    H124184   3.101   2.604  11.160 -0.0706 -0.6026 -0.1298
  923TIP3    H224185   2.974   2.551  11.097 -0.9338  0.3806  0.7493
  924TIP3   OH224186   3.977   5.936  13.523 -0.8596  0.5573  0.1690
  924TIP3    H124187   4.064   5.951  13.486 -1.3060  1.8089 -0.4312
  924TIP3    H224188   3.957   5.845  13.501 -0.0023  0.4804 -0.3336
  925TIP3   OH224189   4.361   3.226  12.390 -0.6602  0.1015 -0.6193
  925TIP3    H124190   4.342   3.319  12.402  0.3951  0.0716  1.5180
  925TIP3    H224191   4.275   3.186  12.376 -1.2879  1.1680  0.1256
  926TIP3   OH224192   6.484   4.684  16.010 -0.2115  0.0414 -0.1348
  926TIP3    H124193   6.535   4.760  16.037  0.0626 -0.1853 -0.0162
  926TIP3    H224194   6.393   4.715  16.013 -0.0767  0.4718 -0.4444
  927TIP3   OH224195   2.394   1.049  13.032  0.3702  0.2768  0.4072
  927TIP3    H124196   2.424   0.963  13.000  1.7612  0.5014  1.0751
  927TIP3    H224197   2.354   1.030  13.116  1.1208  0.3491  0.7801
  928TIP3   OH224198   3.578   3.974  13.623 -0.7151  0.3163 -0.6495
  928TIP3    H124199   3.585   4.003  13.714 -1.2953  1.3233 -0.9190
  928TIP3    H224200   3.538   3.887  13.629  1.8076 -0.8307  0.2141
  929TIP3   OH224201   5.449   6.712  13.122  0.2714 -0.2808  0.2265
  929TIP3    H124202   5.541   6.721  13.146 -0.4275  2.2642  2.1286
  929TIP3    H224203   5.414   6.650  13.186  0.9638 -2.5968 -1.5359
  930TIP3   OH224204   0.192   5.733  15.284  0.4780 -0.3553 -0.0191
  930TIP3    H124205   0.105   5.750  15.248  1.2478  1.6046 -1.0087
  930TIP3    H224206   0.204   5.800  15.350  1.1300 -0.8070  0.3207
  931TIP3   OH224207   0.036   5.988  13.323  0.3386 -0.2359  0.0144
  931TIP3    H124208   0.006   5.986  13.232  1.2908 -1.6640 -0.2828
  931TIP3    H224209   0.110   6.048  13.322 -0.6910  1.0702  0.1943
  932TIP3   OH224210   2.902   4.384   1.794 -0.0911 -0.3440  0.1721
  932TIP3    H124211   2.836   4.334   1.842 -0.1419 -0.4323  0.0127
  932TIP3    H224212   2.859   4.406   1.711  0.0923 -0.4283  0.0557
  933TIP3   OH224213   2.694   1.560   3.063  0.1098 -0.4031  0.0004
  933TIP3    H124214   2.783   1.585   3.039 -0.5335 -0.2992 -2.4591
  933TIP3    H224215   2.665   1.503   2.991 -2.5014  1.1786 -0.2561
  934TIP3   OH224216   0.477   0.825  12.899  0.0693 -0.2979  0.0739
  934TIP3    H124217   0.382   0.816  12.894  0.2591 -2.7857  0.1797
  934TIP3    H224218   0.502   0.770  12.973  1.4021  2.1872  1.5556
  935TIP3   OH224219   3.923   0.245  15.376  0.8116  0.3813  0.0215
  935TIP3    H124220   3.979   0.247  15.298  2.8035 -0.0359  1.3992
  935TIP3    H224221   3.906   0.337  15.397 -1.0481  0.4871 -1.7798
  936TIP3   OH224222   3.948   5.530   4.158 -0.4930 -0.1366  0.2617
  936TIP3    H124223   4.022   5.471   4.177 -0.2263  0.4821  1.1994
  936TIP3    H224224   3.889   5.518   4.232 -1.1887 -0.3856 -0.3261
  937TIP3   OH224225   3.031   5.665  16.535  0.1952 -0.0260 -0.0216
  937TIP3    H124226   2.999   5.597  16.594  0.1745 -0.9583 -1.0873
  937TIP3    H224227   2.976   5.741  16.555 -0.4425 -0.6107  0.4944
  938TIP3   OH224228   3.722   4.487  12.092  0.5650 -0.7787 -0.8012
  938TIP3    H124229   3.713   4.402  12.048 -0.6424 -0.3650 -1.3731
  938TIP3    H224230   3.814   4.511  12.080  0.7183 -1.6162 -1.3584
  939TIP3   OH224231   0.992   2.696  16.081  0.0355  0.4248 -0.6271
  939TIP3    H124232   0.997   2.717  15.988  2.9161  0.1307 -0.5854
  939TIP3    H224233   1.075   2.653  16.100 -0.2213  1.1070  2.2349
  940TIP3   OH224234   2.238   5.142  14.536 -0.9292 -0.0950  0.8553
  940TIP3    H124235   2.254   5.056  14.497  0.5752  0.0415  1.1317
  940TIP3    H224236   2.143   5.146  14.549 -1.1908 -1.0440 -0.6854
  941TIP3   OH224237   5.424   6.333   5.901 -0.4058 -0.2898 -0.3034
  941TIP3    H124238   5.372   6.373   5.971 -0.4495  0.6827 -0.8756
  941TIP3    H224239   5.477   6.267   5.945  0.0729  0.7783  0.7510
  942TIP3   OH224240   4.660   3.784  13.370  0.2183 -0.1377 -0.1097
  942TIP3    H124241   4.597   3.725  13.327  0.0743 -0.7893  0.9756
  942TIP3    H224242   4.728   3.725  13.404  0.5754  0.4137  0.1305
  943TIP3   OH224243   4.465   5.779   2.786  0.3168 -0.4229 -0.5351
  943TIP3    H124244   4.502   5.859   2.749 -1.2075  0.1430 -0.8496
  943TIP3    H224245   4.377   5.803   2.812 -0.2593 -2.0850 -0.8932
  944TIP3   OH224246   3.468   1.305  10.582 -0.6601 -0.0117 -0.1802
  944TIP3    H124247   3.475   1.335  10.672 -1.0077 -0.1929 -0.0900
  944TIP3    H224248   3.555   1.270  10.561 -0.6917 -0.3327  0.2141
  945TIP3   OH224249   3.780   3.262  12.657 -0.4304 -0.0997 -0.3606
  945TIP3    H124250   3.722   3.188  12.646 -0.3592 -0.4924  1.7239
  945TIP3    H224251   3.726   3.330  12.698  0.1063  0.1843 -0.1137
  946TIP3   OH224252   5.440   0.117   2.411 -0.4789  0.5940  0.4547
  946TIP3    H124253   5.413   0.199   2.370  0.1353  0.6455  0.1465
  946TIP3    H224254   5.476   0.064   2.338  0.3739  0.5851  0.8721
  947TIP3   OH224255   3.901   5.516  16.106  0.0025  0.5302 -0.8168
  947TIP3    H124256   3.941   5.544  16.188 -1.2568 -0.6996  0.2411
  947TIP3    H224257   3.933   5.579  16.041 -0.5757  2.7418  0.9808
  948TIP3   OH224258   3.137   2.109  14.131  0.0002 -0.3584  0.4062
  948TIP3    H124259   3.205   2.102  14.197 -0.2808  0.3251  0.7734
  948TIP3    H224260   3.170   2.060  14.056  0.3756 -1.0090  1.0057
  949TIP3   OH224261   4.272   1.640  14.874 -0.2836  0.0900 -0.4658
  949TIP3    H124262   4.236   1.728  14.871 -0.5209 -0.0145 -0.6609
  949TIP3    H224263   4.240   1.598  14.794 -1.7817 -0.7992  0.5910
  950TIP3   OH224264   4.917   4.756  13.414 -0.1489  0.1251  0.8218
  950TIP3    H124265   4.837   4.713  13.445 -0.8774 -0.0697 -1.2159
  950TIP3    H224266   4.975   4.684  13.389 -0.5437  0.2783 -0.5827
  951TIP3   OH224267   5.950   1.764  14.561 -0.0536  0.2449 -0.1565
  951TIP3    H124268   5.944   1.854  14.593 -0.0011  0.3569 -0.4585
  951TIP3    H224269   5.875   1.719  14.602  0.6421  0.1137  0.9884
  952TIP3   OH224270   1.941   3.206  14.554 -0.7285  0.1338 -0.0977
  952TIP3    H124271   1.881   3.159  14.495 -1.3788 -1.3629  1.6924
  952TIP3    H224272   1.996   3.137  14.592 -1.1712  0.8718  1.9852
  953TIP3   OH224273   1.289   6.588  15.980 -0.0107  0.3479  0.0418
  953TIP3    H124274   1.308   6.585  15.886 -0.5877 -0.9957 -0.0476
  953TIP3    H224275   1.228   6.661  15.990 -0.6967 -0.0956 -0.7763
  954TIP3   OH224276   3.032   4.131  14.348 -0.2709  0.2932 -0.1231
  954TIP3    H124277   3.000   4.066  14.284  0.7219 -0.1096 -0.2123
  954TIP3    H224278   2.957   4.145  14.406 -0.8009 -0.2296 -0.6634
  955TIP3   OH224279   0.378   1.245  14.594  0.8843 -0.0564 -0.9153
  955TIP3    H124280   0.375   1.282  14.505  0.9473 -1.0065 -1.3205
  955TIP3    H224281   0.327   1.164  14.588 -2.8802  2.0472  0.9922
  956TIP3   OH224282   6.409   0.886   3.943 -0.1800  0.7171 -0.2528
  956TIP3    H124283   6.474   0.895   3.874  1.2331 -0.0497  0.9611
  956TIP3    H224284   6.458   0.900   4.024 -1.5010  0.0062  0.6794
  957TIP3   OH224285   4.796   2.459  12.061  0.1200 -0.4364  1.0804
  957TIP3    H124286   4.845   2.448  11.980  0.6386 -0.0660  1.3444
  957TIP3    H224287   4.843   2.527  12.109  0.5359 -1.5240  2.2474
  958TIP3   OH224288   6.149   4.988   0.644  0.5072  0.4308  0.2816
  958TIP3    H124289   6.098   5.009   0.566  1.7666 -1.0236 -0.9641
  958TIP3    H224290   6.228   5.042   0.638  0.1042  1.1344  1.1341
  959TIP3   OH224291   1.648   3.611   1.771  0.1892 -0.5137 -0.0615
  959TIP3    H124292   1.628   3.557   1.848 -0.4214  1.0220  0.8842
  959TIP3    H224293   1.587   3.579   1.704 -2.2497  0.9269  1.3802
  960TIP3   OH224294   3.531   1.641   3.315  0.1412 -0.4325  0.3525
  960TIP3    H124295   3.570   1.645   3.228 -1.1063 -0.7524 -0.2266
  960TIP3    H224296   3.591   1.585   3.365 -0.1912 -1.8789 -0.8538
  961TIP3   OH224297   2.864   2.781   5.715  0.0816  0.2211 -0.2170
  961TIP3    H124298   2.798   2.790   5.783 -0.5322 -1.0032 -0.6226
  961TIP3    H224299   2.947   2.798   5.759 -0.2322 -1.3076  1.0338
  962TIP3   OH224300   0.414   0.400   0.703  0.1187  0.4239 -0.0427
  962TIP3    H124301   0.423   0.493   0.680  1.2047  0.4579  0.4765
  962TIP3    H224302   0.501   0.375   0.735 -1.1211  0.2138  3.4039
  963TIP3   OH224303   3.676   4.842  15.374  0.4537  0.1213  0.4183
  963TIP3    H124304   3.736   4.783  15.329  0.9771  0.1581  1.0535
  963TIP3    H224305   3.617   4.783  15.422  0.5465  0.0985  0.5054
  964TIP3   OH224306   4.661   1.665  15.562  0.2203  0.1439 -0.1213
  964TIP3    H124307   4.624   1.593  15.510  1.4988  1.4460 -2.9833
  964TIP3    H224308   4.709   1.622  15.632  0.3530 -1.7892 -1.3565
  965TIP3   OH224309   3.241   2.382   6.404 -0.7135  0.3687  0.4086
  965TIP3    H124310   3.334   2.373   6.422 -0.2453  1.6963 -1.2073
  965TIP3    H224311   3.211   2.293   6.384  0.0639 -0.1507  1.5464
  966TIP3   OH224312   2.266   4.715  10.483  0.5234 -0.1312 -0.0242
  966TIP3    H124313   2.344   4.745  10.529 -0.0732 -0.3276  1.1407
  966TIP3    H224314   2.259   4.773  10.407  2.5904 -1.0171 -0.9429
  967TIP3   OH224315   0.167   5.098  14.827  0.4689 -0.7514  0.6020
  967TIP3    H124316   0.134   5.182  14.858  0.1818 -0.2021 -1.1062
  967TIP3    H224317   0.129   5.034  14.886 -0.1874  0.2372  1.2717
  968TIP3   OH224318   0.571   4.198  14.547  0.1566  0.1506 -0.1198
  968TIP3    H124319   0.609   4.220  14.462  1.4026  0.6022  0.5380
  968TIP3    H224320   0.493   4.252  14.554 -0.0504 -0.0261 -1.0624
  969TIP3   OH224321   4.070   0.147   6.359  0.9643  0.0443 -0.6542
  969TIP3    H124322   4.082   0.238   6.387  1.9650  0.3833 -2.0985
  969TIP3    H224323   3.988   0.148   6.309  2.0294  0.6256 -2.4560
  970TIP3   OH224324   0.866   6.716  14.502  0.5594  0.4147  0.0230
  970TIP3    H124325   0.949   6.676  14.529 -0.8284 -1.9115  1.0624
  970TIP3    H224326   0.805   6.642  14.499 -1.7360  2.2609  0.3569
  971TIP3   OH224327   4.667   0.706  14.940  0.0568  0.2341 -0.2998
  971TIP3    H124328   4.632   0.641  14.878  0.4878 -1.1681  0.9061
  971TIP3    H224329   4.748   0.667  14.971  2.1903  2.9539 -2.2321
  972TIP3   OH224330   2.497   5.741   5.954 -0.0055 -0.2076 -0.2984
  972TIP3    H124331   2.563   5.710   6.016 -0.2185  0.7628  0.4113
  972TIP3    H224332   2.514   5.690   5.874  0.5544 -1.1291  0.4057
  973TIP3   OH224333   2.556   2.909  12.384 -0.0927 -0.0631 -0.2336
  973TIP3    H124334   2.499   2.844  12.425 -0.0855  0.6684  0.9435
  973TIP3    H224335   2.496   2.968  12.339 -0.0275 -1.7052 -2.5597
  974TIP3   OH224336   6.065   2.912   6.446 -0.0656 -0.2329 -0.0222
  974TIP3    H124337   5.994   2.909   6.382 -0.1887  1.0903  0.0355
  974TIP3    H224338   6.078   2.821   6.472  0.0234 -0.7996 -1.9674
  975TIP3   OH224339   2.500   6.250   2.704 -0.3862  0.3869  0.2479
  975TIP3    H124340   2.530   6.302   2.629  2.1386 -1.0348  0.2033
  975TIP3    H224341   2.421   6.206   2.673  0.7749 -0.3772 -1.7032
  976TIP3   OH224342   5.175   1.498   4.845  0.3377 -0.1151  0.1646
  976TIP3    H124343   5.265   1.531   4.847  1.4289 -2.8690  0.2114
  976TIP3    H224344   5.158   1.481   4.752 -0.3742  0.9958  0.0884
  977TIP3   OH224345   6.214   4.580   1.182 -0.0611  0.7542  0.2971
  977TIP3    H124346   6.127   4.558   1.147  0.8415 -2.5475 -0.0227
  977TIP3    H224347   6.268   4.595   1.105  0.1709  0.7134  0.4514
  978TIP3   OH224348   0.350   1.419   4.365  0.5523  0.0854  0.1868
  978TIP3    H124349   0.375   1.425   4.458  0.0436  0.6443  0.2916
  978TIP3    H224350   0.416   1.472   4.319  0.6870 -0.0279  0.2473
  979TIP3   OH224351   0.391   6.738  12.875 -0.2837 -0.0358  0.0610
  979TIP3    H124352   0.340   6.669  12.917  0.1197  0.1467  0.8724
  979TIP3    H224353   0.368   6.818  12.923  0.8877  0.0159  0.5582
  980TIP3   OH224354   4.636   2.700  14.114  0.2011  0.7070  0.0738
  980TIP3    H124355   4.582   2.748  14.051 -2.4593  0.2552  1.9261
  980TIP3    H224356   4.718   2.685  14.068 -0.2159  3.8305 -1.8598
  981TIP3   OH224357   2.093   0.728   3.838  0.0349 -0.1527 -0.1816
  981TIP3    H124358   2.005   0.764   3.852  0.0795  0.0388 -0.4035
  981TIP3    H224359   2.130   0.781   3.768  0.1264 -0.5892 -0.4634
  982TIP3   OH224360   1.220   6.084   4.946  0.3950  0.9019 -0.4744
  982TIP3    H124361   1.192   6.166   4.988 -1.5509 -0.4010  0.8312
  982TIP3    H224362   1.302   6.061   4.990  0.3008  1.4916  0.0153
  983TIP3   OH224363   0.701   4.533  16.438  1.0979 -0.6915 -0.0606
  983TIP3    H124364   0.685   4.482  16.518  1.3730 -0.0356  0.4261
  983TIP3    H224365   0.795   4.523  16.423  1.3862  0.6413  0.7303
  984TIP3   OH224366   1.642   4.299   4.744  0.1606  0.4205 -0.1028
  984TIP3    H124367   1.590   4.221   4.724  1.1363 -0.4977  0.8448
  984TIP3    H224368   1.578   4.369   4.751 -0.7017 -0.2293 -1.3135
  985TIP3   OH224369   3.636   0.202  11.305  0.0769 -0.3192 -0.0923
  985TIP3    H124370   3.727   0.224  11.285 -0.2872  1.6209  0.3117
  985TIP3    H224371   3.592   0.201  11.220  0.9033 -3.5826 -0.5783
  986TIP3   OH224372   1.248   4.890   5.740  0.2388  0.0045  0.2966
  986TIP3    H124373   1.163   4.848   5.751  1.1213 -1.9812 -0.0669
  986TIP3    H224374   1.286   4.891   5.828  1.1070 -2.0407 -0.0106
  987TIP3   OH224375   1.651   0.319  13.962  0.1999 -0.3975  0.0070
  987TIP3    H124376   1.726   0.289  14.014  0.6507  0.1799 -0.3102
  987TIP3    H224377   1.589   0.352  14.026  1.0035  0.8672  0.1392
  988TIP3   OH224378   4.056   2.117  16.561 -0.6661 -0.0025  0.3856
  988TIP3    H124379   4.026   2.196  16.606  0.2280 -2.0109  4.8085
  988TIP3    H224380   3.987   2.053  16.575  0.2583 -1.0872  0.0813
  989TIP3   OH224381   4.265   5.067   4.786  0.5271  0.5114 -0.5594
  989TIP3    H124382   4.201   4.998   4.803 -1.0605  2.0023 -0.2693
  989TIP3    H224383   4.324   5.030   4.720  0.5600 -1.6012  0.6350
  990TIP3   OH224384   4.042   1.429   5.924 -0.5381  0.6026  0.3000
  990TIP3    H124385   3.999   1.503   5.881  0.1627  1.2999  0.7755
  990TIP3    H224386   3.999   1.422   6.009 -1.3292 -0.2186 -0.1667
  991TIP3   OH224387   5.734   0.093   5.235 -0.0301  0.1720  0.3620
  991TIP3    H124388   5.651   0.103   5.188 -0.4405 -2.2541  0.4653
  991TIP3    H224389   5.801   0.103   5.168 -0.4808  0.2629 -0.0790
  992TIP3   OH224390   2.607   4.503   0.509  0.1697  1.1537 -0.5623
  992TIP3    H124391   2.517   4.471   0.517  0.9856 -1.2335 -0.5184
  992TIP3    H224392   2.638   4.468   0.425  1.8584 -0.2491  0.5947
  993TIP3   OH224393   5.068   1.619   0.493  0.3668  0.0181  0.5646
  993TIP3    H124394   5.111   1.540   0.525  1.6205  0.4361 -0.0694
  993TIP3    H224395   4.982   1.618   0.536 -0.1710 -2.3873 -0.4874
  994TIP3   OH224396   4.626   0.604   0.952  0.0449 -0.1944  0.1080
  994TIP3    H124397   4.657   0.528   1.000  0.6475  0.5802  0.9653
  994TIP3    H224398   4.542   0.625   0.993 -0.0070 -0.2524  0.0318
  995TIP3   OH224399   0.177   4.991  13.983  0.1076  0.1674  0.4374
  995TIP3    H124400   0.120   4.916  14.002 -2.1851  2.1094  1.4008
  995TIP3    H224401   0.149   5.021  13.897 -0.7585  1.4757  1.1569
  996TIP3   OH224402   3.494   6.434   0.763 -0.1578 -0.6951  0.7656
  996TIP3    H124403   3.563   6.377   0.798 -1.5054 -2.0048  1.3483
  996TIP3    H224404   3.430   6.373   0.726  0.7537  0.6207 -3.1425
  997TIP3   OH224405   0.259   6.124  13.160  0.5605  0.0891 -0.1617
  997TIP3    H124406   0.320   6.190  13.127 -0.1404  0.7043 -0.2373
  997TIP3    H224407   0.270   6.125  13.255 -0.4189  1.2963 -0.0404
  998TIP3   OH224408   6.705   6.551  12.691  0.2336 -0.6447  0.2786
  998TIP3    H124409   6.780   6.608  12.709  0.2838 -1.0357  1.2953
  998TIP3    H224410   6.708   6.485  12.759 -0.6199 -1.0865 -0.1112
  999TIP3   OH224411   2.585   2.598  13.779  0.3093  0.3866 -0.3595
  999TIP3    H124412   2.565   2.591  13.686  2.4041  0.3519 -0.8431
  999TIP3    H224413   2.557   2.686  13.803 -1.9781 -0.2643 -0.5528
 1000TIP3   OH224414   0.543   4.087  14.104 -0.2461 -0.0996 -0.0969
 1000TIP3    H124415   0.532   3.999  14.141  0.5419 -0.4679 -0.7104
 1000TIP3    H224416   0.562   4.072  14.011 -2.7103  0.8465 -0.7752
 1001TIP3   OH224417   1.097   3.423   1.575 -0.2752 -0.1140  0.2340
 1001TIP3    H124418   1.086   3.479   1.499  1.1663 -2.4806 -1.7949
 1001TIP3    H224419   1.178   3.454   1.616 -0.0997  0.0429 -0.2280
 1002TIP3   OH224420   5.163   2.004   5.800 -0.6524  0.4592 -0.1543
 1002TIP3    H124421   5.109   2.016   5.722 -3.2374 -1.1877  1.3305
 1002TIP3    H224422   5.162   2.090   5.843 -1.3951  0.6692 -0.5741
 1003TIP3   OH224423   2.083   3.833  12.821 -0.4798  0.2357 -0.0686
 1003TIP3    H124424   2.176   3.810  12.817 -0.9643 -1.6133 -1.5337
 1003TIP3    H224425   2.053   3.797  12.904  0.2514  1.4778  0.7559
 1004TIP3   OH224426   6.787   6.175   3.066  0.1848 -0.2113 -0.4465
 1004TIP3    H124427   6.691   6.181   3.070  0.1365 -0.3351 -1.3171
 1004TIP3    H224428   6.813   6.243   3.005  0.7171  0.2718  0.3066
 1005TIP3   OH224429   3.205   6.627   3.206 -0.5629  0.9824  0.2189
 1005TIP3    H124430   3.264   6.602   3.135  0.8705 -1.0819  2.0592
 1005TIP3    H224431   3.118   6.623   3.167  0.1073 -1.2786 -1.1676
 1006TIP3   OH224432   1.349   3.381   2.731  0.0188  0.1871 -0.2211
 1006TIP3    H124433   1.403   3.365   2.809  0.8551  1.3459 -0.5491
 1006TIP3    H224434   1.411   3.375   2.658 -0.2003  2.0032 -0.5683
 1007TIP3   OH224435   2.525   0.317   5.106 -0.0387  0.2453  0.1386
 1007TIP3    H124436   2.617   0.338   5.119 -0.3622  1.6721  0.2241
 1007TIP3    H224437   2.526   0.242   5.048  1.1739  0.5169 -0.2155
 1008TIP3   OH224438   3.844   4.395   1.028  0.0094 -0.6719  0.1636
 1008TIP3    H124439   3.925   4.383   0.978  0.7179 -0.9650  1.3545
 1008TIP3    H224440   3.815   4.306   1.048  0.4299 -0.5529  1.3584
 1009TIP3   OH224441   2.887   3.407  16.224 -0.1868 -0.2797  0.6407
 1009TIP3    H124442   2.840   3.446  16.298  0.9728 -1.0870  1.8252
 1009TIP3    H224443   2.841   3.324  16.208 -0.0354 -0.4156  0.8960
 1010TIP3   OH224444   2.591   1.389  12.553 -0.3924  0.1669  0.2692
 1010TIP3    H124445   2.535   1.311  12.548 -0.2101  0.1106 -0.9405
 1010TIP3    H224446   2.585   1.416  12.645 -2.6959  0.3841  0.0981
 1011TIP3   OH224447   1.370   4.352   1.003  0.4416 -0.1117 -0.3588
 1011TIP3    H124448   1.398   4.273   0.957  1.1189  0.6994 -1.3442
 1011TIP3    H224449   1.360   4.324   1.094  1.5918 -1.1090 -0.5250
 1012TIP3   OH224450   1.415   2.278   0.774  0.4656 -0.4779  0.3318
 1012TIP3    H124451   1.369   2.244   0.851 -1.2782  2.7210  0.8004
 1012TIP3    H224452   1.498   2.312   0.808  0.6848 -1.0860  0.4140
 1013TIP3   OH224453   6.120   1.688   3.104  0.0551  0.3204 -0.0779
 1013TIP3    H124454   6.111   1.708   3.011 -1.6751 -1.9257 -0.4334
 1013TIP3    H224455   6.031   1.668   3.133  0.7672 -0.2877  1.7550
 1014TIP3   OH224456   5.255   5.112   3.765  0.3160 -0.0826 -0.0754
 1014TIP3    H124457   5.275   5.127   3.858  0.8328 -1.3572  0.0326
 1014TIP3    H224458   5.340   5.096   3.724 -0.0052 -0.5055 -0.5788
 1015TIP3   OH224459   6.274   0.649  15.261 -0.4299 -0.4387  0.6048
 1015TIP3    H124460   6.272   0.718  15.328  0.2006 -0.0171  0.1878
 1015TIP3    H224461   6.359   0.607  15.272 -1.0212 -1.4935  1.1980
 1016TIP3   OH224462   6.276   3.859   3.809 -0.0655  0.1085  0.0117
 1016TIP3    H124463   6.314   3.931   3.859 -1.6603 -0.0963  1.5679
 1016TIP3    H224464   6.192   3.841   3.852 -0.0576 -2.1572 -0.8223
 1017TIP3   OH224465   6.440   4.384   2.645 -0.6252  0.3122 -0.3140
 1017TIP3    H124466   6.412   4.408   2.733 -0.8498  1.1830 -0.6194
 1017TIP3    H224467   6.479   4.463   2.609 -2.1787  0.5106 -1.6589
 1018TIP3   OH224468   6.678   5.608   1.156  0.2308 -0.3834  0.4922
 1018TIP3    H124469   6.747   5.670   1.180  1.4206 -1.7904  0.7925
 1018TIP3    H224470   6.605   5.630   1.213  0.4063  1.1486  0.1512
 1019TIP3   OH224471   3.895   3.918  13.660  0.4405 -0.8560 -0.0307
 1019TIP3    H124472   3.982   3.916  13.700  0.4528 -2.0460 -0.0992
 1019TIP3    H224473   3.835   3.896  13.732  0.0794  1.0459  0.2775
 1020TIP3   OH224474   1.125   1.397  15.358 -0.1464  0.1885  0.2702
 1020TIP3    H124475   1.200   1.361  15.310 -1.0609 -0.4697 -0.6716
 1020TIP3    H224476   1.143   1.374  15.450  1.7087  1.6400  0.3026
 1021TIP3   OH224477   5.279   4.984  15.467 -0.0670 -0.0144 -0.1694
 1021TIP3    H124478   5.227   5.062  15.448  1.9528  1.5927  0.7152
 1021TIP3    H224479   5.291   4.942  15.382  0.6980  1.8556 -1.0125
 1022TIP3   OH224480   0.667   0.060  13.106  0.3005 -0.2959  0.0302
 1022TIP3    H124481   0.669   0.143  13.058 -0.8029 -0.5931 -0.5315
 1022TIP3    H224482   0.742   0.066  13.166  1.0890  0.5051 -1.0039
 1023TIP3   OH224483   5.792   5.656   5.356 -0.1152  0.4300  0.1666
 1023TIP3    H124484   5.738   5.727   5.320 -0.1404 -0.6965 -2.1378
 1023TIP3    H224485   5.875   5.664   5.309 -0.0332 -0.9076  0.0756
 1024TIP3   OH224486   2.326   4.143  16.443 -0.5003  0.4106  0.7020
 1024TIP3    H124487   2.295   4.223  16.485 -1.5443 -0.3168  1.3658
 1024TIP3    H224488   2.402   4.116  16.493 -0.1466  0.9865  0.4753
 1025TIP3   OH224489   1.149   3.312   4.407 -0.1191 -0.0022 -0.6307
 1025TIP3    H124490   1.194   3.361   4.338  1.4281  0.2821  0.5516
 1025TIP3    H224491   1.218   3.262   4.450 -0.6372  1.5900  2.1858
 1026TIP3   OH224492   1.288   6.134   6.506  0.2817  0.4830 -0.0706
 1026TIP3    H124493   1.364   6.169   6.553  0.0362 -0.3108  0.9342
 1026TIP3    H224494   1.325   6.081   6.436  0.6707 -0.5073  0.8681
 1027TIP3   OH224495   6.499   1.053   0.487 -0.4200 -0.4847  0.6464
 1027TIP3    H124496   6.431   1.051   0.555 -0.3685 -0.8638  0.6883
 1027TIP3    H224497   6.556   0.980   0.509  0.0978 -0.0679  0.7061
 1028TIP3   OH224498   5.838   0.774  11.705  0.1205 -0.0238  0.4734
 1028TIP3    H124499   5.823   0.714  11.631 -0.1521 -0.9138  1.2399
 1028TIP3    H224500   5.798   0.856  11.677 -0.0514 -0.3802 -0.3485
 1029TIP3   OH224501   0.345   6.343   0.723  0.3543 -0.0515  0.6834
 1029TIP3    H124502   0.429   6.377   0.693  0.5660  0.7616  2.1051
 1029TIP3    H224503   0.367   6.290   0.800 -0.3883 -0.0874  0.8790
 1030TIP3   OH224504   2.801   6.007  14.583 -0.0780  0.1582  0.1118
 1030TIP3    H124505   2.823   5.927  14.534  2.1047  0.7765  0.0398
 1030TIP3    H224506   2.871   6.014  14.648 -1.0029  1.2995  0.9871
 1031TIP3   OH224507   4.349   3.594   6.801 -0.1591  0.0850 -0.2760
 1031TIP3    H124508   4.287   3.635   6.861  0.4002 -0.4233  0.6740
 1031TIP3    H224509   4.295   3.550   6.735 -0.7853  0.3158  0.0825
 1032TIP3   OH224510   4.669   3.364   2.747  0.2298  0.1487 -0.1691
 1032TIP3    H124511   4.595   3.391   2.802  1.5448  0.3894  1.4824
 1032TIP3    H224512   4.705   3.287   2.790  0.9516  0.0246 -0.9746
 1033TIP3   OH224513   3.382   0.482  11.961 -0.3683 -0.2121 -0.1598
 1033TIP3    H124514   3.392   0.430  11.882  1.6524 -0.0990  0.0040
 1033TIP3    H224515   3.316   0.548  11.938 -1.6291 -1.6975 -0.9291
 1034TIP3   OH224516   0.809   5.875  14.530  0.2577  0.3191 -0.4424
 1034TIP3    H124517   0.855   5.843  14.453  1.5390  0.4557  0.2545
 1034TIP3    H224518   0.719   5.886  14.501  0.1532 -2.1753 -1.2054
 1035TIP3   OH224519   0.957   0.749  14.759 -0.4369  0.6334 -0.7799
 1035TIP3    H124520   0.947   0.655  14.744  0.2088  0.6306 -1.2029
 1035TIP3    H224521   0.940   0.788  14.674 -0.5443  0.8939 -0.6385
 1036TIP3   OH224522   2.980   0.997  13.281 -0.0164  0.4675 -0.1365
 1036TIP3    H124523   3.022   1.020  13.364  1.3953  0.1195 -0.7415
 1036TIP3    H224524   2.915   0.931  13.305 -0.3883  1.1672  0.8411
 1037TIP3   OH224525   3.565   1.603  13.115  0.1243  0.2789 -0.6157
 1037TIP3    H124526   3.611   1.684  13.134  0.2393 -0.3465  2.0544
 1037TIP3    H224527   3.611   1.565  13.040  0.6574  2.1979 -1.2738
 1038TIP3   OH224528   4.316   0.587  13.919  0.0974 -0.1042 -0.1178
 1038TIP3    H124529   4.305   0.602  13.825  0.8182  1.1939 -0.0099
 1038TIP3    H224530   4.263   0.655  13.960  0.0900 -0.4337  0.4233
 1039TIP3   OH224531   0.707   3.895  13.214 -0.3455  0.1942  0.2269
 1039TIP3    H124532   0.728   3.984  13.243 -1.1687  0.1565  0.9577
 1039TIP3    H224533   0.740   3.891  13.124  2.4951  0.2430  1.1956
 1040TIP3   OH224534   5.908   2.083  12.351 -0.0646 -0.1460  0.2731
 1040TIP3    H124535   5.889   1.992  12.372 -0.6351 -0.0203  0.3099
 1040TIP3    H224536   5.834   2.111  12.297  0.8282 -0.1387 -0.9687
 1041TIP3   OH224537   1.033   2.847   3.729 -0.4729  0.0353  0.0599
 1041TIP3    H124538   1.084   2.924   3.751 -0.0519  0.1132 -1.1908
 1041TIP3    H224539   1.045   2.788   3.804  1.1903  0.1722 -0.0883
 1042TIP3   OH224540   6.432   3.707  15.850 -0.2178 -0.1089 -0.1633
 1042TIP3    H124541   6.362   3.716  15.914 -1.9720 -0.3114 -1.9809
 1042TIP3    H224542   6.403   3.759  15.775 -0.1927 -3.1263 -2.3757
 1043TIP3   OH224543   3.181   2.551   0.402  0.3631  0.8392  0.0228
 1043TIP3    H124544   3.199   2.583   0.491  2.0895 -0.9315  0.3362
 1043TIP3    H224545   3.172   2.631   0.350  3.7855  1.9212  0.9321
 1044TIP3   OH224546   5.055   5.330   5.949 -0.6684  0.2153 -0.4786
 1044TIP3    H124547   5.082   5.243   5.978 -0.1844  0.4770 -0.1480
 1044TIP3    H224548   4.977   5.314   5.895 -1.2081 -0.3255  0.4428
 1045TIP3   OH224549   6.031   5.076   0.401 -0.2043  0.0479 -0.5889
 1045TIP3    H124550   6.080   5.095   0.321 -0.8270 -2.6311 -1.6690
 1045TIP3    H224551   5.957   5.022   0.372 -0.6129 -0.7181  1.7350
 1046TIP3   OH224552   3.663   4.648  13.931 -0.5978 -0.1933 -0.3901
 1046TIP3    H124553   3.729   4.579  13.935 -0.6895 -0.3423 -1.3134
 1046TIP3    H224554   3.706   4.725  13.970  0.1897 -0.2325 -1.1719
 1047TIP3   OH224555   3.946   5.742   2.836  0.1208 -0.2223 -0.1202
 1047TIP3    H124556   3.938   5.668   2.775 -0.2105 -0.1337 -0.1904
 1047TIP3    H224557   3.856   5.772   2.847  0.2190 -0.0371  0.1668
 1048TIP3   OH224558   5.606   5.862   1.378 -0.6444 -0.1843 -0.1446
 1048TIP3    H124559   5.521   5.821   1.363 -0.0216 -0.8651 -1.9532
 1048TIP3    H224560   5.591   5.921   1.451 -1.6234 -3.4598  2.4433
 1049TIP3   OH224561   1.886   1.856   3.026  0.3186 -0.1800  0.0818
 1049TIP3    H124562   1.834   1.897   2.957 -0.0164 -1.0466 -0.1885
 1049TIP3    H224563   1.841   1.773   3.044  1.1403 -0.5547  0.4269
 1050TIP3   OH224564   0.126   0.681   3.902  0.8788 -0.6808 -0.0143
 1050TIP3    H124565   0.211   0.643   3.925  0.0511 -3.1044 -0.8209
 1050TIP3    H224566   0.137   0.711   3.812  0.6479 -1.8047 -0.4311
 1051TIP3   OH224567   6.475   3.218  15.689 -0.0057 -0.2421 -0.4912
 1051TIP3    H124568   6.434   3.141  15.728  2.2831 -0.5346  1.4471
 1051TIP3    H224569   6.447   3.291  15.744  3.4833 -0.6959  2.0765
 1052TIP3   OH224570   3.996   1.427   5.578  0.5933  0.3772  0.3863
 1052TIP3    H124571   4.065   1.491   5.595  0.7339  0.7360 -1.4030
 1052TIP3    H224572   4.011   1.400   5.487  1.6559 -3.5371  1.6092
 1053TIP3   OH224573   0.900   5.959   0.456 -0.1646 -0.0854  0.5341
 1053TIP3    H124574   0.984   5.914   0.455 -0.4363 -0.6047  0.0921
 1053TIP3    H224575   0.906   6.022   0.384 -0.8080 -1.4036 -0.7252
 1054TIP3   OH224576   1.537   0.435  11.410  0.0051  0.5394 -0.2290
 1054TIP3    H124577   1.588   0.356  11.431 -0.5175  0.7666  2.0071
 1054TIP3    H224578   1.604   0.499  11.384  0.3981 -0.7358 -2.5502
 1055TIP3   OH224579   0.478   6.489  14.660  0.2350 -0.3764  0.7777
 1055TIP3    H124580   0.482   6.523  14.749  3.1737  1.3097  0.0777
 1055TIP3    H224581   0.406   6.538  14.619  0.9792  1.1749  1.3011
 1056TIP3   OH224582   1.375   5.236  10.707 -0.5203 -0.2569 -0.2069
 1056TIP3    H124583   1.409   5.325  10.717  3.3069 -1.4049 -2.0447
 1056TIP3    H224584   1.328   5.238  10.623 -0.8125  0.1458 -0.0329
 1057TIP3   OH224585   2.811   0.130   0.927 -0.2776  0.0658  0.0978
 1057TIP3    H124586   2.738   0.072   0.905 -1.8103  1.5869  1.0820
 1057TIP3    H224587   2.889   0.075   0.917 -1.5844 -1.7433 -0.4136
 1058TIP3   OH224588   0.431   0.228  16.393  0.6947 -0.3568  0.2851
 1058TIP3    H124589   0.498   0.252  16.457  0.7431 -0.3286  0.2242
 1058TIP3    H224590   0.421   0.305  16.338  1.3721 -0.7418 -0.3719
 1059TIP3   OH224591   1.460   1.329  13.359  0.5689  0.0035  0.3936
 1059TIP3    H124592   1.477   1.308  13.267 -2.3784 -0.4571 -0.1187
 1059TIP3    H224593   1.456   1.244  13.403 -2.5046 -0.1268  0.0193
 1060TIP3   OH224594   1.799   4.358   2.056 -0.2550  0.7083 -0.1947
 1060TIP3    H124595   1.805   4.266   2.083  0.2493  0.6126 -0.6108
 1060TIP3    H224596   1.711   4.385   2.082 -1.2744 -0.5845 -2.1607
 1061TIP3   OH224597   4.439   2.078  12.968  0.0248  0.0133  0.2586
 1061TIP3    H124598   4.512   2.101  13.026  1.7623  1.3999 -2.3844
 1061TIP3    H224599   4.373   2.145  12.985  0.9960  1.0962 -0.1448
 1062TIP3   OH224600   0.609   1.280   4.544  0.3262  0.6720  0.2776
 1062TIP3    H124601   0.575   1.366   4.569 -0.6117 -0.4636  3.1352
 1062TIP3    H224602   0.533   1.222   4.551  1.0362 -0.4593 -1.2402
 1063TIP3   OH224603   3.825   2.896   1.598  0.2754 -0.0271  0.0222
 1063TIP3    H124604   3.813   2.870   1.689  2.0240  0.7504  0.5023
 1063TIP3    H224605   3.862   2.984   1.604 -0.0797  0.2310 -1.4587
 1064TIP3   OH224606   0.223   6.451   1.281 -0.0078  0.3677  0.0183
 1064TIP3    H124607   0.180   6.497   1.354  0.0340 -1.5506  1.2877
 1064TIP3    H224608   0.295   6.508   1.256 -2.1494  2.7816 -0.9395
 1065TIP3   OH224609   1.765   0.544  11.567 -0.0583 -0.2037  0.0279
 1065TIP3    H124610   1.859   0.537  11.549 -0.1659 -1.1446 -0.1959
 1065TIP3    H224611   1.745   0.466  11.619 -0.3449  0.9663  1.6915
 1066TIP3   OH224612   4.349   5.225  16.566 -0.6444 -0.3325 -0.1262
 1066TIP3    H124613   4.341   5.173  16.645 -3.4565  0.5521  0.2089
 1066TIP3    H224614   4.289   5.184  16.504  1.6564 -1.1364 -1.9152
 1067TIP3   OH224615   1.220   6.366   0.130  0.2752  0.3312 -0.1930
 1067TIP3    H124616   1.242   6.343   0.220 -1.5754  1.9340  0.7196
 1067TIP3    H224617   1.230   6.462   0.126 -0.6009  0.3942 -1.3972
 1068TIP3   OH224618   2.574   1.648  13.785  0.1057  0.3404  0.1837
 1068TIP3    H124619   2.656   1.647  13.834  1.1824 -0.9973 -1.5713
 1068TIP3    H224620   2.538   1.560  13.797 -0.5455  0.5928  0.1048
 1069TIP3   OH224621   4.132   5.986  16.004  0.0081  0.5932 -0.0958
 1069TIP3    H124622   4.189   5.915  16.033  0.7179  1.0491 -0.3793
 1069TIP3    H224623   4.057   5.982  16.065  0.2357 -0.1233  0.1489
 1070TIP3   OH224624   1.092   1.380   1.246 -0.0861  0.4334  0.2444
 1070TIP3    H124625   1.166   1.401   1.303 -1.0357  0.1517  1.6046
 1070TIP3    H224626   1.132   1.345   1.166  1.2419  0.0219  1.0804
 1071TIP3   OH224627   0.560   0.712  11.549  0.0449  0.8682  0.4136
 1071TIP3    H124628   0.649   0.694  11.520  0.6396  1.8289  1.6000
 1071TIP3    H224629   0.571   0.753  11.635 -1.6178 -1.4662  1.8091
 1072TIP3   OH224630   3.609   0.170   2.404 -0.1643 -0.2363  0.3253
 1072TIP3    H124631   3.631   0.228   2.477 -1.5302  0.8729 -0.1154
 1072TIP3    H224632   3.691   0.161   2.355 -0.7175  4.5223 -1.8014
 1073TIP3   OH224633   3.571   5.651  11.301  0.1329  0.4719 -0.9648
 1073TIP3    H124634   3.630   5.593  11.254  0.1553  0.5322 -1.0103
 1073TIP3    H224635   3.605   5.653  11.390 -1.9673 -2.5150 -0.0103
 1074TIP3   OH224636   4.166   4.099   4.934 -0.1735  0.0426 -0.5345
 1074TIP3    H124637   4.113   4.020   4.923 -0.3001  0.2363 -1.3486
 1074TIP3    H224638   4.215   4.107   4.851 -0.8420  1.3159 -0.8117
 1075TIP3   OH224639   5.216   5.335   4.161  0.2788 -0.0110  0.2569
 1075TIP3    H124640   5.277   5.279   4.112  1.9931  1.7523  0.3139
 1075TIP3    H224641   5.214   5.297   4.249  0.1160 -0.9676 -0.1517
 1076TIP3   OH224642   6.542   2.021   1.245  0.0825  0.1384  0.0430
 1076TIP3    H124643   6.561   2.069   1.164  1.5121  0.6776  0.6821
 1076TIP3    H224644   6.449   2.036   1.260 -0.3531 -0.5444 -1.8733
 1077TIP3   OH224645   4.471   0.026   0.121  0.6238 -0.0696  0.0374
 1077TIP3    H124646   4.497   0.104   0.074 -1.2815  2.0890  2.4062
 1077TIP3    H224647   4.553  -0.009   0.157  1.4717  0.8323 -0.9936
 1078TIP3   OH224648   6.071   4.773   3.320 -1.3215  0.4213 -0.2802
 1078TIP3    H124649   6.021   4.853   3.338 -1.2692  0.4890 -0.4346
 1078TIP3    H224650   6.050   4.715   3.393 -0.6477  0.9069  0.3013
 1079TIP3   OH224651   4.437   4.606   0.654 -0.4549  0.0036 -0.3964
 1079TIP3    H124652   4.423   4.558   0.735  0.3109  3.1736  1.7249
 1079TIP3    H224653   4.532   4.620   0.650 -0.5922  0.7557 -1.2945
 1080TIP3   OH224654   0.235   2.019   5.827  0.3223 -0.2141  0.0423
 1080TIP3    H124655   0.173   1.947   5.843 -1.0622  1.3447  2.0291
 1080TIP3    H224656   0.292   2.018   5.904  0.2728  0.8290  0.0899
 1081TIP3   OH224657   5.227   0.167   5.907  1.1723 -0.4476 -0.4369
 1081TIP3    H124658   5.311   0.201   5.938  1.4746 -0.5374 -1.1731
 1081TIP3    H224659   5.167   0.241   5.917  1.5417 -0.0997 -0.7956
 1082TIP3   OH224660   2.439   1.555   1.932  0.3869 -0.2537  0.1820
 1082TIP3    H124661   2.417   1.600   1.851 -1.9475  0.4357  1.1506
 1082TIP3    H224662   2.506   1.610   1.973 -0.2824  0.7576 -0.0726
 1083TIP3   OH224663   4.853   6.741   3.815 -0.2856  0.6686 -0.4432
 1083TIP3    H124664   4.769   6.700   3.794 -0.6929  0.5756  1.2418
 1083TIP3    H224665   4.871   6.713   3.905  1.9886 -0.0089 -1.0887
 1084TIP3   OH224666   3.668   5.523   0.046 -0.2669 -0.1559  0.2182
 1084TIP3    H124667   3.578   5.495   0.031 -0.1241 -1.2580  1.3264
 1084TIP3    H224668   3.711   5.513  -0.038 -1.2336  0.5627 -0.3660
 1085TIP3   OH224669   2.618   6.720  15.776  0.1793 -0.0246 -0.1632
 1085TIP3    H124670   2.549   6.785  15.770  0.9875  0.9686  1.1630
 1085TIP3    H224671   2.661   6.722  15.691  0.2550  1.2401 -0.1007
 1086TIP3   OH224672   2.430   1.783   2.271  0.3850 -0.2725 -0.2896
 1086TIP3    H124673   2.473   1.699   2.287  0.3816  0.1328  2.0165
 1086TIP3    H224674   2.337   1.762   2.261  0.7995 -0.9031 -3.1132
 1087TIP3   OH224675   0.127   6.251   0.573  0.7879  0.0571  0.2235
 1087TIP3    H124676   0.203   6.292   0.612  1.0800 -0.3909  0.1273
 1087TIP3    H224677   0.053   6.285   0.623  0.9730  1.1733 -0.2535
 1088TIP3   OH224678   0.999   5.747  14.776  0.2440  0.4489 -0.0420
 1088TIP3    H124679   0.914   5.716  14.743 -0.6132 -0.8879  3.1793
 1088TIP3    H224680   1.042   5.668  14.809  0.8801  1.7317  2.3067
 1089TIP3   OH224681   4.554   3.362   0.140  0.1828 -0.0347 -0.5546
 1089TIP3    H124682   4.603   3.423   0.084  0.3672  0.2737 -0.0650
 1089TIP3    H224683   4.616   3.291   0.158  0.3030  0.1294 -0.3105
 1090TIP3   OH224684   6.293   2.113   2.642 -0.3174 -0.6058 -0.4846
 1090TIP3    H124685   6.213   2.062   2.625  0.4668 -1.4026 -1.8389
 1090TIP3    H224686   6.356   2.048   2.671  0.1976 -0.1478 -0.5841
 1091TIP3   OH224687   4.601   1.830  13.564  0.4005  0.7334  0.3794
 1091TIP3    H124688   4.574   1.854  13.475 -0.3116  1.1747  0.7125
 1091TIP3    H224689   4.630   1.739  13.557 -2.0944 -0.0721  0.2005
 1092TIP3   OH224690   6.279   6.673   1.475 -0.0951 -0.2577 -0.3612
 1092TIP3    H124691   6.330   6.603   1.515  1.8418  1.4594  0.2287
 1092TIP3    H224692   6.316   6.682   1.387  0.3078  0.6654 -0.1008
 1093TIP3   OH224693   1.285   3.660   4.024  0.4059 -0.2050 -0.1409
 1093TIP3    H124694   1.270   3.743   4.069 -1.5504 -1.0751  0.8786
 1093TIP3    H224695   1.244   3.673   3.938 -3.3277 -1.3409  1.3600
 1094TIP3   OH224696   6.706   5.397   5.279  0.1651  0.0107 -0.3032
 1094TIP3    H124697   6.792   5.438   5.269 -0.9969  2.6862  0.3978
 1094TIP3    H224698   6.684   5.409   5.372  0.1140 -2.9352  0.1368
 1095TIP3   OH224699   5.457   0.725   2.388 -0.1299  0.5238 -0.1216
 1095TIP3    H124700   5.452   0.814   2.352 -1.8012  0.8061  0.7330
 1095TIP3    H224701   5.447   0.668   2.312 -1.4051  1.0966 -0.4052
 1096TIP3   OH224702   6.345   6.773   4.624 -0.8216 -0.3537 -0.0784
 1096TIP3    H124703   6.326   6.687   4.662  0.4856 -0.3517  0.6376
 1096TIP3    H224704   6.410   6.811   4.683  0.3774  0.1507 -1.6682
 1097TIP3   OH224705   1.238   1.390  17.053 -0.2368 -0.2295 -0.6319
 1097TIP3    H124706   1.318   1.343  17.079 -1.0232 -1.1933  0.0767
 1097TIP3    H224707   1.266   1.481  17.046  0.7623 -0.4366  0.3809
 1098TIP3   OH224708   4.732   1.176   2.315  0.4276  0.3520  0.0423
 1098TIP3    H124709   4.653   1.230   2.307  0.3658  0.3889  0.9296
 1098TIP3    H224710   4.700   1.087   2.300  0.4954  0.5297 -1.2087
 1099TIP3   OH224711   3.375   2.966   0.874 -0.4789  0.1055  0.4713
 1099TIP3    H124712   3.442   2.926   0.818  0.8750  3.0760 -0.1315
 1099TIP3    H224713   3.297   2.971   0.819  0.8118  2.8998 -1.2008
 1100TIP3   OH224714   6.158   1.968  15.289 -0.1534  0.1791  0.3836
 1100TIP3    H124715   6.109   1.912  15.229  2.5956 -2.3425  0.3567
 1100TIP3    H224716   6.227   2.006  15.235  1.2848 -0.7373  1.5334
 1101TIP3   OH224717   1.884   2.774  15.354  0.0056  0.2794  0.0937
 1101TIP3    H124718   1.794   2.783  15.324 -0.1850  1.2747  0.9397
 1101TIP3    H224719   1.927   2.855  15.328  0.9069 -0.5562 -1.0968
 1102TIP3   OH224720   2.568   4.515   1.216  0.0242  0.3490 -0.3511
 1102TIP3    H124721   2.638   4.535   1.279 -0.6214  0.8349  0.2147
 1102TIP3    H224722   2.487   4.534   1.263 -0.4986 -0.3600 -0.9572
 1103TIP3   OH224723   1.786   6.226  14.303  0.8478  0.2603 -0.5489
 1103TIP3    H124724   1.835   6.145  14.315  0.1425 -0.1315 -0.2483
 1103TIP3    H224725   1.789   6.269  14.389  2.6313  1.3741 -1.1376
 1104TIP3   OH224726   6.009   4.774   5.396 -0.3540 -0.4029 -0.1014
 1104TIP3    H124727   6.102   4.752   5.391  0.0227  0.7932  1.1793
 1104TIP3    H224728   6.004   4.845   5.461 -2.1411 -0.3619 -0.2361
 1105TIP3   OH224729   1.687   2.411  12.996  0.2504  0.2399 -0.6738
 1105TIP3    H124730   1.645   2.438  13.078  0.3467  2.6915 -1.3712
 1105TIP3    H224731   1.726   2.492  12.963  2.3604 -1.2384 -1.8889
 1106TIP3   OH224732   3.713   1.276   5.984  0.0607 -0.5689 -0.4219
 1106TIP3    H124733   3.755   1.217   5.921  2.3097  0.5551 -0.0125
 1106TIP3    H224734   3.779   1.290   6.052 -1.4557  0.1924  0.9259
 1107TIP3   OH224735   2.483   4.678  12.718  0.2094 -0.3337  0.0671
 1107TIP3    H124736   2.552   4.612  12.713 -0.3872 -1.0875  1.4262
 1107TIP3    H224737   2.529   4.762  12.717  1.0815 -0.8102  0.1144
 1108TIP3   OH224738   3.679   1.651   3.078 -0.0419  0.0194 -0.1184
 1108TIP3    H124739   3.631   1.598   3.015  1.8662 -0.5657 -1.0943
 1108TIP3    H224740   3.740   1.703   3.025 -0.4313  1.6690  0.9947
 1109TIP3   OH224741   1.437   5.266   3.686 -0.2516  0.2846 -0.2379
 1109TIP3    H124742   1.441   5.204   3.759 -0.0017 -0.6133 -0.9942
 1109TIP3    H224743   1.345   5.293   3.682 -0.7169 -1.3368 -0.9403
 1110TIP3   OH224744   0.220   6.542  13.777  0.0859 -0.0849 -0.0810
 1110TIP3    H124745   0.315   6.531  13.779  0.0716 -0.3935 -1.0218
 1110TIP3    H224746   0.202   6.612  13.841  0.8067 -0.9534  1.0864
 1111TIP3   OH224747   6.684   5.942  14.971  0.4320  0.3952 -0.1989
 1111TIP3    H124748   6.652   5.854  14.949  1.1202  0.0401  0.2009
 1111TIP3    H224749   6.645   5.999  14.905 -0.1477 -0.1918 -0.3657
 1112TIP3   OH224750   6.434   6.308  17.225  0.4500  0.4384 -0.3569
 1112TIP3    H124751   6.417   6.389  17.176  0.4265  1.8790  1.9649
 1112TIP3    H224752   6.348   6.283  17.259  0.1947 -1.4087 -2.2778
 1113TIP3   OH224753   0.204   3.842   4.330  0.2911  0.2297 -0.3436
 1113TIP3    H124754   0.260   3.831   4.253  1.0631 -0.3944  0.2941
 1113TIP3    H224755   0.117   3.812   4.301  0.1975  1.4766 -1.4202
 1114TIP3   OH224756   5.502   1.525  16.657  0.1202  0.1633  0.6108
 1114TIP3    H124757   5.515   1.448  16.713 -0.1969  0.0616  0.5402
 1114TIP3    H224758   5.450   1.493  16.583  1.3591  0.0789 -0.2420
 1115TIP3   OH224759   1.096   2.819  15.567 -0.0380  0.0649  0.0147
 1115TIP3    H124760   1.066   2.858  15.486 -1.1930 -2.9135 -1.0812
 1115TIP3    H224761   1.156   2.750  15.540 -0.1164 -0.7026  1.6908
 1116TIP3   OH224762   0.403   3.144  10.494  0.1196 -0.3137 -0.5242
 1116TIP3    H124763   0.320   3.104  10.520  0.0160 -0.1476 -0.5938
 1116TIP3    H224764   0.419   3.112  10.405  0.0551 -0.2305 -0.5666
 1117TIP3   OH224765   6.294   6.312   3.229 -0.4365  0.2626 -0.1723
 1117TIP3    H124766   6.226   6.310   3.161 -1.1779 -0.9387  0.5941
 1117TIP3    H224767   6.321   6.221   3.239  0.5236  0.5955  0.2920
 1118TIP3   OH224768   3.078   4.621  16.055  0.4148  0.6587 -0.0856
 1118TIP3    H124769   3.085   4.695  16.116 -0.6765 -0.2663  1.2068
 1118TIP3    H224770   2.985   4.615  16.036  0.4388 -0.6927  0.2082
 1119TIP3   OH224771   5.131   3.698   5.733  0.0838 -0.6074  0.2078
 1119TIP3    H124772   5.179   3.663   5.658  0.4178  0.2359  0.0239
 1119TIP3    H224773   5.186   3.678   5.808  1.2734  1.3231 -0.1186
 1120TIP3   OH224774   5.959   6.598  14.162  0.2389  0.7732 -0.9486
 1120TIP3    H124775   5.870   6.630  14.180 -0.5714 -1.6063 -0.5408
 1120TIP3    H224776   5.949   6.539  14.088  0.6635 -2.9214  1.7597
 1121TIP3   OH224777   3.922   0.923   1.209 -0.6666 -0.3218  0.4540
 1121TIP3    H124778   3.972   0.859   1.158  1.2624  0.2831  1.5444
 1121TIP3    H224779   3.867   0.967   1.144 -1.0130 -2.1156 -0.5190
 1122TIP3   OH224780   2.592   2.487   1.815  0.0809  0.1614  0.2068
 1122TIP3    H124781   2.561   2.552   1.752 -0.9259 -0.5392 -0.0335
 1122TIP3    H224782   2.658   2.437   1.767 -0.1223  0.1348 -0.0456
 1123TIP3   OH224783   2.083   2.263   1.869  0.0587  0.0856  0.1705
 1123TIP3    H124784   2.171   2.250   1.835 -0.8866 -0.1400 -2.2668
 1123TIP3    H224785   2.051   2.342   1.824  0.2504  2.2694  3.6388
 1124TIP3   OH224786   4.034   5.961   0.286  0.3198 -0.2844  0.9598
 1124TIP3    H124787   4.111   5.905   0.273  0.5307 -0.2934  2.1175
 1124TIP3    H224788   4.008   5.987   0.198  1.1977 -0.8950  0.5039
 1125TIP3   OH224789   1.768   5.523  12.808  0.4411 -0.1638 -0.3380
 1125TIP3    H124790   1.793   5.522  12.900  0.1116  0.2623 -0.2439
 1125TIP3    H224791   1.780   5.432  12.779 -1.2113 -0.7153  0.6119
 1126TIP3   OH224792   4.554   2.242   5.032 -0.1288  0.1198 -0.4244
 1126TIP3    H124793   4.491   2.313   5.031 -1.2229 -0.8399 -0.5837
 1126TIP3    H224794   4.514   2.172   4.980 -0.1500 -1.5133  1.7030
 1127TIP3   OH224795   4.819   6.721   5.779 -0.3069  0.0842  0.0858
 1127TIP3    H124796   4.845   6.726   5.687  0.4476  3.0707  0.3981
 1127TIP3    H224797   4.901   6.709   5.826 -0.5767 -0.3470  0.4478
 1128TIP3   OH224798   2.323   3.316  14.053 -0.7975 -0.5366  0.9106
 1128TIP3    H124799   2.389   3.288  13.990 -0.8357 -0.9439  1.0511
 1128TIP3    H224800   2.254   3.355  13.999 -1.2749 -1.7711  0.6218
 1129TIP3   OH224801   4.312   3.508  16.945  0.6655  0.0436 -0.0821
 1129TIP3    H124802   4.302   3.570  16.873  0.6359  0.1143 -0.0183
 1129TIP3    H224803   4.231   3.457  16.944  0.4674  0.3584  0.2004
 1130TIP3   OH224804   0.515   3.561   1.518  0.1719 -0.2081 -0.0908
 1130TIP3    H124805   0.607   3.561   1.544 -0.1686 -1.7610  1.1319
 1130TIP3    H224806   0.510   3.496   1.449 -0.0287 -0.1413 -0.1381
 1131TIP3   OH224807   5.281   2.755   5.573  0.0295  0.3597 -0.3993
 1131TIP3    H124808   5.326   2.703   5.507  0.2204  1.3248 -1.0401
 1131TIP3    H224809   5.349   2.781   5.635 -0.2935 -1.2842  0.6983
 1132TIP3   OH224810   1.223   1.113  12.346  0.1595  0.4950  0.4606
 1132TIP3    H124811   1.261   1.200  12.332 -1.2335  1.1445  0.6492
 1132TIP3    H224812   1.192   1.087  12.259 -1.4666  1.1725  0.8264
 1133TIP3   OH224813   2.109   2.943  12.830 -0.5693  0.1885 -0.0279
 1133TIP3    H124814   2.183   2.908  12.880 -0.1994 -0.0676 -0.7521
 1133TIP3    H224815   2.057   2.990  12.895  0.6022  0.9719  0.3575
 1134TIP3   OH224816   1.375   2.128  14.116  0.1663 -0.5607  0.4750
 1134TIP3    H124817   1.405   2.064  14.051 -3.8772 -0.0207 -2.0758
 1134TIP3    H224818   1.384   2.213  14.072 -1.2818 -0.0502  1.1431
 1135TIP3   OH224819   5.243   3.687  12.525  0.3274  0.0818  0.4879
 1135TIP3    H124820   5.326   3.706  12.481  0.1655  0.1830  0.2280
 1135TIP3    H224821   5.210   3.608  12.482  0.5294 -0.2416  0.9222
 1136TIP3   OH224822   4.962   6.634   2.111 -0.1520 -0.0530  0.4863
 1136TIP3    H124823   4.996   6.614   2.199  1.4128 -0.8266 -0.2775
 1136TIP3    H224824   4.931   6.724   2.118 -1.4819 -0.6237  2.2662
 1137TIP3   OH224825   2.476   5.661  14.499  0.1913  0.0570  0.7542
 1137TIP3    H124826   2.551   5.674  14.441 -1.0340  1.9473 -0.4607
 1137TIP3    H224827   2.414   5.611  14.447  0.2782 -0.7934  1.4671
 1138TIP3   OH224828   4.913   4.730  11.367 -0.2274  0.1118 -0.0149
 1138TIP3    H124829   4.898   4.776  11.285  0.8380 -0.6944 -0.6771
 1138TIP3    H224830   4.997   4.763  11.399  0.4522 -1.2274 -0.4021
 1139TIP3   OH224831   2.809   6.169  13.707 -0.6694  0.1752 -0.1857
 1139TIP3    H124832   2.847   6.246  13.750  1.8166 -1.1273  0.0054
 1139TIP3    H224833   2.805   6.103  13.776 -0.9273 -0.5049 -0.8520
 1140TIP3   OH224834   5.608   2.283   5.334 -0.6820  0.1249  0.5058
 1140TIP3    H124835   5.666   2.235   5.275  0.9848  1.8727  0.7055
 1140TIP3    H224836   5.549   2.331   5.276  0.1846  0.9047  0.2654
 1141TIP3   OH224837   3.080   2.217   2.695  0.2587 -0.0790 -0.0916
 1141TIP3    H124838   3.148   2.155   2.718  0.5413  0.4619  0.5505
 1141TIP3    H224839   3.027   2.225   2.774  0.2073  0.4711 -0.1789
 1142TIP3   OH224840   6.719   0.801   1.324 -0.1396 -0.2446  0.6673
 1142TIP3    H124841   6.689   0.890   1.343  0.9600  0.4212 -0.6220
 1142TIP3    H224842   6.639   0.750   1.310 -0.7378  1.2966 -1.8227
 1143TIP3   OH224843   3.882   5.211   2.301  0.6284 -0.1518 -0.0216
 1143TIP3    H124844   3.930   5.162   2.235  3.3422  2.2850  0.0491
 1143TIP3    H224845   3.836   5.280   2.252  0.0749 -0.2882  0.2960
 1144TIP3   OH224846   3.810   2.180  14.991 -0.4682  0.5629 -0.2037
 1144TIP3    H124847   3.863   2.125  14.934 -0.1166  0.4445  0.2377
 1144TIP3    H224848   3.739   2.211  14.935 -1.6340 -1.6980 -0.0542
 1145TIP3   OH224849   3.089   3.161  15.347  0.7327  0.2324 -0.3075
 1145TIP3    H124850   3.058   3.107  15.274  1.6684 -2.0531  0.9491
 1145TIP3    H224851   3.180   3.180  15.327  1.0184 -0.4789  0.3049
 1146TIP3   OH224852   4.732   1.057  16.604 -0.3733  0.2655  0.0526
 1146TIP3    H124853   4.768   1.133  16.649  1.0135 -0.8246  0.8166
 1146TIP3    H224854   4.753   1.072  16.512  4.3391 -1.4862  0.7015
 1147TIP3   OH224855   1.137   5.407   3.898 -0.5320 -0.0207 -0.2033
 1147TIP3    H124856   1.049   5.407   3.935 -0.7656  0.4231 -0.7515
 1147TIP3    H224857   1.143   5.326   3.848 -0.3310 -0.4623  0.5433
 1148TIP3   OH224858   4.989   3.351   0.098 -0.0268 -0.2202 -0.1132
 1148TIP3    H124859   5.046   3.419   0.065  0.2034 -0.4266 -0.1374
 1148TIP3    H224860   5.014   3.272   0.050 -1.5110  0.0608 -1.3992
 1149TIP3   OH224861   1.410   2.244  14.776  0.7958  0.1909 -0.7511
 1149TIP3    H124862   1.459   2.183  14.720  0.5355 -2.2629  1.6123
 1149TIP3    H224863   1.319   2.233  14.749  0.7238 -0.6348 -0.1724
 1150TIP3   OH224864   5.688   2.796   5.227 -0.1441 -0.1020 -0.5594
 1150TIP3    H124865   5.763   2.813   5.283 -1.4775 -1.1883  1.6288
 1150TIP3    H224866   5.620   2.855   5.259 -2.0273 -3.1464  1.3618
 1151TIP3   OH224867   1.140   3.214   0.339  0.0868  0.0232 -0.1777
 1151TIP3    H124868   1.143   3.120   0.323  1.2070 -0.2329  1.4479
 1151TIP3    H224869   1.085   3.224   0.417 -0.2551  0.7449 -0.4996
 1152TIP3   OH224870   3.434   3.244  14.381  0.0377  0.0294  0.1021
 1152TIP3    H124871   3.504   3.214  14.438 -0.0534  2.5618  1.6137
 1152TIP3    H224872   3.438   3.185  14.305  3.1386 -0.4871  0.6012
 1153TIP3   OH224873   5.190   6.285  16.117 -0.6198 -0.0270 -0.1250
 1153TIP3    H124874   5.164   6.320  16.032 -1.9610  1.4861  0.8716
 1153TIP3    H224875   5.264   6.341  16.143 -0.2000 -0.4992 -0.2997
 1154TIP3   OH224876   3.652   0.763   5.840  0.4714  0.2725  0.5728
 1154TIP3    H124877   3.741   0.753   5.874 -1.1001  0.4425  5.0012
 1154TIP3    H224878   3.628   0.853   5.863 -1.1451 -0.0199  0.0737
 1155TIP3   OH224879   0.522   4.142  15.977  0.8818 -0.0327  0.6246
 1155TIP3    H124880   0.560   4.064  16.018  0.7184  0.2176  1.2593
 1155TIP3    H224881   0.452   4.169  16.036  0.4080  0.1245 -0.0067
 1156TIP3   OH224882   2.798   3.508   0.339  0.1264 -0.8108 -0.0955
 1156TIP3    H124883   2.745   3.435   0.371 -1.3251  1.0985  1.9631
 1156TIP3    H224884   2.870   3.515   0.402 -0.3814  0.2575  0.3753
 1157TIP3   OH224885   1.076   3.533  15.694 -0.3167  0.2689  0.3852
 1157TIP3    H124886   1.131   3.483  15.634 -0.4089 -1.8108  1.9681
 1157TIP3    H224887   0.998   3.556  15.643 -0.1044 -0.9149 -0.4883
 1158TIP3   OH224888   5.268   3.589   5.971 -0.1423  0.0307  0.1061
 1158TIP3    H124889   5.292   3.564   6.061 -2.3219  0.7946  0.9444
 1158TIP3    H224890   5.321   3.667   5.953 -0.0645  0.1776  0.9237
 1159TIP3   OH224891   1.495   6.621   3.879  0.3361  0.6459  0.2164
 1159TIP3    H124892   1.491   6.562   3.803 -0.3506  2.3759 -1.1316
 1159TIP3    H224893   1.525   6.565   3.951  1.4495 -0.9421 -1.4257
 1160TIP3   OH224894   3.454   0.405  12.440 -0.3318  0.0234  0.3904
 1160TIP3    H124895   3.451   0.422  12.346  1.9806 -1.6056 -0.0065
 1160TIP3    H224896   3.448   0.491  12.480  0.5073  0.8914 -1.2913
 1161TIP3   OH224897   2.950   1.868  11.396  0.0731 -0.5447  0.2732
 1161TIP3    H124898   2.928   1.775  11.407 -1.7276  0.0080  1.6154
 1161TIP3    H224899   2.971   1.898  11.484  1.6510  0.0966 -0.3084
 1162TIP3   OH224900   6.441   3.375  11.912  0.5851  0.2721  0.2156
 1162TIP3    H124901   6.449   3.333  11.998 -1.4493 -1.1751 -0.2505
 1162TIP3    H224902   6.425   3.467  11.932  1.4471  0.1985  1.3483
 1163TIP3   OH224903   4.224   4.085   0.644 -0.0326  0.1018  0.6133
 1163TIP3    H124904   4.256   4.065   0.732  0.6130 -1.6067 -0.0044
 1163TIP3    H224905   4.248   4.009   0.591 -1.6634  0.4993 -0.7405
 1164TIP3   OH224906   6.496   1.820   5.962  0.0335  0.0656 -0.2354
 1164TIP3    H124907   6.533   1.804   6.048 -0.5022  2.4090  0.4600
 1164TIP3    H224908   6.404   1.841   5.979  0.3093  2.1874 -1.1875
 1165TIP3   OH224909   0.258   1.929  11.164 -0.7932  0.3375  0.5370
 1165TIP3    H124910   0.172   1.923  11.123 -0.1737  0.7848 -0.8636
 1165TIP3    H224911   0.244   1.982  11.243 -1.5870  1.3278 -0.2685
 1166TIP3   OH224912   2.013   6.093   2.583  0.0941 -0.5781 -0.0509
 1166TIP3    H124913   1.987   6.015   2.535  0.2331  0.1171 -1.2935
 1166TIP3    H224914   2.107   6.102   2.564  0.2774 -0.6080  0.8158
 1167TIP3   OH224915   4.609   1.413   2.164 -0.3230 -0.0546  0.2983
 1167TIP3    H124916   4.657   1.472   2.221  0.1749 -0.1202 -0.0515
 1167TIP3    H224917   4.520   1.413   2.198 -0.6551  1.9407 -0.5181
 1168TIP3   OH224918   1.660   4.648  16.595  0.8465 -0.3006  0.2402
 1168TIP3    H124919   1.726   4.584  16.568 -0.1623 -1.1148 -0.3045
 1168TIP3    H224920   1.589   4.597  16.631  0.5386  0.5871  0.9186
 1169TIP3   OH224921   6.365   0.928  12.359 -0.6265 -0.1431  0.1406
 1169TIP3    H124922   6.418   0.925  12.439 -1.6232 -0.6510  0.7883
 1169TIP3    H224923   6.355   1.022  12.341  1.9323 -0.0615 -0.9579
 1170TIP3   OH224924   4.674   5.873   1.470  0.2979  0.7060  0.1944
 1170TIP3    H124925   4.768   5.873   1.488  0.4201  1.9052 -0.4099
 1170TIP3    H224926   4.642   5.955   1.506 -0.7527 -0.2337  1.4876
 1171TIP3   OH224927   6.128   4.386   4.815  0.5322  0.3254  0.8024
 1171TIP3    H124928   6.198   4.376   4.880  1.3290  2.0707  0.2411
 1171TIP3    H224929   6.156   4.460   4.760 -1.5601  0.8217  0.3425
 1172TIP3   OH224930   2.736   4.366  16.037 -0.7838  0.0530 -0.4621
 1172TIP3    H124931   2.737   4.289  15.981 -1.5586 -0.2813 -0.0274
 1172TIP3    H224932   2.696   4.435  15.983 -1.8602 -0.3611 -0.2177
 1173TIP3   OH224933   0.795   1.845  12.550  0.2923  0.2441 -0.4691
 1173TIP3    H124934   0.805   1.774  12.613  0.9587  2.4684  2.0185
 1173TIP3    H224935   0.700   1.857  12.543  0.2222  0.5333  0.7987
 1174TIP3   OH224936   3.810   2.850   6.528  0.0139 -0.5186 -0.1046
 1174TIP3    H124937   3.726   2.866   6.484  0.3836  1.1318 -0.2507
 1174TIP3    H224938   3.839   2.937   6.557  2.1951 -0.9128 -1.0104
 1175TIP3   OH224939   1.184   4.550   0.594  0.2660 -0.4549 -0.0971
 1175TIP3    H124940   1.163   4.458   0.580  0.5945 -0.7944  1.4887
 1175TIP3    H224941   1.132   4.575   0.671  1.6180  0.1322  0.6509
 1176TIP3   OH224942   0.747   1.692   4.714 -0.5988 -0.1295 -0.5191
 1176TIP3    H124943   0.836   1.697   4.750 -0.7821  1.2601 -0.2281
 1176TIP3    H224944   0.694   1.660   4.787 -0.4588 -0.2929 -0.4868
 1177TIP3   OH224945   2.546   0.763  11.996 -0.1064 -0.4021  0.0393
 1177TIP3    H124946   2.572   0.843  12.042 -1.8022  0.2861 -0.1554
 1177TIP3    H224947   2.596   0.765  11.914  2.9577 -1.6475  1.7898
 1178TIP3   OH224948   1.588   6.355  13.075 -0.3828  0.1844 -0.4584
 1178TIP3    H124949   1.501   6.339  13.110 -0.3987 -2.7467 -1.7161
 1178TIP3    H224950   1.573   6.396  12.990 -0.5375 -0.4933 -0.7584
 1179TIP3   OH224951   0.052   3.560   2.286 -0.6842  0.7511 -0.4790
 1179TIP3    H124952   0.109   3.598   2.219 -1.5252  2.1779 -0.4069
 1179TIP3    H224953  -0.021   3.523   2.238 -1.3865  1.9495 -0.3632
 1180TIP3   OH224954   4.400   5.651  15.344  0.4102 -0.3441  1.3936
 1180TIP3    H124955   4.312   5.632  15.312  0.5316  0.8464  0.3333
 1180TIP3    H224956   4.449   5.677  15.266  1.6335 -0.7165  2.0226
 1181TIP3   OH224957   3.684   5.398  15.653  0.3859  0.3428  0.2766
 1181TIP3    H124958   3.644   5.336  15.715 -0.8081  1.3280  0.5047
 1181TIP3    H224959   3.610   5.438  15.607  1.2305  0.1789 -1.2667
 1182TIP3   OH224960   3.440   5.202  14.443 -0.5416  0.1269 -0.0784
 1182TIP3    H124961   3.442   5.135  14.375  0.8347 -3.0773  2.9452
 1182TIP3    H224962   3.351   5.196  14.480 -0.3582 -0.1507  0.3177
 1183TIP3   OH224963   1.015   2.921   0.868 -0.2362 -0.1099  0.1084
 1183TIP3    H124964   0.945   2.948   0.928 -0.0726 -0.6423  0.5435
 1183TIP3    H224965   1.095   2.934   0.918 -0.1850 -2.0505  0.5913
 1184TIP3   OH224966   2.994   3.055  15.579 -0.3137  0.6425  0.4766
 1184TIP3    H124967   3.013   3.125  15.641 -0.5486  1.0449  0.0935
 1184TIP3    H224968   3.028   3.087  15.496 -1.7317  0.9452 -0.0139
 1185TIP3   OH224969   3.881   3.009  12.004 -0.2783  0.3029 -0.1280
 1185TIP3    H124970   3.974   3.032  12.001 -0.0992 -0.5757 -1.6075
 1185TIP3    H224971   3.880   2.923  12.046 -0.4049  0.2241 -0.2941
 1186TIP3   OH224972   5.800   6.244  13.041  0.0267  0.9387  0.0474
 1186TIP3    H124973   5.895   6.231  13.037 -0.1618 -1.4919  2.0827
 1186TIP3    H224974   5.766   6.189  12.971 -0.0051 -0.0563  0.8326
 1187TIP3   OH224975   4.652   5.333   1.825 -0.3630 -0.6780 -0.1309
 1187TIP3    H124976   4.693   5.335   1.912 -0.2637  1.4529 -0.1980
 1187TIP3    H224977   4.611   5.247   1.820 -0.7105 -0.6855  2.2025
 1188TIP3   OH224978   0.661   0.786   2.420  0.0362 -0.3946  0.4852
 1188TIP3    H124979   0.589   0.774   2.357  0.5187 -1.9349  0.1988
 1188TIP3    H224980   0.617   0.814   2.500 -0.7838 -0.2393 -0.0035
 1189TIP3   OH224981   6.348   2.226   2.331 -0.2145  0.4856  0.6594
 1189TIP3    H124982   6.426   2.254   2.378 -0.4412  1.2193  0.6042
 1189TIP3    H224983   6.276   2.242   2.392 -0.3635  0.1696  0.5662
 1190TIP3   OH224984   1.318   0.599   5.224  0.4031 -0.0050 -0.0085
 1190TIP3    H124985   1.252   0.654   5.267 -0.9305 -1.3081 -0.3625
 1190TIP3    H224986   1.319   0.630   5.133  1.4493  1.0935  0.3668
 1191TIP3   OH224987   0.454   0.553   3.663 -0.3331 -0.1142  0.3614
 1191TIP3    H124988   0.394   0.535   3.590 -1.1088 -1.8161  1.3838
 1191TIP3    H224989   0.455   0.648   3.671 -0.3719  0.0874 -1.7489
 1192TIP3   OH224990   2.955   5.670  13.022 -0.3171 -0.1329  0.6663
 1192TIP3    H124991   2.959   5.581  13.055 -1.8433 -0.1251  0.9202
 1192TIP3    H224992   3.045   5.701  13.023  0.1338 -1.4618  1.1599
 1193TIP3   OH224993   4.841   0.515  11.793 -0.1157  0.7048  0.2968
 1193TIP3    H124994   4.812   0.525  11.702  1.1438  1.4892 -0.0258
 1193TIP3    H224995   4.761   0.522  11.845 -0.9975 -0.9149 -0.8255
 1194TIP3   OH224996   5.664   1.037   5.003 -0.0969  0.3028 -0.1187
 1194TIP3    H124997   5.734   0.982   4.968 -1.2385 -2.1104  1.2857
 1194TIP3    H224998   5.586   1.012   4.953 -0.8975 -0.3327  1.4195
 1195TIP3   OH224999   1.699   0.861  11.837  0.4723  0.8058  0.1399
 1195TIP3    H125000   1.704   0.913  11.756  0.6272  0.6644  0.0574
 1195TIP3    H225001   1.788   0.828  11.850  0.2821  0.2104 -0.0418
 1196TIP3   OH225002   4.993   0.337  15.275 -0.4036  0.0826  0.0632
 1196TIP3    H125003   4.913   0.285  15.276 -0.7193  0.5840  1.9852
 1196TIP3    H225004   5.060   0.277  15.310 -0.5451  0.6036  1.2382
 1197TIP3   OH225005   3.287   5.204  14.915 -0.0471  0.1349  0.2269
 1197TIP3    H125006   3.295   5.186  15.009 -1.0429 -1.2506  0.0759
 1197TIP3    H225007   3.198   5.238  14.905  0.4814  1.4593 -0.0553
 1198TIP3   OH225008   3.520   5.884  16.743 -0.6002 -0.4433 -0.0935
 1198TIP3    H125009   3.461   5.810  16.761 -1.7594  0.4506 -0.1975
 1198TIP3    H225010   3.501   5.947  16.812 -0.3610  0.2054 -0.6155
 1199TIP3   OH225011   1.605   6.530  15.391 -0.5563  0.2467 -0.0628
 1199TIP3    H125012   1.515   6.557  15.377 -1.2340 -1.8685 -0.0321
 1199TIP3    H225013   1.624   6.471  15.318  1.1364  1.4578 -0.6235
 1200TIP3   OH225014   6.551   1.438  11.693 -0.4261  0.1324  0.1324
 1200TIP3    H125015   6.608   1.362  11.707  0.1627  0.5388 -0.0314
 1200TIP3    H225016   6.536   1.440  11.599  0.6411  0.9885 -0.0231
 1201TIP3   OH225017   1.473   6.543   1.204 -0.0200  0.4072  0.5579
 1201TIP3    H125018   1.439   6.571   1.289  1.2264 -0.4728  1.3589
 1201TIP3    H225019   1.559   6.585   1.197 -0.3210  0.8669 -0.4898
 1202TIP3   OH225020   3.198   3.953  11.949  0.1504 -0.3289 -0.3084
 1202TIP3    H125021   3.249   3.994  12.020  1.7386 -2.2239 -0.3234
 1202TIP3    H225022   3.227   3.862  11.949 -0.3619 -0.5036 -2.9532
 1203TIP3   OH225023   5.224   0.822   5.948  0.2495  0.1573 -0.1006
 1203TIP3    H125024   5.307   0.822   5.901  0.2270 -0.0487 -0.1422
 1203TIP3    H225025   5.220   0.908   5.990  0.4291  0.2112 -0.1931
 1204TIP3   OH225026   6.431   3.669  13.492 -0.0912  0.4157 -0.1145
 1204TIP3    H125027   6.456   3.582  13.462 -0.1570  0.3290  0.0767
 1204TIP3    H225028   6.391   3.654  13.578 -0.7044  0.5630 -0.3683
 1205TIP3   OH225029   0.136   1.852   5.392  0.0954 -0.4559 -0.9706
 1205TIP3    H125030   0.109   1.889   5.308 -0.2397  0.5534 -0.4191
 1205TIP3    H225031   0.065   1.792   5.416 -1.8431  2.3783  0.6039
 1206TIP3   OH225032   4.865   1.760  12.780  0.2136 -0.4094  0.3424
 1206TIP3    H125033   4.953   1.798  12.788 -0.2620  0.5753  0.8710
 1206TIP3    H225034   4.828   1.802  12.703  0.8457 -2.1185 -0.9260
 1207TIP3   OH225035   0.063   4.709   4.627 -0.0460 -0.0271  0.1416
 1207TIP3    H125036   0.036   4.706   4.535 -0.6667  0.8041  0.2968
 1207TIP3    H225037  -0.000   4.653   4.672 -0.4815  0.5620  0.2537
 1208TIP3   OH225038   2.462   0.597   4.554  0.2225  0.5775 -0.0234
 1208TIP3    H125039   2.541   0.650   4.552  0.8512 -0.3548 -0.0994
 1208TIP3    H225040   2.469   0.544   4.634  0.0506 -0.0638 -0.4247
 1209TIP3   OH225041   2.807   4.196   1.041  0.8923 -0.7239 -0.5518
 1209TIP3    H125042   2.739   4.154   0.989  1.9972 -1.5465 -1.3422
 1209TIP3    H225043   2.792   4.290   1.029  0.0225 -0.9011 -0.8713
 1210TIP3   OH225044   3.747   3.328   1.137 -0.4157  0.0075  0.0721
 1210TIP3    H125045   3.703   3.341   1.221  0.0519 -0.1818  0.3487
 1210TIP3    H225046   3.685   3.277   1.085 -0.4103 -0.4919  0.5533
 1211TIP3   OH225047   4.302   1.190   4.023  0.2777 -0.2331 -0.0116
 1211TIP3    H125048   4.315   1.239   3.942 -2.2447  1.5888  0.6192
 1211TIP3    H225049   4.378   1.132   4.029  0.5379 -0.3672 -3.6376
 1212TIP3   OH225050   4.962   4.551  12.970 -0.2438 -0.1743  0.3256
 1212TIP3    H125051   4.918   4.615  12.914  0.4001 -0.3881 -0.4366
 1212TIP3    H225052   5.047   4.592  12.990 -0.1109 -0.4896  0.4103
 1213TIP3   OH225053   5.216   2.188   4.143  0.4346 -0.4424  0.2093
 1213TIP3    H125054   5.235   2.148   4.058  1.0463 -1.1725  0.6892
 1213TIP3    H225055   5.121   2.181   4.152  0.2121  0.8078 -0.9921
 1214TIP3   OH225056   4.356   6.112  13.733 -0.2461 -0.2598  0.2325
 1214TIP3    H125057   4.278   6.113  13.789 -0.9027  0.2921 -0.6668
 1214TIP3    H225058   4.380   6.204  13.724  1.0348 -0.4801  1.1918
 1215TIP3   OH225059   3.562   3.192   4.096  0.0560  0.0788 -0.2386
 1215TIP3    H125060   3.631   3.258   4.107 -0.3055  0.3740  0.2382
 1215TIP3    H225061   3.583   3.150   4.013  1.2624 -0.3663  0.2887
 1216TIP3   OH225062   4.591   5.688   0.392 -0.1643  0.4350  0.7508
 1216TIP3    H125063   4.568   5.777   0.419 -0.3986  0.9233 -0.9861
 1216TIP3    H225064   4.639   5.652   0.467 -2.6725  0.9424  2.6855
 1217TIP3   OH225065   2.068   2.905  12.146 -0.2574 -0.2066 -0.7412
 1217TIP3    H125066   2.010   2.853  12.091  1.3733 -2.2063 -0.6258
 1217TIP3    H225067   2.155   2.872  12.128  1.0533  3.5782 -1.8076
 1218TIP3   OH225068   4.138   5.289   4.889  0.0710  0.5411  0.4827
 1218TIP3    H125069   4.051   5.252   4.902 -0.4828  1.3877 -0.7306
 1218TIP3    H225070   4.188   5.218   4.846  0.0181  0.0302  1.2513
 1219TIP3   OH225071   3.881   5.080   1.317  0.0687  0.2805  0.5525
 1219TIP3    H125072   3.960   5.095   1.370 -0.0153 -0.5424  0.9196
 1219TIP3    H225073   3.821   5.150   1.344 -0.3796 -0.7572  2.3612
 1220TIP3   OH225074   5.988   0.451   2.348 -0.0875  0.2041  0.4902
 1220TIP3    H125075   5.995   0.536   2.390 -0.8732  0.1701  0.6935
 1220TIP3    H225076   5.977   0.470   2.255  4.1643  0.2500 -0.1156
 1221TIP3   OH225077   5.453   5.211   5.444 -0.2199 -0.4283  0.8894
 1221TIP3    H125078   5.496   5.294   5.426 -0.5235  0.0133  2.1499
 1221TIP3    H225079   5.491   5.181   5.527  1.7907 -2.8417 -0.8198
 1222TIP3   OH225080   5.484   5.609  13.927  0.4580 -0.6597  0.1422
 1222TIP3    H125081   5.513   5.584  14.015  0.6237 -1.0561 -0.0265
 1222TIP3    H225082   5.404   5.659  13.942  0.3974 -0.8618  0.5086
 1223TIP3   OH225083   3.943   3.023  12.893  0.1422  0.6075 -0.0899
 1223TIP3    H125084   3.912   3.112  12.914 -1.3529  0.2589 -0.7295
 1223TIP3    H225085   3.889   2.966  12.948  0.2748  0.0377 -0.5437
 1224TIP3   OH225086   2.671   5.995  11.363 -0.0807  0.2573 -0.3688
 1224TIP3    H125087   2.654   5.926  11.299 -0.3926  0.0741 -0.0887
 1224TIP3    H225088   2.602   5.984  11.429  0.7579 -0.1081  0.4552
 1225TIP3   OH225089   2.415   5.591   0.535  0.1121 -0.3872 -0.1911
 1225TIP3    H125090   2.409   5.663   0.597 -0.2180  0.4367 -1.1651
 1225TIP3    H225091   2.332   5.545   0.542 -0.9591  1.2196 -1.8247
 1226TIP3   OH225092   6.106   6.467   0.302  0.0574  0.6070 -0.2033
 1226TIP3    H125093   6.120   6.543   0.246  1.1655  1.0324  0.6367
 1226TIP3    H225094   6.023   6.484   0.347 -1.4975 -0.3311 -2.6500
 1227TIP3   OH225095   4.928   0.394  14.616  0.0511 -0.2914 -0.2422
 1227TIP3    H125096   4.959   0.333  14.683 -0.4796 -2.0155 -1.5508
 1227TIP3    H225097   5.007   0.421  14.569  0.5878  1.8303  1.7612
 1228TIP3   OH225098   2.187   3.287   0.043 -0.3866  0.2103  0.2457
 1228TIP3    H125099   2.276   3.294   0.078 -1.3839 -2.0662  3.5146
 1228TIP3    H225100   2.194   3.226  -0.030  0.6139 -0.7800  1.1496
 1229TIP3   OH225101   1.096   1.397  16.508 -0.4260 -0.1316 -0.0557
 1229TIP3    H125102   1.053   1.444  16.580  1.0143  0.9255  0.1231
 1229TIP3    H225103   1.175   1.447  16.491 -0.8783 -0.2393 -2.5594
 1230TIP3   OH225104   4.186   4.842   3.998 -0.4394 -0.1299  0.1384
 1230TIP3    H125105   4.237   4.798   3.930  0.7681  0.1962  0.8066
 1230TIP3    H225106   4.190   4.935   3.975 -1.4105 -0.1791 -0.2435
 1231TIP3   OH225107   1.011   0.038   2.118  0.1047  0.4677  0.3075
 1231TIP3    H125108   0.935  -0.015   2.093  0.5450  0.0561 -0.1713
 1231TIP3    H225109   1.062  -0.018   2.176  0.9771  0.0686 -0.8275
 1232TIP3   OH225110   3.161   2.800   5.501 -0.1203  0.2600  0.1840
 1232TIP3    H125111   3.167   2.882   5.452 -0.1794 -0.0752 -0.3828
 1232TIP3    H225112   3.093   2.816   5.566  0.6247  1.0342  0.7906
 1233TIP3   OH225113   0.836   2.775  11.844 -0.2147  0.3145  0.1666
 1233TIP3    H125114   0.901   2.827  11.891 -0.3423 -0.9205  1.7568
 1233TIP3    H225115   0.887   2.707  11.800 -0.3281 -0.1101  0.6804
 1234TIP3   OH225116   4.609   1.689  14.311 -0.2107  0.5333 -0.1016
 1234TIP3    H125117   4.597   1.757  14.244  1.4433  0.1927 -0.7675
 1234TIP3    H225118   4.684   1.638  14.280  0.4983  0.2883  1.9372
 1235TIP3   OH225119   0.569   5.745   2.257  0.1211  0.0563 -0.7013
 1235TIP3    H125120   0.646   5.772   2.206  0.5722  0.9031  0.3965
 1235TIP3    H225121   0.565   5.650   2.246  0.1980  0.2266 -2.3141
 1236TIP3   OH225122   5.234   4.355  11.680  0.0164 -0.0903  0.4096
 1236TIP3    H125123   5.319   4.348  11.723 -0.2537 -1.1553  0.7779
 1236TIP3    H225124   5.238   4.438  11.632  1.0940  0.0760  0.7796
 1237TIP3   OH225125   6.386   1.636  16.014  0.0128 -0.4771  0.9076
 1237TIP3    H125126   6.371   1.541  16.014 -1.9316 -0.2057 -0.7589
 1237TIP3    H225127   6.386   1.659  15.921  2.9433  0.8130  1.1719
 1238TIP3   OH225128   1.550   4.562   3.871 -0.0410  0.5078  0.6842
 1238TIP3    H125129   1.582   4.489   3.924 -0.9305 -0.4325 -0.0649
 1238TIP3    H225130   1.501   4.616   3.933 -2.6513 -1.5486  0.4887
 1239TIP3   OH225131   0.210   3.651  15.397  0.0025  0.6256 -0.5386
 1239TIP3    H125132   0.129   3.666  15.447  0.8240  0.3006  0.9139
 1239TIP3    H225133   0.202   3.708  15.321 -2.1367 -0.2655 -1.0180
 1240TIP3   OH225134   1.001   3.655  15.249  0.4831 -0.1390  0.1730
 1240TIP3    H125135   1.013   3.745  15.278  0.9419 -0.1386 -0.0214
 1240TIP3    H225136   0.959   3.612  15.324 -0.5876  0.4546 -0.0795
 1241TIP3   OH225137   1.525   5.728  15.628  0.0667 -0.1192 -0.8670
 1241TIP3    H125138   1.576   5.809  15.622 -1.3142  0.9920  1.5842
 1241TIP3    H225139   1.438   5.752  15.596 -1.5789  0.6097  3.7134
 1242TIP3   OH225140   0.885   2.351   2.436 -0.3425  0.0077 -0.0875
 1242TIP3    H125141   0.807   2.311   2.397  1.0229 -1.3974 -1.4744
 1242TIP3    H225142   0.896   2.304   2.520  0.1977 -1.2941 -0.8651
 1243TIP3   OH225143   2.066   1.289  10.928 -0.4286  0.2387 -0.4972
 1243TIP3    H125144   2.155   1.315  10.905 -0.8773  1.2278 -1.1580
 1243TIP3    H225145   2.055   1.202  10.888  0.2868  0.0451 -0.2730
 1244TIP3   OH225146   3.341   6.329  14.030 -0.4998 -0.5577 -0.4800
 1244TIP3    H125147   3.353   6.296  13.941  1.2776  0.9641 -0.8246
 1244TIP3    H225148   3.313   6.420  14.018  5.1414  1.4621  0.4928
 1245TIP3   OH225149   5.841   2.632   4.369  0.4569  0.1347  0.1422
 1245TIP3    H125150   5.810   2.631   4.279 -0.6450  1.2321  0.4892
 1245TIP3    H225151   5.840   2.540   4.396 -0.2046 -0.0896 -0.6293
 1246TIP3   OH225152   5.267   6.397  11.629 -0.0329  0.3073 -0.2368
 1246TIP3    H125153   5.261   6.478  11.578  0.2704 -0.1452 -0.9929
 1246TIP3    H225154   5.332   6.415  11.696 -0.5888  0.9778  0.1271
 1247TIP3   OH225155   4.112   3.446  16.354 -0.0142 -0.0741 -0.1427
 1247TIP3    H125156   4.177   3.404  16.297 -0.3916  0.6008 -1.0790
 1247TIP3    H225157   4.145   3.535  16.367 -0.2815 -0.0150  0.1312
 1248TIP3   OH225158   2.080   2.656  14.690 -0.2139  0.1816  0.0014
 1248TIP3    H125159   2.041   2.581  14.644 -0.0685 -0.9373  1.6500
 1248TIP3    H225160   2.089   2.626  14.781  0.4185  1.9935  0.5526
 1249TIP3   OH225161   3.756   6.730  14.505  0.3252 -0.4675 -0.3833
 1249TIP3    H125162   3.702   6.709  14.581 -0.0560 -1.2068 -0.8566
 1249TIP3    H225163   3.808   6.651  14.489  2.5334  0.7013  0.8886
 1250TIP3   OH225164   4.564   4.065  16.745 -0.2739  0.2696  0.0860
 1250TIP3    H125165   4.613   4.035  16.669 -1.3572 -0.4296 -0.3484
 1250TIP3    H225166   4.476   4.027  16.733 -1.2423  2.3626  0.2857
 1251TIP3   OH225167   5.354   2.730  15.518 -0.5282 -0.4018 -0.5866
 1251TIP3    H125168   5.300   2.692  15.449 -1.2626 -0.6115  0.1040
 1251TIP3    H225169   5.444   2.718  15.487 -0.8129 -1.4011 -1.0474
 1252TIP3   OH225170   2.481   1.811  13.331 -0.5252 -0.1671  0.3682
 1252TIP3    H125171   2.550   1.749  13.310 -0.0929  0.1225  0.9302
 1252TIP3    H225172   2.436   1.826  13.248  0.1649 -0.2646 -0.0252
 1253TIP3   OH225173   1.948   3.785  14.413 -0.5363  0.0609 -0.2179
 1253TIP3    H125174   1.968   3.810  14.323 -2.2514  0.2550 -0.5572
 1253TIP3    H225175   1.860   3.818  14.428 -0.5441 -0.6185  1.2891
 1254TIP3   OH225176   3.094   4.862  13.721  0.0259  0.1542  0.0995
 1254TIP3    H125177   3.186   4.883  13.739  0.6707 -1.3899 -1.2747
 1254TIP3    H225178   3.046   4.941  13.746  1.9079  1.6102 -0.7801
 1255TIP3   OH225179   2.485   6.360  16.617  0.0584  0.8741 -0.7376
 1255TIP3    H125180   2.396   6.372  16.585 -0.4940 -1.3951 -0.1517
 1255TIP3    H225181   2.480   6.379  16.710  0.1214  0.4346 -0.6447
 1256TIP3   OH225182   3.360   6.550  13.721 -0.1878  0.0540 -0.3514
 1256TIP3    H125183   3.351   6.579  13.812  0.0209 -3.2977  0.8111
 1256TIP3    H225184   3.274   6.515  13.699  0.0229  0.0459 -1.1603
 1257TIP3   OH225185   4.986   2.960   6.185  0.2787 -0.4982 -0.2621
 1257TIP3    H125186   5.038   2.914   6.251 -0.0847  1.3636  1.3540
 1257TIP3    H225187   4.957   3.040   6.228 -0.3495  0.5526 -2.5485
 1258TIP3   OH225188   4.349   2.504   1.599  0.6658 -0.1887 -0.2605
 1258TIP3    H125189   4.378   2.572   1.659 -3.1913 -0.5138  2.1200
 1258TIP3    H225190   4.340   2.548   1.515  1.3597  1.4253  0.5008
 1259TIP3   OH225191   4.734   3.030  14.215 -0.2631 -0.1355  0.3274
 1259TIP3    H125192   4.808   3.016  14.275 -1.4419  0.0179  1.8226
 1259TIP3    H225193   4.675   3.087  14.262 -0.1123  1.9780 -1.9282
 1260TIP3   OH225194   0.404   5.527  12.730 -0.2320  0.2125 -0.3998
 1260TIP3    H125195   0.309   5.530  12.746  0.1237 -0.6759  2.0303
 1260TIP3    H225196   0.413   5.471  12.653 -1.6284 -0.4335 -0.1223
 1261TIP3   OH225197   6.508   0.068  13.238 -0.2589 -0.6612 -0.4653
 1261TIP3    H125198   6.486   0.109  13.155 -0.7006  0.5896  0.2628
 1261TIP3    H225199   6.592   0.106  13.263  0.1858 -1.5069 -0.6410
 1262TIP3   OH225200   1.855   1.653   1.521  0.2983  0.8397  0.2536
 1262TIP3    H125201   1.803   1.578   1.548  2.7686 -0.7104  0.8441
 1262TIP3    H225202   1.843   1.659   1.427  0.2156 -0.4211  0.1857
 1263TIP3   OH225203   3.689   3.494  15.486 -0.1834  0.1873 -0.1619
 1263TIP3    H125204   3.771   3.469  15.528 -1.2249 -1.5108  0.9213
 1263TIP3    H225205   3.703   3.585  15.458  1.4465  0.5137  1.5734
 1264TIP3   OH225206   6.085   3.405   2.478 -0.0122 -0.3508 -0.4223
 1264TIP3    H125207   6.116   3.482   2.526 -1.9800  1.0674 -1.3470
 1264TIP3    H225208   6.036   3.354   2.542  0.2278 -0.1871 -0.1121
 1265TIP3   OH225209   2.237   3.698   0.180  0.1651  0.2612 -0.4997
 1265TIP3    H125210   2.167   3.676   0.119 -2.7594 -0.1360  2.8466
 1265TIP3    H225211   2.221   3.790   0.204  3.4267  1.5678 -2.9730
 1266TIP3   OH225212   2.491   3.662  14.820 -0.0711  0.1354  0.5003
 1266TIP3    H125213   2.556   3.627  14.759  0.0224  0.3295  0.4853
 1266TIP3    H225214   2.456   3.740  14.776  0.7010  0.8434  1.1092
 1267TIP3   OH225215   4.370   1.215   1.307 -0.0147  0.7565  0.2163
 1267TIP3    H125216   4.338   1.154   1.240 -0.7167 -0.5141  1.6717
 1267TIP3    H225217   4.292   1.267   1.331 -0.7612 -1.4169  2.7831
 1268TIP3   OH225218   6.603   0.439  17.010  0.1749 -0.3093 -0.9045
 1268TIP3    H125219   6.543   0.380  16.964  0.5333 -2.2576  1.0416
 1268TIP3    H225220   6.687   0.426  16.966 -0.2864  0.6700 -2.1111
 1269TIP3   OH225221   0.260   4.423  13.105  0.0079  0.3802 -0.7018
 1269TIP3    H125222   0.254   4.503  13.052 -1.5361  0.6220 -0.1918
 1269TIP3    H225223   0.193   4.365  13.069  1.8220 -1.1220 -1.7418
 1270TIP3   OH225224   6.513   2.876   3.963  0.2006 -0.0785  0.2726
 1270TIP3    H125225   6.515   2.781   3.979  0.3734 -0.0911  0.1837
 1270TIP3    H225226   6.555   2.914   4.039 -0.6010 -0.0175  0.6890
 1271TIP3   OH225227   0.055   3.196   5.425  0.1961  0.5520  0.4333
 1271TIP3    H125228  -0.017   3.169   5.481 -0.1465 -1.3615 -0.8808
 1271TIP3    H225229   0.028   3.171   5.336  2.1745  0.3622 -0.1597
 1272TIP3   OH225230   3.505   4.868   4.646  0.2248  0.7161 -0.4402
 1272TIP3    H125231   3.525   4.885   4.738 -1.2346  0.0901  0.0176
 1272TIP3    H225232   3.416   4.901   4.634 -0.5227 -1.3911 -0.9761
 1273TIP3   OH225233   4.608   3.527   5.068  0.2227  0.3228  0.9827
 1273TIP3    H125234   4.531   3.532   5.011 -0.1267 -1.3191  1.2844
 1273TIP3    H225235   4.679   3.499   5.010  0.2374  0.2940  1.0142
 1274TIP3   OH225236   1.746   1.712  15.824 -0.0983 -0.5277 -0.0839
 1274TIP3    H125237   1.670   1.672  15.867  1.1320 -0.6726  2.0286
 1274TIP3    H225238   1.740   1.805  15.843  0.0690 -0.4908 -0.1991
 1275TIP3   OH225239   6.570   0.682  13.289 -0.4400 -0.6895  0.1145
 1275TIP3    H125240   6.568   0.673  13.384 -3.2131 -1.3931  0.0387
 1275TIP3    H225241   6.564   0.593  13.256 -0.7799 -0.3724 -0.7059
 1276TIP3   OH225242   4.342   4.229   4.397  0.4337 -0.8778  0.6502
 1276TIP3    H125243   4.409   4.291   4.428  0.1162  0.2621 -0.8906
 1276TIP3    H225244   4.348   4.234   4.301 -1.1015 -1.5960  0.5150
 1277TIP3   OH225245   4.508   5.430  17.022  0.2204 -0.0739 -0.2050
 1277TIP3    H125246   4.577   5.366  17.041 -0.2808 -0.6670 -0.3608
 1277TIP3    H225247   4.435   5.403  17.079 -0.9597 -1.2755 -2.2294
 1278TIP3   OH225248   5.778   0.879   4.077  0.0111 -0.0728  0.0346
 1278TIP3    H125249   5.766   0.786   4.094  1.1164 -0.2896 -0.2895
 1278TIP3    H225250   5.704   0.904   4.023 -0.3769 -0.7279  0.2527
 1279TIP3   OH225251   1.669   4.253  14.563  0.2005  0.1393 -0.2034
 1279TIP3    H125252   1.758   4.283  14.541  0.4390 -1.5972 -1.6976
 1279TIP3    H225253   1.613   4.291  14.495 -0.2207  1.2673  0.7623
 1280TIP3   OH225254   5.814   3.657   1.733 -0.5729  0.0541 -0.2819
 1280TIP3    H125255   5.854   3.571   1.720  0.9414  0.5838  0.7766
 1280TIP3    H225256   5.725   3.637   1.764  0.1071 -1.1412  0.9756
 1281TIP3   OH225257   4.247   1.862  16.246 -0.0086  0.7406  0.1270
 1281TIP3    H125258   4.269   1.788  16.189 -1.0559  0.7246 -0.2629
 1281TIP3    H225259   4.221   1.932  16.186 -0.5845  0.9018  0.5642
 1282TIP3   OH225260   3.794   1.488  15.617  0.0973  0.0287 -0.5752
 1282TIP3    H125261   3.771   1.578  15.595  0.2600 -0.3700 -2.4851
 1282TIP3    H225262   3.711   1.440  15.613  0.1990 -0.1328 -0.7849
 1283TIP3   OH225263   0.948   5.243   2.184 -0.0656 -0.5034  0.5239
 1283TIP3    H125264   0.933   5.154   2.153 -1.2395 -0.4748  0.9636
 1283TIP3    H225265   0.924   5.241   2.277 -2.3403  0.7679  0.0175
 1284TIP3   OH225266   3.451   5.941   5.118 -0.6044 -0.0646 -0.0048
 1284TIP3    H125267   3.531   5.959   5.067 -0.2245  0.4140  0.7603
 1284TIP3    H225268   3.463   5.989   5.200 -2.3022  1.1573 -0.4371
 1285TIP3   OH225269   1.243   1.170  13.755 -0.0915 -0.3732 -0.0481
 1285TIP3    H125270   1.262   1.164  13.662 -0.9052  1.5108 -0.3485
 1285TIP3    H225271   1.329   1.169  13.797  0.3498  0.4436 -0.9264
 1286TIP3   OH225272   3.336   2.711  13.052 -0.3793  0.4001  0.1594
 1286TIP3    H125273   3.378   2.629  13.024 -0.2158  0.9662 -1.3022
 1286TIP3    H225274   3.409   2.767  13.080 -0.4266  0.3213  0.4430
 1287TIP3   OH225275   4.629   1.133   5.639  0.8117  0.5865 -0.1518
 1287TIP3    H125276   4.657   1.146   5.548  0.1836 -0.0387 -0.4390
 1287TIP3    H225277   4.614   1.222   5.672  0.5791  0.8022 -0.8144
 1288TIP3   OH225278   4.987   3.353   2.898 -0.0047 -0.7439  0.1674
 1288TIP3    H125279   5.050   3.367   2.827 -0.2983  1.0164  0.2283
 1288TIP3    H225280   4.928   3.428   2.893  0.5481 -0.0666  2.8596
 1289TIP3   OH225281   6.630   4.887  12.038  0.0814 -0.2521  0.6052
 1289TIP3    H125282   6.627   4.969  12.087 -1.0524  0.0168  0.1054
 1289TIP3    H225283   6.671   4.911  11.955 -0.6387 -0.0819  0.2878
 1290TIP3   OH225284   2.557   5.448  12.263 -0.2192  0.2692  0.3666
 1290TIP3    H125285   2.523   5.408  12.343 -0.8685 -1.7558 -0.8816
 1290TIP3    H225286   2.480   5.463  12.209  0.3609  0.2739 -0.4621
 1291TIP3   OH225287   3.136   6.386  12.550 -0.0838 -0.2521 -0.6829
 1291TIP3    H125288   3.169   6.382  12.640  0.0448 -0.3269 -0.7318
 1291TIP3    H225289   3.214   6.407  12.498 -0.3668  0.8483 -0.6602
 1292TIP3   OH225290   4.722   6.481   3.067 -0.4504  0.2213 -0.3661
 1292TIP3    H125291   4.740   6.476   3.161  0.8019 -1.9004 -0.6968
 1292TIP3    H225292   4.710   6.391   3.039  0.1324  0.7350 -2.4209
 1293TIP3   OH225293   0.727   5.543   3.200 -0.7499 -0.1540 -0.2322
 1293TIP3    H125294   0.797   5.478   3.201 -0.4755  0.1417  0.1299
 1293TIP3    H225295   0.717   5.566   3.108  0.7979  1.0288 -0.1301
 1294TIP3   OH225296   1.885   4.369   0.714 -0.2142  0.4591 -0.2678
 1294TIP3    H125297   1.818   4.424   0.753  0.4346  0.2875  1.1391
 1294TIP3    H225298   1.957   4.371   0.778  0.1667 -1.2668 -0.6246
 1295TIP3   OH225299   4.930   1.220   1.463 -0.7576  0.4782  1.1643
 1295TIP3    H125300   4.846   1.266   1.466 -1.2608 -0.2550 -0.7919
 1295TIP3    H225301   4.905   1.127   1.458  0.0769  0.3708 -1.9831
 1296TIP3   OH225302   3.180   3.036   2.298  0.5010  0.1202 -0.3451
 1296TIP3    H125303   3.115   3.106   2.292  0.5885  0.2993  0.8187
 1296TIP3    H225304   3.214   3.027   2.208 -1.0890  0.0505 -0.9450
 1297TIP3   OH225305   0.940   0.840   1.347 -0.0847 -0.0264  0.2803
 1297TIP3    H125306   0.926   0.919   1.399 -1.2341 -0.1042  0.1206
 1297TIP3    H225307   0.965   0.773   1.411  0.5523  0.3818  0.4592
 1298TIP3   OH225308   6.771   3.489  13.036  0.2795 -0.4968 -0.0950
 1298TIP3    H125309   6.826   3.558  12.998 -0.8592  0.4125 -0.1226
 1298TIP3    H225310   6.809   3.408  13.003  0.2616  0.2117 -1.9196
 1299TIP3   OH225311   5.850   2.222   3.476 -0.1751  0.1994  0.6098
 1299TIP3    H125312   5.885   2.302   3.438 -1.0410  0.6758  0.8152
 1299TIP3    H225313   5.886   2.152   3.422  0.1138  0.7577  0.0787
 1300TIP3   OH225314   6.756   4.319  17.223 -0.1000 -0.0841 -0.4859
 1300TIP3    H125315   6.683   4.264  17.195  0.5090 -0.8334 -0.6083
 1300TIP3    H225316   6.811   4.262  17.276  0.6454  0.3504 -0.7790
 1301TIP3   OH225317   3.690   5.590   5.280 -0.3933  0.3875  0.2756
 1301TIP3    H125318   3.681   5.511   5.333  1.7324  0.5112  0.8875
 1301TIP3    H225319   3.771   5.576   5.230 -0.4753  1.7930 -0.2640
 1302TIP3   OH225320   5.850   4.235   4.447 -0.2737  0.0056  0.8433
 1302TIP3    H125321   5.913   4.223   4.376 -1.7198 -2.7874 -0.0449
 1302TIP3    H225322   5.786   4.297   4.412 -0.6321 -0.8713 -0.0685
 1303TIP3   OH225323   4.849   0.548   4.200  0.2929 -0.5203  0.6555
 1303TIP3    H125324   4.872   0.472   4.253  2.6006 -0.9014 -0.8542
 1303TIP3    H225325   4.857   0.622   4.260  2.6566 -0.9752  0.9429
 1304TIP3   OH225326   0.804   5.200  16.165 -0.4778  0.0617  0.4489
 1304TIP3    H125327   0.816   5.111  16.197 -0.3084  0.8300  2.5780
 1304TIP3    H225328   0.752   5.244  16.232 -0.7742  1.5081 -0.6845
 1305TIP3   OH225329   4.389   6.237  16.286  0.1505  0.1004 -0.6074
 1305TIP3    H125330   4.310   6.278  16.252 -0.6870 -1.0930 -0.1509
 1305TIP3    H225331   4.461   6.287  16.248 -0.8168  0.9050 -1.3948
 1306TIP3   OH225332   3.290   0.097  13.900 -0.1008 -0.2123  0.0062
 1306TIP3    H125333   3.307   0.127  13.989 -0.0507 -1.5512  0.4585
 1306TIP3    H225334   3.370   0.050  13.875 -0.4810 -0.6563 -0.3903
 1307TIP3   OH225335   2.321   1.394  12.721 -0.0656  0.5000 -0.3502
 1307TIP3    H125336   2.303   1.305  12.750  0.4337  0.1632 -1.0611
 1307TIP3    H225337   2.283   1.398  12.633  1.6064  0.3869 -1.0837
 1308TIP3   OH225338   3.394   0.351   5.053 -0.6411  0.6415 -0.6834
 1308TIP3    H125339   3.418   0.411   4.982 -1.8393  0.4670 -1.2489
 1308TIP3    H225340   3.477   0.323   5.091 -0.0481  2.0077 -0.9634
 1309TIP3   OH225341   0.234   5.946  15.545  0.8982  0.3189  0.4345
 1309TIP3    H125342   0.287   5.999  15.604  1.1408 -1.9751  2.3449
 1309TIP3    H225343   0.168   5.906  15.601 -0.0101 -0.4899 -1.1684
 1310TIP3   OH225344   2.609   6.730   1.378 -0.5278 -0.0619 -0.2418
 1310TIP3    H125345   2.628   6.681   1.298  1.4285 -1.6512  1.1371
 1310TIP3    H225346   2.619   6.666   1.449  1.2818  2.0799  1.5523
 1311TIP3   OH225347   3.133   0.024   3.396 -0.1919 -0.3975  0.1652
 1311TIP3    H125348   3.126  -0.014   3.484  0.0583  0.3493  0.5207
 1311TIP3    H225349   3.153  -0.049   3.339  0.4369 -0.7793  0.8576
 1312TIP3   OH225350   0.670   5.182  12.425  0.0682  0.2779  0.0018
 1312TIP3    H125351   0.684   5.141  12.339  1.0141  1.4146 -0.3920
 1312TIP3    H225352   0.640   5.110  12.481  0.6599 -0.7276 -0.9541
 1313TIP3   OH225353   1.588   4.645  15.499 -0.1220  0.8387  0.1827
 1313TIP3    H125354   1.664   4.659  15.442  3.1849 -2.3728  3.5425
 1313TIP3    H225355   1.578   4.727  15.546  1.6491  1.1391  0.0910
 1314TIP3   OH225356   1.818   2.145  13.025 -0.1301 -0.2882  0.2669
 1314TIP3    H125357   1.887   2.155  13.090 -1.3444 -1.9107  1.8546
 1314TIP3    H225358   1.777   2.231  13.020  1.0308  0.2869  0.3973
 1315TIP3   OH225359   2.048   0.350  14.169 -0.0693 -0.0044  0.0044
 1315TIP3    H125360   2.043   0.401  14.088 -2.1726 -0.5997 -0.2667
 1315TIP3    H225361   2.058   0.416  14.238  0.1409  0.5953 -0.5896
 1316TIP3   OH225362   2.412   6.395  16.920 -0.2791 -0.5688  0.0601
 1316TIP3    H125363   2.359   6.466  16.884 -0.9936 -0.8280  0.5950
 1316TIP3    H225364   2.350   6.340  16.968  0.2984 -1.4420 -0.1694
 1317TIP3   OH225365   4.860   1.653   3.132  0.0403  0.0623  0.2948
 1317TIP3    H125366   4.861   1.636   3.038  0.8168  0.1188  0.2843
 1317TIP3    H225367   4.836   1.570   3.172  0.3772 -0.1410  0.0751
 1318TIP3   OH225368   0.057   5.497  11.243  0.6230  0.2363 -0.4821
 1318TIP3    H125369   0.098   5.489  11.330  0.3307 -0.2412 -0.3819
 1318TIP3    H225370  -0.017   5.556  11.257 -0.4653 -1.1902 -0.0117
 1319TIP3   OH225371   4.605   1.297   1.682 -0.4671  0.0546 -0.2259
 1319TIP3    H125372   4.615   1.357   1.756 -0.8618  0.6054 -0.6055
 1319TIP3    H225373   4.621   1.210   1.718  2.2153  0.5535 -0.1042
 1320TIP3   OH225374   0.134   2.916   0.984 -0.2596 -0.1124 -0.4516
 1320TIP3    H125375   0.229   2.927   0.991 -0.4845  1.3166  0.5981
 1320TIP3    H225376   0.105   2.992   0.933 -1.1145  0.7705  1.3229
 1321TIP3   OH225377   4.850   0.236  15.581  0.1843 -0.2380  0.1725
 1321TIP3    H125378   4.915   0.304  15.562 -0.0813 -0.4250 -1.4905
 1321TIP3    H225379   4.850   0.180  15.503 -2.0461 -0.1924  0.1161
 1322TIP3   OH225380   0.195   0.832   5.689 -0.2274  0.0862 -0.1287
 1322TIP3    H125381   0.182   0.766   5.758  2.0267  0.3695  0.6074
 1322TIP3    H225382   0.240   0.904   5.733 -1.1152  1.4039 -1.3247
 1323TIP3   OH225383   3.954   4.775  14.558  0.7758 -0.1056 -0.6911
 1323TIP3    H125384   3.865   4.758  14.589  0.5171  2.5648  0.1889
 1323TIP3    H225385   3.942   4.808  14.469  0.7770  0.9446 -0.3212
 1324TIP3   OH225386   6.084   4.778   0.821  0.1808 -0.0718 -0.5581
 1324TIP3    H125387   6.107   4.839   0.751 -2.2657  0.7967 -0.6656
 1324TIP3    H225388   6.051   4.834   0.892  0.1520 -1.1087  0.2596
 1325TIP3   OH225389   1.235   6.690   6.425 -0.0734 -0.0494 -0.4650
 1325TIP3    H125390   1.281   6.633   6.486 -0.5200  2.4741  2.3166
 1325TIP3    H225391   1.143   6.682   6.449 -0.5482 -0.8176 -2.3932
 1326TIP3   OH225392   0.404   3.901  13.678 -0.1984  0.5853  0.6906
 1326TIP3    H125393   0.394   3.870  13.768  1.5531 -0.0150  0.6973
 1326TIP3    H225394   0.317   3.933  13.654 -0.6048  1.0779  2.7130
 1327TIP3   OH225395   1.385   5.060  14.777  0.0606  0.2907 -0.4851
 1327TIP3    H125396   1.308   5.013  14.744 -1.9644  3.2395 -0.1406
 1327TIP3    H225397   1.373   5.061  14.872  0.2785  1.1327 -0.4621
 1328TIP3   OH225398   1.595   0.503   2.252 -0.8771 -0.0877 -0.4007
 1328TIP3    H125399   1.650   0.439   2.298 -0.0755  0.6174 -0.3736
 1328TIP3    H225400   1.533   0.449   2.203 -0.8754 -0.8679  0.4382
 1329TIP3   OH225401   0.175   0.319   1.229 -0.6616 -0.1539 -0.2094
 1329TIP3    H125402   0.177   0.367   1.146  1.4911 -0.9544 -0.6561
 1329TIP3    H225403   0.212   0.380   1.293  0.6622 -0.6529 -0.4821
 1330TIP3   OH225404   0.933   3.080  13.344  0.5082 -0.0357 -0.0857
 1330TIP3    H125405   0.898   3.102  13.257 -1.1383 -1.2310  0.2417
 1330TIP3    H225406   1.017   3.039  13.327  1.8756  3.0026 -0.9040
 1331TIP3   OH225407   4.092   1.408  13.995  0.5179  0.3212  0.1696
 1331TIP3    H125408   4.036   1.331  14.004  0.5375  0.3262  0.3344
 1331TIP3    H225409   4.092   1.427  13.901 -0.2668  0.6975  0.2400
 1332TIP3   OH225410   0.813   6.190   2.728 -0.2553  0.1221 -0.0458
 1332TIP3    H125411   0.770   6.175   2.644  0.4256 -1.7157 -0.0883
 1332TIP3    H225412   0.746   6.169   2.793 -0.4814  0.6133 -0.1167
 1333TIP3   OH225413   4.469   1.821  14.998 -0.0579 -0.0360 -0.2876
 1333TIP3    H125414   4.466   1.798  15.091 -0.5695 -0.0300 -0.3018
 1333TIP3    H225415   4.383   1.796  14.964 -0.3493  1.1915 -0.4765
 1334TIP3   OH225416   5.528   2.840   4.042  0.1079  0.3236 -0.1711
 1334TIP3    H125417   5.615   2.850   4.003  0.6966  0.9050  1.2364
 1334TIP3    H225418   5.470   2.889   3.984  0.6390 -0.4686 -1.3856
 1335TIP3   OH225419   4.916   2.947   2.921  0.5541  0.1638  0.0323
 1335TIP3    H125420   4.983   2.881   2.901  0.3208 -0.2893  0.7430
 1335TIP3    H225421   4.867   2.910   2.995 -0.0792  0.7791 -0.0783
 1336TIP3   OH225422   3.437   5.943   3.699 -0.3379  0.5131 -0.1790
 1336TIP3    H125423   3.522   5.947   3.655  0.3823 -3.8403  0.6168
 1336TIP3    H225424   3.408   5.852   3.687 -1.9745  0.2365  4.8237
 1337TIP3   OH225425   5.973   5.733   1.954  0.2202 -0.6651 -0.3296
 1337TIP3    H125426   6.068   5.721   1.948  0.2936  0.4030 -1.8183
 1337TIP3    H225427   5.959   5.776   2.038  1.2701  0.7902 -0.8623
 1338TIP3   OH225428   5.145   2.924  12.836  0.1766 -0.0324  0.2887
 1338TIP3    H125429   5.219   2.985  12.828 -0.5028  0.5798 -1.5210
 1338TIP3    H225430   5.068   2.980  12.834 -0.4270 -0.8830 -0.5252
 1339TIP3   OH225431   0.281   5.284   6.502 -0.2807  0.2805 -0.4252
 1339TIP3    H125432   0.327   5.295   6.418 -1.5082 -0.0895 -1.1620
 1339TIP3    H225433   0.259   5.373   6.529  2.3016  0.5853  0.7627
 1340TIP3   OH225434   4.751   6.691  15.446 -0.6847  0.6432  0.2200
 1340TIP3    H125435   4.668   6.644  15.433 -0.2186  0.1783 -1.2452
 1340TIP3    H225436   4.791   6.650  15.522 -0.6287 -0.8781 -0.6040
 1341TIP3   OH225437   6.235   4.088   4.547  0.4684 -0.3621  0.5564
 1341TIP3    H125438   6.199   4.095   4.636  0.9693 -2.4633  0.9656
 1341TIP3    H225439   6.329   4.089   4.559  0.5363 -0.2950  0.0236
 1342TIP3   OH225440   4.940   3.013  14.425 -0.0043  0.2953  0.2966
 1342TIP3    H125441   4.933   2.985  14.517 -0.0354  0.1416  0.2490
 1342TIP3    H225442   4.967   3.104  14.429 -0.7411  0.5072  0.4710
 1343TIP3   OH225443   2.850   1.328  15.417  0.1616 -0.2281 -0.0500
 1343TIP3    H125444   2.896   1.244  15.407  1.1015  0.1370  1.1169
 1343TIP3    H225445   2.812   1.345  15.330 -0.0339 -1.8514 -0.2906
 1344TIP3   OH225446   2.413   0.366   3.982 -0.7242 -0.6559  0.0757
 1344TIP3    H125447   2.405   0.461   3.994 -0.7567 -0.6248 -0.1906
 1344TIP3    H225448   2.333   0.331   4.021 -0.0997 -0.6729  1.3423
 1345TIP3   OH225449   5.697   0.517  12.203  0.0730 -0.4125  0.2599
 1345TIP3    H125450   5.744   0.557  12.277  0.2292  0.4565 -0.3063
 1345TIP3    H225451   5.615   0.486  12.241 -0.1567  0.6731  0.6564
 1346TIP3   OH225452   3.419   3.120  14.128  0.0102 -0.0285  0.4860
 1346TIP3    H125453   3.470   3.179  14.073  0.5490 -1.6609 -0.8135
 1346TIP3    H225454   3.447   3.032  14.102 -1.1872 -0.8883  1.9660
 1347TIP3   OH225455   5.710   4.894  11.654  0.1266 -0.1182 -0.2726
 1347TIP3    H125456   5.684   4.983  11.678  0.7284 -0.2010  0.6830
 1347TIP3    H225457   5.649   4.869  11.585  0.1420  1.1483 -0.7484
 1348TIP3   OH225458   3.596   0.930  11.329  0.1614  0.1781 -0.3412
 1348TIP3    H125459   3.585   0.971  11.243 -0.9340  1.0461  0.1975
 1348TIP3    H225460   3.507   0.920  11.362  0.4710 -1.8294 -0.0651
 1349TIP3   OH225461   5.413   4.734   1.787 -0.3178  0.3172 -0.2377
 1349TIP3    H125462   5.322   4.732   1.817  0.2153 -1.0317  1.3937
 1349TIP3    H225463   5.411   4.688   1.703 -1.0101 -0.5050  0.2170
 1350TIP3   OH225464   5.792   5.325  15.109  0.1162  0.0163  0.2594
 1350TIP3    H125465   5.820   5.249  15.160 -1.2500  0.0703  1.1448
 1350TIP3    H225466   5.697   5.315  15.102 -0.1910  2.0473  1.0711
 1351TIP3   OH225467   1.900   6.569   0.034  0.4931  0.1465  0.5741
 1351TIP3    H125468   1.838   6.525  -0.024  0.3253 -2.9696  2.9575
 1351TIP3    H225469   1.986   6.547  -0.002  0.3986 -1.9945  1.5909
 1352TIP3   OH225470   1.593   5.561  15.822 -0.2413  0.5619  0.7817
 1352TIP3    H125471   1.549   5.588  15.902 -2.0343  1.9598 -0.6329
 1352TIP3    H225472   1.565   5.625  15.756  1.7567 -0.1233 -0.8058
 1353TIP3   OH225473   4.075   0.249  11.777 -0.0535 -0.2107 -0.0579
 1353TIP3    H125474   4.131   0.306  11.830 -0.2330 -1.0348  1.0496
 1353TIP3    H225475   4.110   0.161  11.794 -1.7943 -0.7586  0.8040
 1354TIP3   OH225476   6.649   4.778  15.104  0.2460  0.5112  0.1252
 1354TIP3    H125477   6.666   4.788  15.197  0.6539  0.6564  0.0332
 1354TIP3    H225478   6.561   4.740  15.100  0.1644  0.6571  0.5632
 1355TIP3   OH225479   2.051   2.040   3.126 -0.0402 -0.4110 -0.1954
 1355TIP3    H125480   1.980   1.992   3.083 -0.6882 -0.1805  0.6070
 1355TIP3    H225481   2.007   2.114   3.168  0.3666 -1.4798  2.1894
 1356TIP3   OH225482   6.022   4.948   1.361  0.0563 -0.4114 -0.1436
 1356TIP3    H125483   5.934   4.986   1.361  0.0832 -0.3302  0.7651
 1356TIP3    H225484   6.079   5.020   1.334  0.3108  0.7550  3.2475
 1357TIP3   OH225485   1.929   6.568  12.942 -0.0043  0.1353 -0.0364
 1357TIP3    H125486   1.837   6.592  12.934  0.0602  0.3688 -0.0815
 1357TIP3    H225487   1.974   6.651  12.958  0.4828  0.3627 -2.3888
 1358TIP3   OH225488   4.014   4.359  16.653 -0.1513 -0.0445 -0.0592
 1358TIP3    H125489   4.001   4.426  16.587 -0.1941  1.5739  1.5587
 1358TIP3    H225490   3.930   4.354  16.700  0.1216 -0.6181  0.3851
 1359TIP3   OH225491   6.580   6.461   4.387  0.2731 -0.1084  0.3516
 1359TIP3    H125492   6.496   6.483   4.346  0.2071  1.3852  1.2568
 1359TIP3    H225493   6.558   6.394   4.452  0.1194 -1.2375 -0.8387
 1360TIP3   OH225494   2.923   2.213  13.468 -0.3545  0.1673 -0.2686
 1360TIP3    H125495   2.940   2.154  13.395  1.2337  0.6378 -0.2852
 1360TIP3    H225496   2.867   2.163  13.527 -0.9830 -0.5026 -1.4109
 1361TIP3   OH225497   0.498   0.817   3.684  0.1648 -0.0002 -0.2674
 1361TIP3    H125498   0.449   0.859   3.755 -0.2551 -0.4968 -0.2584
 1361TIP3    H225499   0.524   0.890   3.627 -0.4049  0.2932 -0.1620
 1362TIP3   OH225500   0.842   4.704   5.290 -0.0063 -0.2696 -0.2882
 1362TIP3    H125501   0.936   4.699   5.272  0.2134 -1.2878  1.0941
 1362TIP3    H225502   0.803   4.640   5.230  0.2862 -0.5199 -0.2149
 1363TIP3   OH225503   0.420   6.136   3.697  0.5446  0.5941 -0.1877
 1363TIP3    H125504   0.423   6.195   3.772  2.9089 -0.0812  0.2904
 1363TIP3    H225505   0.502   6.153   3.650  0.2027 -0.6994 -1.2914
 1364TIP3   OH225506   5.849   6.389  12.124  0.5494  0.0540 -0.7395
 1364TIP3    H125507   5.930   6.405  12.173 -0.6743 -2.6566  2.3685
 1364TIP3    H225508   5.878   6.346  12.044  2.3518  1.5213 -0.9167
 1365TIP3   OH225509   1.180   6.614  16.553 -0.2382  0.3530 -0.3698
 1365TIP3    H125510   1.120   6.560  16.502 -1.1998  1.4716 -0.4413
 1365TIP3    H225511   1.267   6.592  16.520 -0.7418 -0.0330 -1.4490
 1366TIP3   OH225512   6.704   3.144   1.222  0.3957  0.2209 -0.2581
 1366TIP3    H125513   6.651   3.077   1.179  1.6465 -1.0563  0.1403
 1366TIP3    H225514   6.763   3.176   1.153  1.6174 -1.0070  0.2010
 1367TIP3   OH225515   5.041   3.641  11.691 -0.5369  0.5889  0.1525
 1367TIP3    H125516   5.091   3.571  11.733 -2.1016 -0.6429  0.0241
 1367TIP3    H225517   5.039   3.711  11.756 -0.3499 -0.1313  0.9528
 1368TIP3   OH225518   1.564   6.494   6.197  0.1290  0.0924 -0.1804
 1368TIP3    H125519   1.637   6.433   6.184  1.3098  1.2150  0.9808
 1368TIP3    H225520   1.514   6.456   6.269  1.0090  0.6043  0.7185
 1369TIP3   OH225521   1.117   1.338  12.020 -0.4624  0.2140 -0.0037
 1369TIP3    H125522   1.208   1.351  11.995 -0.3905 -0.6466 -0.1976
 1369TIP3    H225523   1.102   1.402  12.090  0.4008  0.0810  0.3006
 1370TIP3   OH225524   6.515   5.786   1.505  0.0531 -0.5808  0.6988
 1370TIP3    H125525   6.546   5.699   1.480  0.2560 -0.5227  0.7527
 1370TIP3    H225526   6.577   5.816   1.571  0.2318 -0.2169  0.3673
 1371TIP3   OH225527   3.644   1.169   0.722  0.2649  0.3171 -0.0487
 1371TIP3    H125528   3.690   1.089   0.700 -0.0842 -0.5600  2.2206
 1371TIP3    H225529   3.636   1.216   0.639  3.5182 -0.3686 -0.8166
 1372TIP3   OH225530   5.136   5.801   2.097 -0.0761  0.1521 -0.4877
 1372TIP3    H125531   5.078   5.844   2.035  0.6612 -0.3449 -1.5513
 1372TIP3    H225532   5.212   5.859   2.103 -0.3430  0.4227  0.3060
 1373TIP3   OH225533   1.256   4.563  13.319  0.3688  0.0581 -0.1912
 1373TIP3    H125534   1.351   4.553  13.309  0.6022  1.1993  0.7630
 1373TIP3    H225535   1.233   4.636  13.262  0.5358  1.6802  1.7601
 1374TIP3   OH225536   0.043   3.579  14.032 -0.4821  0.2505  0.4223
 1374TIP3    H125537   0.062   3.492  13.997 -0.6909  0.9615 -1.5049
 1374TIP3    H225538   0.066   3.639  13.962 -4.0151  1.5217  0.2497
 1375TIP3   OH225539   0.397   6.508   3.111 -0.2368 -0.0242 -0.6700
 1375TIP3    H125540   0.334   6.436   3.122 -2.4469  1.9360 -0.0932
 1375TIP3    H225541   0.371   6.573   3.176  1.1993  1.6503 -1.7218
 1376TIP3   OH225542   1.526   4.318  12.796 -0.0607  0.2266  0.2911
 1376TIP3    H125543   1.520   4.228  12.767  1.7823 -0.4164  1.8039
 1376TIP3    H225544   1.564   4.313  12.884  0.7651  2.4960  0.1123
 1377TIP3   OH225545   3.835   6.597   1.771 -0.0216 -0.1038  0.5123
 1377TIP3    H125546   3.802   6.617   1.859 -0.9667 -1.4698  0.4852
 1377TIP3    H225547   3.776   6.645   1.713  0.5360  0.7112  0.6088
 1378TIP3   OH225548   5.944   3.235   0.835  0.0564  0.4173  0.0101
 1378TIP3    H125549   5.920   3.164   0.776 -1.5239  0.9966 -0.0624
 1378TIP3    H225550   6.023   3.272   0.797  0.4282 -0.7756 -0.3938
 1379TIP3   OH225551   5.092   3.991  14.807  0.7177  0.0177 -0.4426
 1379TIP3    H125552   5.135   3.908  14.827 -0.0342 -0.4883 -0.9013
 1379TIP3    H225553   5.117   4.008  14.716  0.2702 -0.0739 -0.5813
 1380TIP3   OH225554   4.826   1.837   1.130 -0.2613 -0.1054  0.1790
 1380TIP3    H125555   4.884   1.912   1.135 -0.5450  0.1355 -0.1055
 1380TIP3    H225556   4.884   1.761   1.128  0.1864  0.2659 -3.5829
 1381TIP3   OH225557   4.580   3.816  15.473  0.1001  0.1448  0.1396
 1381TIP3    H125558   4.649   3.821  15.540  0.4784 -2.1871 -0.0600
 1381TIP3    H225559   4.567   3.723  15.458 -2.0911  0.5831 -0.9080
 1382TIP3   OH225560   0.823   4.715  15.139  0.4773  0.1205  0.0523
 1382TIP3    H125561   0.799   4.631  15.179  0.3391 -0.0384 -0.3660
 1382TIP3    H225562   0.918   4.708  15.124  0.2289 -0.5128 -1.2825
 1383TIP3   OH225563   2.039   4.175  13.050 -0.1978 -0.3973  0.4430
 1383TIP3    H125564   2.111   4.123  13.014  0.1977  2.0300 -2.5478
 1383TIP3    H225565   1.960   4.127  13.026  0.2899 -1.4001  0.8361
 1384TIP3   OH225566   2.430   2.487   1.305  0.2431 -0.0882  0.3144
 1384TIP3    H125567   2.371   2.545   1.257  0.2633  0.1643  0.5910
 1384TIP3    H225568   2.436   2.408   1.251  0.1925  0.1557 -0.0512
 1385TIP3   OH225569   3.646   1.159   3.419  0.6535  0.2806  0.5209
 1385TIP3    H125570   3.559   1.133   3.388 -0.6712  2.3652  2.3533
 1385TIP3    H225571   3.664   1.242   3.374 -0.0435  1.8585  3.0594
 1386TIP3   OH225572   3.353   2.995  16.030 -0.3729  0.4013 -0.2144
 1386TIP3    H125573   3.345   3.088  16.012  3.3950  1.2251  1.9996
 1386TIP3    H225574   3.290   2.978  16.099  0.8828  1.9389  1.3379
 1387TIP3   OH225575   5.260   4.142   0.205 -0.1048 -0.4561 -0.0411
 1387TIP3    H125576   5.347   4.178   0.186  0.5273 -2.3057 -0.8273
 1387TIP3    H225577   5.227   4.112   0.120 -0.5720 -1.7208  0.5631
 1388TIP3   OH225578   1.659   4.885  15.884 -0.0943 -0.6810  0.1712
 1388TIP3    H125579   1.719   4.930  15.943  0.5973 -1.6353  0.1854
 1388TIP3    H225580   1.666   4.934  15.802 -2.4785  1.8552  1.3770
 1389TIP3   OH225581   4.058   6.665   6.353 -0.3017 -0.2700 -0.7519
 1389TIP3    H125582   4.060   6.759   6.368  1.1114 -0.4445  0.2256
 1389TIP3    H225583   4.059   6.627   6.441  1.6939 -1.2192 -1.1611
 1390TIP3   OH225584   5.168   3.530   2.435 -0.3306 -0.3966  0.1744
 1390TIP3    H125585   5.245   3.476   2.416 -0.6614 -0.9451  0.3551
 1390TIP3    H225586   5.116   3.527   2.355  0.7193  1.5257 -0.6197
 1391TIP3   OH225587   5.657   5.931   6.340 -0.1901  0.0914  0.3499
 1391TIP3    H125588   5.636   5.922   6.433  1.0779  3.8098  1.0685
 1391TIP3    H225589   5.578   5.969   6.301  0.2508  1.0868  0.4252
 1392TIP3   OH225590   3.391   2.357  11.695  0.6191 -0.2801  0.4627
 1392TIP3    H125591   3.361   2.417  11.764  0.6994  2.7905 -2.0607
 1392TIP3    H225592   3.310   2.319  11.660  0.5244 -1.1644  1.6034
 1393TIP3   OH225593   1.200   0.473   6.204 -0.1379 -0.2925 -0.3488
 1393TIP3    H125594   1.216   0.543   6.266  0.2284 -1.1599  0.5590
 1393TIP3    H225595   1.285   0.455   6.165 -0.4228  0.4478 -1.3195
 1394TIP3   OH225596   5.041   2.798  10.719  0.4603 -0.4028 -0.1241
 1394TIP3    H125597   5.090   2.809  10.638 -0.5240 -3.2956 -1.1871
 1394TIP3    H225598   5.026   2.703  10.725 -2.0463  0.0609  1.8737
 1395TIP3   OH225599   0.548   6.730   3.737 -0.7782 -0.3605 -0.2652
 1395TIP3    H125600   0.495   6.778   3.800  1.1830  1.0758  0.3380
 1395TIP3    H225601   0.562   6.644   3.778 -0.6411  0.0909  0.6561
 1396TIP3   OH225602   4.744   3.517   2.333  0.3896  0.0901  0.1171
 1396TIP3    H125603   4.782   3.569   2.404  1.1589 -0.1258 -0.1324
 1396TIP3    H225604   4.736   3.429   2.369  0.0933  0.1411  0.1786
 1397TIP3   OH225605   3.105   1.903   4.973  0.3375 -0.3570 -0.2628
 1397TIP3    H125606   3.131   1.985   5.016  0.3790 -0.7237  0.4244
 1397TIP3    H225607   3.088   1.843   5.045 -1.4662 -0.4276 -0.7224
 1398TIP3   OH225608   1.451   2.427   4.051  0.0621  0.1796 -0.1163
 1398TIP3    H125609   1.481   2.367   3.982 -0.1025 -1.0283  0.8447
 1398TIP3    H225610   1.530   2.448   4.101 -0.3150 -1.4556  1.2261
 1399TIP3   OH225611   5.482   5.968  17.049  0.1754 -0.3927 -0.2471
 1399TIP3    H125612   5.550   5.905  17.025  0.2269 -1.6328  2.9147
 1399TIP3    H225613   5.458   6.010  16.967  0.7873 -3.8994 -2.2909
 1400TIP3   OH225614   4.481   1.966   4.174  0.4360 -0.2868 -0.5363
 1400TIP3    H125615   4.530   1.965   4.256  1.1573  1.6982 -0.9266
 1400TIP3    H225616   4.406   1.909   4.190  1.2395 -0.9047  1.0841
 1401TIP3   OH225617   3.328   1.808  16.358 -0.0032  0.0171  0.0593
 1401TIP3    H125618   3.331   1.902  16.340  1.7669  0.5571  2.8118
 1401TIP3    H225619   3.263   1.800  16.428 -0.9369 -0.9770 -0.9040
 1402TIP3   OH225620   0.873   0.629   2.862 -0.5650 -0.0468  0.6362
 1402TIP3    H125621   0.801   0.575   2.831  0.5646 -1.0118 -0.3343
 1402TIP3    H225622   0.920   0.573   2.924  1.0466 -0.4870 -0.9334
 1403TIP3   OH225623   1.072   2.657   2.163  0.6002  0.3163  0.1073
 1403TIP3    H125624   1.166   2.675   2.155  0.6991 -0.3927 -0.3842
 1403TIP3    H225625   1.047   2.621   2.078  0.5291 -2.3438  1.2018
 1404TIP3   OH225626   0.375   3.295   2.985  0.2947 -0.1420 -0.6083
 1404TIP3    H125627   0.342   3.226   3.042 -0.2873 -0.1255 -0.9166
 1404TIP3    H225628   0.469   3.279   2.978  0.2818 -0.4382 -0.0495
 1405TIP3   OH225629   1.606   1.761   4.523  0.0566 -0.1437 -0.3326
 1405TIP3    H125630   1.698   1.783   4.535 -0.5215  1.5144  1.1391
 1405TIP3    H225631   1.594   1.761   4.428  1.1460  1.3880 -0.4778
 1406TIP3   OH225632   4.202   3.493  12.986 -0.5733  0.1082 -0.2846
 1406TIP3    H125633   4.262   3.545  12.932 -0.8338 -0.0091 -0.6856
 1406TIP3    H225634   4.251   3.413  13.007 -0.5698  0.0394 -0.5601
 1407TIP3   OH225635   4.431   6.753  14.123 -0.3459 -0.5546  0.0534
 1407TIP3    H125636   4.443   6.807  14.045 -0.6109  0.6521  0.8340
 1407TIP3    H225637   4.419   6.816  14.194 -0.9158 -1.6445  0.9395
 1408TIP3   OH225638   6.521   4.133   4.559 -0.3979 -0.5646 -0.0213
 1408TIP3    H125639   6.512   4.142   4.654 -0.9969  2.0205 -0.2695
 1408TIP3    H225640   6.587   4.065   4.547  0.1332 -0.4872  2.2698
 1409TIP3   OH225641   0.038   0.770   4.160 -0.4418 -0.0227  0.3299
 1409TIP3    H125642  -0.037   0.713   4.176 -0.8991  0.2243 -0.8512
 1409TIP3    H225643   0.077   0.735   4.079  0.0153  0.5644  0.2941
 1410TIP3   OH225644   2.305   4.076  13.120 -0.6359  0.4323 -0.7502
 1410TIP3    H125645   2.294   4.122  13.202 -0.3729  1.0711 -1.0726
 1410TIP3    H225646   2.337   3.989  13.145 -3.9380 -0.6265  0.0493
 1411TIP3   OH225647   0.348   1.457   0.068 -0.0397 -0.5533  0.3067
 1411TIP3    H125648   0.257   1.479   0.090  0.5589  1.5027  0.8218
 1411TIP3    H225649   0.398   1.485   0.145  1.1987 -0.3182 -0.5867
 1412TIP3   OH225650   3.157   5.969   4.747  0.4367 -0.1024 -0.3171
 1412TIP3    H125651   3.191   6.013   4.825  0.5159  0.8144 -0.8592
 1412TIP3    H225652   3.062   5.972   4.757  0.4441  0.1223 -0.3159
 1413TIP3   OH225653   3.586   0.574   0.103 -0.5973  0.4326  0.2753
 1413TIP3    H125654   3.542   0.577   0.019  0.0943 -1.7659 -0.1921
 1413TIP3    H225655   3.523   0.532   0.162 -0.3443  0.2120  0.3902
 1414TIP3   OH225656   3.277   2.990   1.125 -0.2889  0.0567 -0.3456
 1414TIP3    H125657   3.210   2.922   1.134  0.5266 -0.9634 -1.8843
 1414TIP3    H225658   3.310   2.981   1.036  0.2780  2.0695 -0.3582
 1415TIP3   OH225659   4.824   5.788   2.436 -0.2601  0.3589 -0.3018
 1415TIP3    H125660   4.879   5.710   2.428 -1.9091 -0.7912 -0.6262
 1415TIP3    H225661   4.776   5.792   2.353 -1.2876  0.8819  0.3207
 1416TIP3   OH225662   6.630   2.574   4.759  0.1990  0.1183 -0.2278
 1416TIP3    H125663   6.630   2.487   4.719  1.4457  0.5071 -1.1174
 1416TIP3    H225664   6.712   2.613   4.730 -0.2228  1.4901  0.4001
 1417TIP3   OH225665   0.053   3.571   4.826  0.1907  0.6863 -0.1869
 1417TIP3    H125666  -0.029   3.598   4.785  0.0445  0.9921  0.2931
 1417TIP3    H225667   0.031   3.561   4.919 -0.3477 -3.4906 -0.6895
 1418TIP3   OH225668   3.920   2.401   3.740 -0.2210  0.2601  0.8221
 1418TIP3    H125669   3.971   2.407   3.821 -0.4003  1.4374  0.8567
 1418TIP3    H225670   3.969   2.453   3.677  0.9884 -2.2626 -0.4220
 1419TIP3   OH225671   0.847   5.492  12.543  0.0914 -0.7809  0.2915
 1419TIP3    H125672   0.856   5.416  12.486  0.4068 -1.4938  1.2800
 1419TIP3    H225673   0.935   5.530  12.546 -0.4147  0.6013 -1.5233
 1420TIP3   OH225674   1.966   5.251   0.824 -0.3330  0.3272 -0.1421
 1420TIP3    H125675   1.930   5.290   0.744  0.8051 -0.3140 -0.9692
 1420TIP3    H225676   1.937   5.160   0.822  0.9816 -0.0832 -0.6016
 1421TIP3   OH225677   1.630   6.427   3.277  0.0078 -0.1098 -0.1141
 1421TIP3    H125678   1.718   6.443   3.310  0.3870  0.5878 -1.4473
 1421TIP3    H225679   1.628   6.334   3.254  0.7787  0.1345 -1.2010
 1422TIP3   OH225680   4.589   4.225  14.860 -0.3380 -0.4619 -0.0615
 1422TIP3    H125681   4.634   4.181  14.933  0.9180 -2.6965 -2.0963
 1422TIP3    H225682   4.611   4.172  14.783 -3.1282  0.7672 -1.7977
 1423TIP3   OH225683   1.500   4.546  13.826 -0.3213 -0.4412  0.1011
 1423TIP3    H125684   1.495   4.626  13.879 -1.6244  0.5009 -1.3808
 1423TIP3    H225685   1.409   4.517  13.819  0.3881 -3.6813  2.9580
 1424TIP3   OH225686   2.064   5.801  14.080  0.7910  0.0884 -0.0610
 1424TIP3    H125687   2.044   5.710  14.057 -1.0605  0.8049 -1.4426
 1424TIP3    H225688   2.071   5.801  14.175 -0.0290 -1.3555  0.0204
 1425TIP3   OH225689   2.816   6.693   2.481 -0.4008  0.4878  0.4833
 1425TIP3    H125690   2.888   6.687   2.543 -0.1521 -2.6863 -0.0105
 1425TIP3    H225691   2.851   6.654   2.400 -0.9660  3.8001 -1.4277
 1426TIP3   OH225692   3.085   3.646   2.597 -0.1065  0.9357 -0.4088
 1426TIP3    H125693   3.001   3.683   2.626 -0.1767  0.6493 -0.2417
 1426TIP3    H225694   3.073   3.551   2.607  0.4952  0.9336  0.3194
 1427TIP3   OH225695   2.976   1.118   4.529  0.5545 -0.2390 -0.0959
 1427TIP3    H125696   2.943   1.066   4.603  1.0190  0.0394  0.3122
 1427TIP3    H225697   2.979   1.207   4.563  1.2613 -0.1909 -0.2846
 1428TIP3   OH225698   2.804   2.589   0.392  0.5264 -0.0184 -0.3946
 1428TIP3    H125699   2.861   2.512   0.387  1.1322  0.4193 -0.2600
 1428TIP3    H225700   2.725   2.564   0.344  0.2837 -1.1075  0.5654
 1429TIP3   OH225701   1.672   3.007  14.619  0.7998 -0.0860 -0.5354
 1429TIP3    H125702   1.695   2.942  14.685 -0.4107 -0.9271 -0.9225
 1429TIP3    H225703   1.725   2.984  14.543  1.7612  0.5292 -0.0584
 1430TIP3   OH225704   0.680   5.129  13.884  0.3520  0.3985  0.4476
 1430TIP3    H125705   0.652   5.202  13.939  0.1128  0.2953  0.4614
 1430TIP3    H225706   0.689   5.056  13.945 -0.1418  0.2246  0.3121
 1431TIP3   OH225707   0.949   1.218  17.186  0.5091 -0.5758  0.5226
 1431TIP3    H125708   1.016   1.238  17.121 -1.2616 -1.5299 -1.6513
 1431TIP3    H225709   0.995   1.224  17.270  2.7381  1.0774 -0.7642
 1432TIP3   OH225710   5.672   2.864  16.998  0.3974  0.3564 -0.9993
 1432TIP3    H125711   5.669   2.773  16.969 -0.4717 -0.7516  2.3628
 1432TIP3    H225712   5.763   2.891  16.985  1.7193 -2.3977  1.8976
 1433TIP3   OH225713   3.341   2.259  12.853  0.2919  0.2582  0.5689
 1433TIP3    H125714   3.334   2.217  12.938 -1.0823 -1.7308 -0.4707
 1433TIP3    H225715   3.363   2.188  12.793  0.8280  1.5560 -0.8055
 1434TIP3   OH225716   5.509   6.091  12.284  0.0577 -0.2852 -0.0569
 1434TIP3    H125717   5.420   6.071  12.257 -0.1511  2.0892 -1.2270
 1434TIP3    H225718   5.564   6.046  12.220 -0.3496  0.6489 -1.0676
 1435TIP3   OH225719   4.215   0.096   5.379  0.3240  0.2165  0.4811
 1435TIP3    H125720   4.208   0.139   5.294  0.8292  0.1666  0.4139
 1435TIP3    H225721   4.182   0.008   5.365 -2.7842  1.2342  1.1263
 1436TIP3   OH225722   0.169   0.853  15.740 -0.2257 -0.1484 -0.0144
 1436TIP3    H125723   0.255   0.873  15.777 -0.6465  1.4300  0.1334
 1436TIP3    H225724   0.141   0.774  15.786  0.2897  0.4625  1.3734
 1437TIP3   OH225725   5.211   4.587   1.192  0.6889 -0.2288 -0.0241
 1437TIP3    H125726   5.295   4.551   1.162  1.0740  1.4061 -0.9583
 1437TIP3    H225727   5.219   4.681   1.179 -0.8834  0.0585  0.9551
 1438TIP3   OH225728   6.608   0.977  16.499  0.0647  0.3614 -0.2114
 1438TIP3    H125729   6.524   1.017  16.476  0.8418  1.0848 -1.8818
 1438TIP3    H225730   6.637   0.935  16.418  0.9924 -0.4736  0.5442
 1439TIP3   OH225731   1.149   0.531  12.333 -0.3570 -0.0265  0.3434
 1439TIP3    H125732   1.173   0.440  12.321 -1.3631 -0.2416 -0.1074
 1439TIP3    H225733   1.136   0.540  12.427 -0.4367 -0.3956  0.3685
 1440TIP3   OH225734   5.860   3.860  11.713  0.3983  0.3622 -0.2759
 1440TIP3    H125735   5.865   3.838  11.620 -0.2215  0.8291 -0.4194
 1440TIP3    H225736   5.774   3.900  11.724 -0.0219 -0.7628  0.7351
 1441TIP3   OH225737   4.222   6.019   1.158 -0.0489 -0.1838  0.2821
 1441TIP3    H125738   4.288   5.950   1.165  0.0563 -0.1269 -0.1244
 1441TIP3    H225739   4.270   6.094   1.122 -1.0417 -1.1596 -3.3072
 1442TIP3   OH225740   5.059   3.543   4.759 -0.1831 -0.1163  0.5962
 1442TIP3    H125741   5.083   3.632   4.782  0.7372 -0.7751  2.2221
 1442TIP3    H225742   5.039   3.501   4.842 -2.5072 -0.8905 -0.3179
 1443TIP3   OH225743   0.464   6.425  10.470 -0.2416 -0.8301  0.3847
 1443TIP3    H125744   0.412   6.392  10.396 -0.6910 -0.6600  0.6196
 1443TIP3    H225745   0.398   6.454  10.533  0.1022 -2.3611  1.4849
 1444TIP3   OH225746   3.773   0.685   6.629  0.7518 -0.4308 -0.2614
 1444TIP3    H125747   3.730   0.770   6.630  0.6457 -0.4798 -0.5416
 1444TIP3    H225748   3.863   0.704   6.601  0.5221 -0.4995 -1.0662
 1445TIP3   OH225749   5.696   5.371  15.728  0.5147 -0.2784  0.1671
 1445TIP3    H125750   5.712   5.465  15.738  0.7831 -0.4530  1.4926
 1445TIP3    H225751   5.601   5.362  15.728  0.4564  0.1536 -1.6547
 1446TIP3   OH225752   5.523   0.902  12.603 -0.3775  0.3366  0.7699
 1446TIP3    H125753   5.473   0.957  12.542 -0.6040  1.2137  1.7312
 1446TIP3    H225754   5.527   0.817  12.560 -0.7549  0.8739 -0.3574
 1447TIP3   OH225755   5.638   6.350  14.757 -0.0713  0.5635 -0.1273
 1447TIP3    H125756   5.638   6.301  14.675 -0.5537  0.5110 -0.0970
 1447TIP3    H225757   5.680   6.433  14.736 -0.4626  0.6687 -0.4995
 1448TIP3   OH225758   3.311   1.727   1.348 -0.2285 -0.1950  0.3638
 1448TIP3    H125759   3.397   1.761   1.372 -0.2644  0.2429 -0.1330
 1448TIP3    H225760   3.294   1.762   1.261 -0.5082 -1.0279  0.0746
 1449TIP3   OH225761   2.486   6.091  13.935 -0.3164 -0.6128 -0.0566
 1449TIP3    H125762   2.427   6.154  13.892 -0.2428  0.1056  0.8865
 1449TIP3    H225763   2.562   6.142  13.960 -0.0568 -1.1725  0.3103
 1450TIP3   OH225764   3.580   6.765   5.215 -0.4724  0.0650 -0.2488
 1450TIP3    H125765   3.596   6.775   5.308 -0.9057 -1.9535  0.0608
 1450TIP3    H225766   3.501   6.818   5.198 -0.9674 -0.3551  0.7269
 1451TIP3   OH225767   5.337   1.758   3.577 -0.2314 -0.2852 -0.6409
 1451TIP3    H125768   5.367   1.725   3.492  2.6612 -0.7731  0.5046
 1451TIP3    H225769   5.320   1.851   3.562  1.2124 -0.1460 -1.5419
 1452TIP3   OH225770   4.043   1.723   2.795 -0.2216  0.0037  0.0182
 1452TIP3    H125771   4.131   1.729   2.756 -1.3447 -2.8108 -3.1830
 1452TIP3    H225772   3.988   1.775   2.738 -1.2694 -1.1171  0.0020
 1453TIP3   OH225773   0.980   4.258   4.478  0.5204  0.0510  0.2267
 1453TIP3    H125774   1.023   4.284   4.397 -0.2785 -1.4865 -0.7071
 1453TIP3    H225775   1.020   4.314   4.545  0.9886  1.5223 -1.2460
 1454TIP3   OH225776   2.446   1.742  12.182  0.1081  0.1330  0.3589
 1454TIP3    H125777   2.471   1.696  12.262  0.0774  1.3189  1.0552
 1454TIP3    H225778   2.525   1.787  12.153  0.1919 -0.5073 -0.4359
 1455TIP3   OH225779   4.875   1.090   3.792 -0.5083  0.1001 -0.0216
 1455TIP3    H125780   4.908   1.087   3.702 -0.2880  0.9872  0.0215
 1455TIP3    H225781   4.954   1.098   3.846 -0.7905  3.2333  0.0279
 1456TIP3   OH225782   6.489   3.348  15.206 -0.3180 -0.1540 -0.2742
 1456TIP3    H125783   6.556   3.407  15.239  0.0684  0.3650 -1.9241
 1456TIP3    H225784   6.437   3.325  15.283  0.9373  0.4813  0.7904
 1457TIP3   OH225785   0.016   6.566   2.898  1.0103  0.1535  0.6866
 1457TIP3    H125786   0.030   6.648   2.850  1.6333 -0.0907  0.4425
 1457TIP3    H225787  -0.043   6.516   2.842 -0.9846  1.2363  1.7717
 1458TIP3   OH225788   6.020   5.985  11.711  1.0802  0.0173  0.6775
 1458TIP3    H125789   6.041   5.895  11.684 -0.1904 -1.1277  3.2813
 1458TIP3    H225790   5.929   5.998  11.683  0.4974 -0.3771  2.3223
 1459TIP3   OH225791   5.473   4.253   0.984 -0.0326  0.8138  0.8022
 1459TIP3    H125792   5.519   4.337   0.976 -0.0535  0.8022  0.5585
 1459TIP3    H225793   5.400   4.260   0.923  0.5056  0.2554  0.0888
 1460TIP3   OH225794   0.353   1.362  14.855 -0.2153 -0.6388  0.4427
 1460TIP3    H125795   0.359   1.300  14.781 -0.4564  0.9754 -0.9636
 1460TIP3    H225796   0.261   1.389  14.856  0.1093  0.4834  0.3873
 1461TIP3   OH225797   0.391   6.592  11.268  0.3866 -0.2400  0.3050
 1461TIP3    H125798   0.345   6.676  11.269 -0.1302 -0.5115  2.4265
 1461TIP3    H225799   0.359   6.548  11.189  0.4799  1.4340 -0.6987
 1462TIP3   OH225800   2.134   0.498   4.779 -1.1349 -0.1020  0.0210
 1462TIP3    H125801   2.190   0.548   4.838  0.0549  0.3938 -1.5046
 1462TIP3    H225802   2.088   0.436   4.836  1.8725 -1.3625  1.1539
 1463TIP3   OH225803   2.468   5.558  13.321 -0.0662 -0.5623 -0.4018
 1463TIP3    H125804   2.511   5.554  13.236  0.0320 -3.3057 -0.2493
 1463TIP3    H225805   2.527   5.612  13.375  0.1374  0.7256 -1.8763
 1464TIP3   OH225806   3.787   6.731  11.409 -0.8035 -0.0724 -0.0003
 1464TIP3    H125807   3.831   6.815  11.402 -1.1622  0.1677  0.5862
 1464TIP3    H225808   3.856   6.669  11.434 -0.6718  0.1706  0.2276
 1465TIP3   OH225809   0.342   0.366   5.053 -0.4003 -0.5971 -0.3879
 1465TIP3    H125810   0.345   0.346   5.146  1.9781 -0.1922 -0.3532
 1465TIP3    H225811   0.387   0.292   5.011  0.3407  0.2067 -1.0265
 1466TIP3   OH225812   0.623   0.871  12.085  0.0524  0.0839 -0.2875
 1466TIP3    H125813   0.645   0.943  12.026 -1.6400  0.2076 -0.7947
 1466TIP3    H225814   0.576   0.809  12.030  0.5255 -0.9021  0.4085
 1467TIP3   OH225815   2.026   1.249  15.928 -0.2111  0.1622  0.2383
 1467TIP3    H125816   2.121   1.247  15.935 -0.1730  0.4356 -0.1930
 1467TIP3    H225817   1.995   1.240  16.019  0.2840  3.0761  0.7432
 1468TIP3   OH225818   0.159   3.302   3.279  0.1726  0.1704 -0.4120
 1468TIP3    H125819   0.185   3.378   3.332  0.3895 -0.2620  0.1125
 1468TIP3    H225820   0.166   3.228   3.339 -0.2391 -0.2392 -0.8637
 1469TIP3   OH225821   4.928   4.498  11.832 -0.0737  0.1632 -0.7046
 1469TIP3    H125822   4.999   4.561  11.837 -0.1160  0.1350  0.4827
 1469TIP3    H225823   4.889   4.511  11.746  0.4043  1.2250 -0.7596
 1470TIP3   OH225824   5.768   1.895   1.229 -0.5356  0.2177 -0.5814
 1470TIP3    H125825   5.707   1.822   1.233 -0.2338 -0.0700 -1.1262
 1470TIP3    H225826   5.725   1.965   1.277 -0.6990 -0.4159  0.2052
 1471TIP3   OH225827   1.218   2.021  12.911 -0.5032 -0.1380  0.5276
 1471TIP3    H125828   1.155   2.082  12.872 -0.6154 -1.0802 -0.7896
 1471TIP3    H225829   1.267   2.074  12.974 -1.1276  1.1148 -0.0271
 1472TIP3   OH225830   2.624   3.525  12.306 -0.0545 -0.4071 -0.6223
 1472TIP3    H125831   2.703   3.472  12.306 -0.6260 -1.2951 -1.8410
 1472TIP3    H225832   2.555   3.465  12.335 -0.1302  0.6250  1.3899
 1473TIP3   OH225833   5.393   1.710   0.341  0.3492  0.0449 -0.1771
 1473TIP3    H125834   5.476   1.690   0.299  0.0634 -0.2821 -0.5921
 1473TIP3    H225835   5.367   1.628   0.383  0.0639  0.0468 -0.3466
 1474TIP3   OH225836   0.478   6.402  12.133 -0.1235  0.0696  0.2935
 1474TIP3    H125837   0.416   6.467  12.099  1.3922  0.3516 -2.0138
 1474TIP3    H225838   0.436   6.317  12.115 -0.1011  0.2710 -0.6949
 1475TIP3   OH225839   4.146   3.679  12.174 -0.3160  0.3395  0.0157
 1475TIP3    H125840   4.091   3.723  12.109 -0.7444 -1.2740 -0.7313
 1475TIP3    H225841   4.090   3.613  12.212  0.5935 -0.1877  0.4632
 1476TIP3   OH225842   1.964   5.292   1.668  0.3282  0.0098 -0.7108
 1476TIP3    H125843   1.933   5.274   1.580  0.6068 -1.5851 -0.4926
 1476TIP3    H225844   1.891   5.338   1.710  0.1946  0.7828 -1.7517
 1477TIP3   OH225845   6.091   6.065   0.460  0.2674 -0.2516  0.2368
 1477TIP3    H125846   6.124   5.997   0.401  1.4303 -0.4980  1.1490
 1477TIP3    H225847   6.156   6.135   0.455 -1.6609  1.4989 -1.8506
 1478TIP3   OH225848   0.360   3.553  13.367 -0.0548  0.0451 -0.0589
 1478TIP3    H125849   0.369   3.647  13.351 -3.0074  0.2243 -0.9369
 1478TIP3    H225850   0.300   3.547  13.441 -0.0338 -1.1844 -0.1357
 1479TIP3   OH225851   1.551   1.320   2.071 -0.4727 -0.5938  0.2056
 1479TIP3    H125852   1.520   1.250   2.128 -1.8040 -0.8171 -0.7542
 1479TIP3    H225853   1.580   1.274   1.991  2.3043 -0.3829  1.0501
 1480TIP3   OH225854   1.242   2.790   3.542 -0.3217  0.1194 -0.1098
 1480TIP3    H125855   1.254   2.873   3.497 -0.9623 -0.3392 -1.1444
 1480TIP3    H225856   1.226   2.814   3.633  2.1611  1.0084  0.1229
 1481TIP3   OH225857   0.812   3.078  15.717 -0.1802 -0.4046  0.2040
 1481TIP3    H125858   0.896   3.046  15.748 -1.1318 -2.0182  1.2033
 1481TIP3    H225859   0.793   3.154  15.771  0.9790  0.4493 -0.5559
 1482TIP3   OH225860   0.319   3.189   3.925  0.3152 -0.1294 -0.1818
 1482TIP3    H125861   0.411   3.200   3.899 -0.2371  1.5105 -1.5391
 1482TIP3    H225862   0.277   3.270   3.899 -1.4097 -0.6142  1.0233
 1483TIP3   OH225863   3.752   2.505  15.040 -0.0905 -0.5914 -0.7732
 1483TIP3    H125864   3.718   2.428  15.085  2.2913 -1.1794  0.0665
 1483TIP3    H225865   3.805   2.550  15.105  1.9770 -0.5230 -2.4463
 1484TIP3   OH225866   6.172   0.212  11.319 -0.2055 -0.1335  0.0435
 1484TIP3    H125867   6.077   0.203  11.324 -0.1472 -0.4891  0.5185
 1484TIP3    H225868   6.186   0.307  11.311 -0.5313  0.0671  1.6627
 1485TIP3   OH225869   1.108   4.434   3.001 -0.0385 -0.2714  0.4264
 1485TIP3    H125870   1.112   4.514   3.053 -0.0280 -1.6637  2.6307
 1485TIP3    H225871   1.199   4.406   2.993  0.1174  0.7251 -1.6686
 1486TIP3   OH225872   0.638   5.161   4.221 -0.2858  0.3686  0.4080
 1486TIP3    H125873   0.721   5.126   4.254 -1.1535 -1.3901  0.8035
 1486TIP3    H225874   0.632   5.249   4.257 -0.4330 -0.9021  3.5786
 1487TIP3   OH225875   5.867   6.055   4.355  0.1842 -0.8727  0.1669
 1487TIP3    H125876   5.887   6.057   4.261 -0.1755  0.8255  0.1148
 1487TIP3    H225877   5.791   5.997   4.361  1.0612 -2.1088 -0.4111
 1488TIP3   OH225878   2.429   3.380  15.957  0.6897 -0.1186 -0.3507
 1488TIP3    H125879   2.338   3.379  15.987  0.7813  1.4927  0.0289
 1488TIP3    H225880   2.468   3.455  16.002  2.1018 -0.5442 -0.8362
 1489TIP3   OH225881   3.968   4.223   6.931  0.0581  0.4254  0.1536
 1489TIP3    H125882   3.934   4.197   6.845 -1.2117  2.7029 -0.0860
 1489TIP3    H225883   3.991   4.316   6.921  0.3259  0.5980  2.1253
 1490TIP3   OH225884   2.057   6.072  15.702 -0.1712 -0.0593  0.1784
 1490TIP3    H125885   2.034   5.982  15.725 -0.9379  0.0774 -0.0364
 1490TIP3    H225886   2.111   6.063  15.624 -0.9396 -0.2913 -0.3366
 1491TIP3   OH225887   6.366   3.901  14.204  0.4363 -0.1513  0.2347
 1491TIP3    H125888   6.443   3.849  14.181  1.7172  1.1598  1.4543
 1491TIP3    H225889   6.344   3.874  14.293 -1.5426 -1.6861 -0.6627
 1492TIP3   OH225890   6.434   6.163   3.587  0.4087 -0.5667  0.0374
 1492TIP3    H125891   6.460   6.079   3.624 -2.7647 -2.0088 -0.7980
 1492TIP3    H225892   6.470   6.163   3.498  1.5221 -0.4569  0.4884
 1493TIP3   OH225893   2.275   3.101   4.633 -0.3260 -0.1909  0.3699
 1493TIP3    H125894   2.313   3.141   4.554 -1.7600 -1.0212 -0.7592
 1493TIP3    H225895   2.350   3.082   4.689  0.7294  0.2125 -0.8935
 1494TIP3   OH225896   6.103   4.498   3.877  0.5391 -0.0427 -0.6548
 1494TIP3    H125897   6.042   4.561   3.839 -0.1577 -0.9031 -0.9825
 1494TIP3    H225898   6.058   4.465   3.955  0.7686 -0.3639 -0.6565
 1495TIP3   OH225899   4.701   0.487   3.125  0.3821 -0.3514  0.0879
 1495TIP3    H125900   4.721   0.549   3.055 -2.2352  0.8258  0.3072
 1495TIP3    H225901   4.636   0.428   3.086 -0.0533 -0.5406  1.0813
 1496TIP3   OH225902   0.907   2.589  11.477 -0.0065  0.6552  0.6361
 1496TIP3    H125903   0.937   2.585  11.568 -1.1076  0.8142  1.0056
 1496TIP3    H225904   0.978   2.548  11.427 -0.9590 -2.7134  1.9319
 1497TIP3   OH225905   3.684   1.650   0.785 -0.2366 -0.7813 -0.1167
 1497TIP3    H125906   3.606   1.596   0.797 -0.9527 -0.2841 -2.3548
 1497TIP3    H225907   3.657   1.719   0.724  1.3919  0.5837  0.6567
 1498TIP3   OH225908   3.843   0.834  11.367  0.8879 -0.2616  0.3541
 1498TIP3    H125909   3.880   0.885  11.295  0.4589  1.8847  1.6207
 1498TIP3    H225910   3.749   0.846  11.359  0.8119 -0.3875  1.0017
 1499TIP3   OH225911   1.517   5.984  12.339  0.3464 -0.0365 -0.1505
 1499TIP3    H125912   1.464   6.064  12.340 -0.9123 -0.8279 -1.7591
 1499TIP3    H225913   1.594   6.006  12.287  0.2830  0.3005 -0.1026
 1500TIP3   OH225914   5.767   2.766   1.986  0.0229  0.0900  0.3025
 1500TIP3    H125915   5.766   2.692   1.926 -1.1739 -1.6615  2.4104
 1500TIP3    H225916   5.857   2.770   2.018 -0.5377 -2.3204  2.3419
 1501TIP3   OH225917   6.560   4.569  13.149  0.4131  0.1832 -0.0031
 1501TIP3    H125918   6.493   4.568  13.080  0.9628 -0.8009 -0.5373
 1501TIP3    H225919   6.635   4.614  13.109  0.6215 -0.1097  0.0493
 1502TIP3   OH225920   1.728   2.330  16.454 -0.3124  0.3192  0.6773
 1502TIP3    H125921   1.721   2.416  16.411 -0.1460  0.6827  1.3810
 1502TIP3    H225922   1.648   2.323  16.507 -1.4644 -0.9475 -1.1606
 1503TIP3   OH225923   3.070   2.770  15.663 -0.3540 -0.0053  0.1823
 1503TIP3    H125924   3.105   2.859  15.661 -0.5666  0.0576 -0.9886
 1503TIP3    H225925   3.034   2.756  15.575 -1.8305 -0.6456  0.8772
 1504TIP3   OH225926   6.339   5.207  17.139  0.5355  0.0646 -0.3289
 1504TIP3    H125927   6.417   5.154  17.124 -0.4137 -1.2702 -0.5755
 1504TIP3    H225928   6.361   5.259  17.216  1.1633 -1.3084  0.4468
 1505TIP3   OH225929   4.977   2.856  15.041  0.3365 -0.0061 -0.5012
 1505TIP3    H125930   4.918   2.854  15.116  0.9663 -0.2100  0.0043
 1505TIP3    H225931   5.016   2.768  15.039  0.1196 -0.0846 -1.2312
 1506TIP3   OH225932   3.566   6.477  14.913 -0.0821 -0.2656  0.5950
 1506TIP3    H125933   3.522   6.438  14.838  2.4334  0.8318 -1.5165
 1506TIP3    H225934   3.637   6.417  14.935  2.1281  1.6842 -0.9670
 1507TIP3   OH225935   0.745   1.971  12.210 -0.6656  0.5453 -0.0416
 1507TIP3    H125936   0.731   1.878  12.223 -0.6619  0.6370  0.6226
 1507TIP3    H225937   0.840   1.982  12.212 -0.7418  1.0425  3.3263
 1508TIP3   OH225938   5.008   0.819   6.664  0.2037 -0.2152 -0.0091
 1508TIP3    H125939   4.997   0.746   6.603  0.1698  0.5222 -0.8954
 1508TIP3    H225940   5.098   0.849   6.650  0.1015  0.1420  0.0894
 1509TIP3   OH225941   4.108   2.304   6.265  0.1004  0.3417 -0.6614
 1509TIP3    H125942   4.164   2.355   6.207 -0.2747  0.2461 -1.1129
 1509TIP3    H225943   4.082   2.365   6.334  1.3540  0.1837 -0.0459
 1510TIP3   OH225944   1.949   0.295  14.724  0.0391  0.1340 -0.6410
 1510TIP3    H125945   1.866   0.289  14.771  0.8699  0.5155  0.9030
 1510TIP3    H225946   1.949   0.384  14.687 -2.0158 -1.1973 -4.1002
 1511TIP3   OH225947   6.398   0.999  15.611  0.4372  0.0498  0.0335
 1511TIP3    H125948   6.486   1.034  15.627 -0.1024  1.1605  0.5975
 1511TIP3    H225949   6.367   0.972  15.698 -0.1395  0.5090 -0.0316
 1512TIP3   OH225950   5.526   4.814   0.626 -0.3871 -0.1799 -0.4311
 1512TIP3    H125951   5.593   4.768   0.678 -0.1952  0.3359 -0.2104
 1512TIP3    H225952   5.562   4.902   0.615 -1.4897  0.4079  0.5565
 1513TIP3   OH225953   3.004   0.316  16.980 -0.4849  0.1996  0.4702
 1513TIP3    H125954   3.062   0.355  17.045  0.4222  1.3145 -0.9573
 1513TIP3    H225955   3.053   0.325  16.897 -0.8877 -2.6411 -0.1236
 1514TIP3   OH225956   1.589   2.460   1.198 -0.4715  1.0332  0.6601
 1514TIP3    H125957   1.510   2.414   1.169 -0.0932  0.8779 -0.1561
 1514TIP3    H225958   1.595   2.442   1.292 -1.4339  1.0982  0.7320
 1515TIP3   OH225959   6.479   5.431   5.641  0.2120 -0.3893  0.3006
 1515TIP3    H125960   6.397   5.385   5.621  0.5383 -0.2979 -1.3798
 1515TIP3    H225961   6.547   5.367   5.621  0.5776 -0.1116  0.6646
 1516TIP3   OH225962   5.574   2.756  16.530 -0.5154 -0.3538 -0.0561
 1516TIP3    H125963   5.589   2.666  16.559 -0.4280  0.0169  1.0663
 1516TIP3    H225964   5.583   2.808  16.609  0.7913  0.8040 -0.9496
 1517TIP3   OH225965   6.515   2.791   0.104  0.4367 -0.0307 -0.0604
 1517TIP3    H125966   6.471   2.832   0.029 -0.3527 -1.1855 -0.2535
 1517TIP3    H225967   6.601   2.766   0.071  0.3271  0.0406 -0.4036
 1518TIP3   OH225968   6.473   3.524   6.043 -0.1702  0.0521 -0.0490
 1518TIP3    H125969   6.512   3.550   6.127  0.6584  0.3089 -0.5075
 1518TIP3    H225970   6.379   3.525   6.060 -0.0967  1.7523  0.4329
 1519TIP3   OH225971   6.596   6.748  16.077  0.4195  0.6359 -0.1604
 1519TIP3    H125972   6.504   6.721  16.080  0.4159  0.5013 -1.2254
 1519TIP3    H225973   6.635   6.692  16.010  1.4943  0.0618  0.9387
 1520TIP3   OH225974   2.525   0.280   0.390 -0.0996  0.1386 -0.3209
 1520TIP3    H125975   2.541   0.291   0.296 -0.9492  3.0624 -0.1810
 1520TIP3    H225976   2.601   0.318   0.433 -0.0685 -0.4820  0.1769
 1521TIP3   OH225977   0.729   5.850  11.136 -0.2683  0.6015 -0.3185
 1521TIP3    H125978   0.714   5.758  11.155 -1.8432  1.1656  1.2744
 1521TIP3    H225979   0.789   5.849  11.061 -0.4515 -1.7009 -0.4825
 1522TIP3   OH225980   4.304   3.498   3.428  0.3471 -0.3278  0.6778
 1522TIP3    H125981   4.326   3.437   3.498  2.0879  1.0323  1.3560
 1522TIP3    H225982   4.362   3.474   3.356  0.1795 -0.2617  0.5209
 1523TIP3   OH225983   2.337   6.343   3.668 -0.6326 -0.2538 -0.3383
 1523TIP3    H125984   2.255   6.367   3.712  1.2058 -1.8668  4.2262
 1523TIP3    H225985   2.324   6.252   3.641 -1.6100  0.6092 -2.8749
 1524TIP3   OH225986   3.119   2.386   3.562  0.3240  0.2923 -0.0696
 1524TIP3    H125987   3.084   2.300   3.589 -2.1507  2.3512  3.9292
 1524TIP3    H225988   3.201   2.394   3.610  0.6868  0.0238 -0.6528
 1525TIP3   OH225989   2.495   3.225   0.665 -0.0109 -0.4053  0.3605
 1525TIP3    H125990   2.516   3.185   0.581  0.4455 -0.3909  0.4654
 1525TIP3    H225991   2.422   3.284   0.646  0.2001 -0.2739 -0.0616
 1526TIP3   OH225992   6.388   6.376  15.237 -0.0602  0.1937  0.3918
 1526TIP3    H125993   6.369   6.349  15.147 -0.5743  0.1693  0.5064
 1526TIP3    H225994   6.302   6.386  15.277  0.1151  2.3819  0.2386
 1527TIP3   OH225995   6.414   3.822  10.670 -0.3065 -0.2587  0.0003
 1527TIP3    H125996   6.471   3.852  10.741  1.5160  1.6706 -2.2163
 1527TIP3    H225997   6.325   3.829  10.706  0.6712 -0.6114  2.5410
 1528TIP3   OH225998   6.539   0.610   1.250  0.8088 -0.2587 -0.4767
 1528TIP3    H125999   6.445   0.608   1.235  0.5530  0.9703  0.8988
 1528TIP3    H226000   6.555   0.541   1.314  0.7313  0.0698 -0.1035
 1529TIP3   OH226001   0.776   2.216   4.067 -0.0023  0.1305  0.2008
 1529TIP3    H126002   0.845   2.274   4.098  1.1683 -1.7175  1.1875
 1529TIP3    H226003   0.720   2.201   4.144 -0.7571  0.5851 -0.2546
 1530TIP3   OH226004   0.493   3.810   1.790 -0.3190  0.2456 -0.0280
 1530TIP3    H126005   0.464   3.900   1.775 -0.1184  0.0064 -1.9557
 1530TIP3    H226006   0.587   3.817   1.804 -0.4297  0.4177  0.6490
 1531TIP3   OH226007   0.552   4.260   5.769 -0.6949  0.1655 -0.0044
 1531TIP3    H126008   0.504   4.199   5.713 -0.4470  0.2514 -0.3110
 1531TIP3    H226009   0.495   4.337   5.777  0.0072  0.8598 -1.5437
 1532TIP3   OH226010   3.970   2.937   2.889 -0.2640 -0.2210  0.4809
 1532TIP3    H126011   4.006   2.925   2.801 -1.2208 -0.9753  0.1834
 1532TIP3    H226012   4.025   3.005   2.928  0.3173 -0.0474 -0.6133
 1533TIP3   OH226013   4.590   5.673  11.385  0.2055 -0.0625  0.1544
 1533TIP3    H126014   4.514   5.628  11.348 -0.8006  0.9171  0.9890
 1533TIP3    H226015   4.561   5.701  11.472  2.4259 -2.0535  1.5961
 1534TIP3   OH226016   2.227   6.009  13.110 -0.1751 -0.5535 -0.5007
 1534TIP3    H126017   2.209   5.967  13.194 -1.0170 -0.7104 -0.7529
 1534TIP3    H226018   2.272   6.090  13.132 -0.7362 -0.4096  0.1214
 1535TIP3   OH226019   5.152   2.400   2.879 -0.2327  0.2429 -0.0338
 1535TIP3    H126020   5.089   2.378   2.810 -2.2090  2.1395  1.1274
 1535TIP3    H226021   5.198   2.318   2.896 -2.3805 -1.1944 -0.9261
 1536TIP3   OH226022   4.471   0.539  14.237  0.1203  0.2560  0.0059
 1536TIP3    H126023   4.377   0.560  14.236  0.3756  1.5868  1.2182
 1536TIP3    H226024   4.489   0.503  14.151 -1.3154  0.9076 -0.5815
 1537TIP3   OH226025   4.953   5.733   2.988 -0.4668 -0.0579  0.1996
 1537TIP3    H126026   4.983   5.822   3.010 -2.2864  0.0093  2.7197
 1537TIP3    H226027   4.952   5.687   3.072 -1.9015 -1.7223 -0.6955
 1538TIP3   OH226028   0.093   4.921  15.019  0.2502  0.0779 -0.3714
 1538TIP3    H126029   0.017   4.864  15.008 -1.0306  1.4702  0.9618
 1538TIP3    H226030   0.147   4.877  15.084  0.8137 -1.1209 -1.6234
 1539TIP3   OH226031   0.266   4.090   2.430 -0.0454 -0.2065 -0.6760
 1539TIP3    H126032   0.350   4.130   2.455 -1.1259  1.5985  0.1421
 1539TIP3    H226033   0.260   4.012   2.486 -0.7861  1.8672  2.2622
 1540TIP3   OH226034   4.256   0.370   3.298  0.2571 -0.1163 -0.3599
 1540TIP3    H126035   4.279   0.405   3.213 -1.0047  0.0837 -0.6245
 1540TIP3    H226036   4.272   0.276   3.290  0.4171 -0.0584 -0.7253
 1541TIP3   OH226037   0.763   6.077  12.366 -0.7036  0.2291 -0.0290
 1541TIP3    H126038   0.673   6.090  12.394 -1.3160 -2.1699 -0.7640
 1541TIP3    H226039   0.756   6.033  12.282  1.1580 -1.5487  0.7057
 1542TIP3   OH226040   0.452   1.813  12.238 -0.3077 -0.4786  0.2173
 1542TIP3    H126041   0.474   1.906  12.225 -0.0428 -0.6365 -0.4810
 1542TIP3    H226042   0.537   1.769  12.247 -0.4915 -0.2109  3.7890
 1543TIP3   OH226043   5.943   4.601   1.732  0.1000  0.7781  0.3533
 1543TIP3    H126044   5.858   4.642   1.747 -0.1955  0.5228 -0.6287
 1543TIP3    H226045   5.923   4.508   1.722  0.7297  0.4133  2.2151
 1544TIP3   OH226046   0.969   1.532  11.380  0.0871 -0.0141 -0.1679
 1544TIP3    H126047   1.036   1.514  11.446 -0.2377 -2.0171 -0.3655
 1544TIP3    H226048   1.012   1.593  11.320  0.7806  0.9069  1.2266
 1545TIP3   OH226049   1.920   5.059   5.234  0.3053 -0.0042  0.0677
 1545TIP3    H126050   1.972   5.084   5.311 -0.0643  0.5704  0.1359
 1545TIP3    H226051   1.832   5.043   5.268  0.0819  0.4778 -0.2585
 1546TIP3   OH226052   4.191   4.506   5.519 -0.2792 -0.3142 -0.3436
 1546TIP3    H126053   4.196   4.548   5.605  0.4036 -0.0140 -0.5250
 1546TIP3    H226054   4.241   4.425   5.530  0.1109 -0.1018 -0.5596
 1547TIP3   OH226055   5.473   6.085   5.115  0.5723 -0.2502 -0.0892
 1547TIP3    H126056   5.542   6.149   5.098  0.3933 -0.1657 -0.5257
 1547TIP3    H226057   5.449   6.099   5.206  0.9167 -0.0680 -0.0247
 1548TIP3   OH226058   3.378   6.637   0.604  0.1509  0.1407  0.5017
 1548TIP3    H126059   3.456   6.643   0.549 -0.7056  0.0340 -0.7358
 1548TIP3    H226060   3.404   6.578   0.675  1.0892 -0.1812 -0.0868
 1549TIP3   OH226061   3.690   5.512  11.778 -0.4761  0.1247 -0.0411
 1549TIP3    H126062   3.680   5.591  11.724 -0.2500  0.1778 -0.0082
 1549TIP3    H226063   3.774   5.475  11.751 -0.6619 -0.1973 -0.1750
 1550TIP3   OH226064   0.739   1.305  12.549 -0.1646 -0.4531 -0.0330
 1550TIP3    H126065   0.706   1.302  12.639 -1.5058 -0.2959 -0.5089
 1550TIP3    H226066   0.767   1.215  12.531  1.7214 -0.1157  1.1255
 1551TIP3   OH226067   2.156   4.731   1.124 -0.1464 -0.3017 -0.1468
 1551TIP3    H126068   2.100   4.725   1.201 -1.1070  1.4872 -0.6653
 1551TIP3    H226069   2.114   4.675   1.058 -1.5878  1.3411 -0.6630
 1552TIP3   OH226070   5.823   3.398  12.470 -0.5237  0.0743 -0.1962
 1552TIP3    H126071   5.824   3.440  12.384  1.5278 -0.6624 -0.5539
 1552TIP3    H226072   5.762   3.325  12.461 -0.7972  0.3767 -0.8323
 1553TIP3   OH226073   5.893   5.057  14.293 -0.1326  0.3409 -0.9654
 1553TIP3    H126074   5.879   5.064  14.388  1.2848  0.3147 -0.7397
 1553TIP3    H226075   5.807   5.076  14.255 -0.4100  1.6666  0.2714
 1554TIP3   OH226076   4.314   3.974   1.344  0.3879  0.2334 -0.2186
 1554TIP3    H126077   4.266   4.056   1.357  0.6197  0.2160  0.8078
 1554TIP3    H226078   4.251   3.906   1.369  0.1406  0.0866 -1.2344
 1555TIP3   OH226079   5.156   2.363  10.333 -0.7074 -0.1356 -0.2247
 1555TIP3    H126080   5.107   2.290  10.369  0.6245  0.0587  2.0866
 1555TIP3    H226081   5.090   2.431  10.317 -1.3784 -0.3337  1.6093
 1556TIP3   OH226082   1.471   6.086   4.548  0.0323 -0.0550  0.0434
 1556TIP3    H126083   1.535   6.147   4.585 -0.6714  1.6101 -1.4015
 1556TIP3    H226084   1.459   6.020   4.616  3.5309 -0.6336  0.2203
 1557TIP3   OH226085   3.697   6.081  13.840 -0.0649  0.3070  0.1440
 1557TIP3    H126086   3.747   6.008  13.879 -1.6298 -1.4556 -1.0395
 1557TIP3    H226087   3.764   6.139  13.804  1.2256 -0.6566  0.8983
 1558TIP3   OH226088   3.140   4.400   2.871  0.5252 -0.2996  0.0372
 1558TIP3    H126089   3.105   4.420   2.957 -2.9209  0.9045 -1.5517
 1558TIP3    H226090   3.137   4.304   2.866 -0.8785 -0.3030  0.6526
 1559TIP3   OH226091   1.650   3.244   5.980  0.2527  0.3725 -0.6861
 1559TIP3    H126092   1.686   3.326   5.946 -1.3058  1.7336  0.8141
 1559TIP3    H226093   1.679   3.241   6.071 -3.1190  1.3835  0.4913
 1560TIP3   OH226094   5.666   3.758  16.530  0.0568  0.4371  0.4144
 1560TIP3    H126095   5.570   3.757  16.523  0.0547 -0.6630  0.5164
 1560TIP3    H226096   5.691   3.666  16.524  1.2348  0.8410 -1.1485
 1561TIP3   OH226097   5.505   2.785   4.670  0.6488 -0.0653 -0.4315
 1561TIP3    H126098   5.569   2.852   4.695  0.0608  0.6293 -0.7924
 1561TIP3    H226099   5.521   2.770   4.577  0.8555 -0.5062 -0.3247
 1562TIP3   OH226100   4.513   0.826  15.854  0.3401  0.0769  0.4758
 1562TIP3    H126101   4.607   0.819  15.838 -0.2234 -1.5141 -2.6022
 1562TIP3    H226102   4.476   0.745  15.817 -2.2367  0.7110  1.5384
 1563TIP3   OH226103   5.810   1.074  13.403  0.4205 -0.5502 -0.0494
 1563TIP3    H126104   5.800   1.144  13.468  0.5728 -0.9475  0.4059
 1563TIP3    H226105   5.833   1.119  13.322 -0.8566  0.0486 -0.0957
 1564TIP3   OH226106   0.166   1.094  13.126  0.1216 -0.2381  0.2265
 1564TIP3    H126107   0.219   1.157  13.077  0.8360 -0.0509  1.2307
 1564TIP3    H226108   0.191   1.009  13.089  0.3906 -0.0734  0.0241
 1565TIP3   OH226109   5.558   3.092   2.553 -0.4269 -0.2579 -0.5611
 1565TIP3    H126110   5.497   3.043   2.498 -1.0672 -2.4185  1.9219
 1565TIP3    H226111   5.587   3.165   2.499 -1.3893 -1.9937 -3.5374
 1566TIP3   OH226112   0.509   1.567  14.227  0.9145  0.1062 -0.5434
 1566TIP3    H126113   0.556   1.590  14.307 -0.8275  0.6336  0.3567
 1566TIP3    H226114   0.557   1.613  14.157  1.3999  1.0747  0.4100
 1567TIP3   OH226115   6.529   2.927  12.186  0.7058  0.2010 -0.1853
 1567TIP3    H126116   6.500   3.015  12.165  0.2819 -0.4018 -2.2084
 1567TIP3    H226117   6.590   2.904  12.115  0.2813 -1.3835 -0.0633
 1568TIP3   OH226118   1.892   5.777  11.620 -0.0975  0.2763  0.1392
 1568TIP3    H126119   1.940   5.729  11.552 -1.3353  0.8146 -1.1573
 1568TIP3    H226120   1.858   5.854  11.575  1.6701  2.2798  2.1414
 1569TIP3   OH226121   1.418   3.969  13.129  0.1273  0.1990  0.0929
 1569TIP3    H126122   1.331   4.001  13.108 -0.4604 -1.5976 -0.3691
 1569TIP3    H226123   1.442   4.014  13.210 -1.8199 -0.3368  0.9980
 1570TIP3   OH226124   4.921   3.696  17.114  0.0940 -0.1232 -0.2011
 1570TIP3    H126125   4.827   3.706  17.098 -0.0244 -0.5043  0.2602
 1570TIP3    H226126   4.953   3.786  17.123 -0.3264 -0.0191  0.2254
 1571TIP3   OH226127   2.604   3.302   4.319  0.0014  0.3125 -0.0460
 1571TIP3    H126128   2.661   3.225   4.328 -1.6242 -1.1182 -1.5798
 1571TIP3    H226129   2.581   3.325   4.409 -0.9486 -2.1448  0.3745
 1572TIP3   OH226130   2.364   1.870  13.045  0.4118  0.0815  0.3717
 1572TIP3    H126131   2.357   1.815  12.967  0.4574 -0.7751  0.9583
 1572TIP3    H226132   2.433   1.933  13.025 -0.2723  0.5070 -0.6573
 1573TIP3   OH226133   2.095   6.782   4.026  0.3546 -0.0318  0.0689
 1573TIP3    H126134   2.038   6.833   4.084 -1.9403 -1.7700 -0.5433
 1573TIP3    H226135   2.170   6.759   4.080 -0.1082  1.2754  1.3100
 1574TIP3   OH226136   2.525   4.085  16.210 -0.4877  0.2028  0.2992
 1574TIP3    H126137   2.475   4.072  16.290 -1.6524  0.6678 -0.3423
 1574TIP3    H226138   2.553   4.176  16.214 -1.3929  0.5088 -0.2934
 1575TIP3   OH226139   0.011   3.777  14.237  0.1036 -0.0104  0.6877
 1575TIP3    H126140   0.031   3.748  14.326 -0.1329 -0.9647  0.4396
 1575TIP3    H226141   0.061   3.719  14.180  1.6594  1.7354  0.2152
 1576TIP3   OH226142   3.474   4.633  15.443 -0.3837 -0.0023 -0.3788
 1576TIP3    H126143   3.443   4.651  15.354  1.1667  0.1058 -0.9044
 1576TIP3    H226144   3.399   4.591  15.486 -0.6981 -1.3032 -2.1512
 1577TIP3   OH226145   5.137   5.140  13.360  0.1500 -0.0580 -0.3349
 1577TIP3    H126146   5.187   5.059  13.352 -1.3578 -0.8416 -2.2413
 1577TIP3    H226147   5.046   5.112  13.352 -0.4352  1.7199  0.0047
 1578TIP3   OH226148   0.036   6.343  15.528  0.0131 -0.0246  0.1301
 1578TIP3    H126149   0.077   6.416  15.482  0.6562 -1.8103 -2.2381
 1578TIP3    H226150   0.091   6.328  15.605  1.0827  0.6478 -0.4996
 1579TIP3   OH226151   4.291   0.042  10.809 -0.0892 -0.0536  0.3543
 1579TIP3    H126152   4.294   0.136  10.827 -1.8309  0.5885 -2.5454
 1579TIP3    H226153   4.348   0.029  10.734  1.0398 -1.5328  1.4195
 1580TIP3   OH226154   1.437   4.808   5.251  0.5539 -0.0748 -0.1891
 1580TIP3    H126155   1.467   4.755   5.177 -1.7929  0.5961 -1.6608
 1580TIP3    H226156   1.439   4.898   5.219  0.6438  0.3524  0.9670
 1581TIP3   OH226157   0.004   6.396  16.094  0.5317 -0.3383  0.2045
 1581TIP3    H126158   0.084   6.430  16.134  0.2731 -0.0166  0.4473
 1581TIP3    H226159   0.023   6.304  16.077  0.7154 -0.4245  0.8755
 1582TIP3   OH226160   0.964   5.665   5.381 -0.5779 -0.6893 -0.2376
 1582TIP3    H126161   0.960   5.571   5.364  1.2367 -1.1027  1.4035
 1582TIP3    H226162   1.029   5.674   5.451  0.0749  1.8854 -1.1096
 1583TIP3   OH226163   1.914   5.635   3.280 -0.4663 -0.3467 -0.1652
 1583TIP3    H126164   1.907   5.543   3.308  1.3704 -0.7745 -1.0315
 1583TIP3    H226165   1.986   5.671   3.332 -0.3056  0.2206 -0.7625
 1584TIP3   OH226166   2.235   0.505  11.290  0.0178 -0.2484  0.1820
 1584TIP3    H126167   2.327   0.482  11.303 -0.8417 -3.3864  1.0218
 1584TIP3    H226168   2.219   0.490  11.197  0.5678  1.2438 -0.1734
 1585TIP3   OH226169   2.971   2.803  14.824 -0.4013  0.5062  1.0786
 1585TIP3    H126170   2.955   2.755  14.743 -3.0708  1.5835  0.9189
 1585TIP3    H226171   3.027   2.876  14.799 -2.5033  1.7533 -0.1665
 1586TIP3   OH226172   4.029   4.514   3.381  0.6633 -0.7044 -0.4009
 1586TIP3    H126173   4.108   4.474   3.416 -1.3710 -2.4556  2.4229
 1586TIP3    H226174   3.995   4.569   3.453 -0.2383  0.6970 -1.8500
 1587TIP3   OH226175   6.281   5.866   0.415  0.7337  0.0978 -0.2229
 1587TIP3    H126176   6.320   5.950   0.394 -0.2777  0.2359 -1.5810
 1587TIP3    H226177   6.322   5.803   0.356 -1.8764  0.4393 -2.5160
 1588TIP3   OH226178   6.719   4.037   4.204 -0.3066  0.2790 -0.1032
 1588TIP3    H126179   6.725   3.944   4.225  1.5520  0.9523  2.4601
 1588TIP3    H226180   6.627   4.059   4.221 -0.5841 -0.9040 -0.0088
 1589TIP3   OH226181   0.844   0.556   4.148  0.2276 -0.0569  0.0603
 1589TIP3    H126182   0.796   0.620   4.094  0.1335  0.2830  0.5462
 1589TIP3    H226183   0.924   0.602   4.174  0.0406 -0.0489  0.6193
 1590TIP3   OH226184   5.145   1.670   1.362 -0.2031  0.0311  0.0870
 1590TIP3    H126185   5.203   1.613   1.413  0.4167  1.6848  1.2996
 1590TIP3    H226186   5.081   1.701   1.426 -0.8571  0.2691 -0.6788
 1591TIP3   OH226187   3.414   5.325   2.628  0.1169  0.0670  0.0769
 1591TIP3    H126188   3.457   5.331   2.542  0.3419 -0.3042  0.1608
 1591TIP3    H226189   3.479   5.282   2.684 -0.2112 -0.1277  0.3096
 1592TIP3   OH226190   2.301   3.115  14.414 -0.9607 -0.2133  0.6656
 1592TIP3    H126191   2.236   3.084  14.351  0.1168  1.5402 -1.3784
 1592TIP3    H226192   2.369   3.049  14.413 -0.6872  0.0761 -0.4527
 1593TIP3   OH226193   6.417   2.557  13.487 -0.3293  0.1019  0.5712
 1593TIP3    H126194   6.418   2.467  13.455 -0.7328  0.2188  0.2307
 1593TIP3    H226195   6.384   2.551  13.576 -0.0035 -0.1276  0.6779
 1594TIP3   OH226196   4.354   3.293  14.148  0.5943  0.1411  0.0394
 1594TIP3    H126197   4.402   3.359  14.098  0.4096  0.5508  0.3942
 1594TIP3    H226198   4.262   3.317  14.138  0.5904  0.6430  1.1301
 1595TIP3   OH226199   1.803   0.575   3.272 -0.4104 -0.0633  0.0770
 1595TIP3    H126200   1.762   0.532   3.348 -0.4131  0.4475  0.3697
 1595TIP3    H226201   1.896   0.558   3.282 -0.2610  1.1660  0.9557
 1596TIP3   OH226202   4.429   4.770  16.092 -0.5542  0.4490 -0.6137
 1596TIP3    H126203   4.384   4.855  16.086 -0.1133  0.7870  0.6891
 1596TIP3    H226204   4.484   4.778  16.170 -1.1175 -1.3324 -0.0160
 1597TIP3   OH226205   4.256   4.354   5.007 -0.1639  0.5028 -0.2581
 1597TIP3    H126206   4.208   4.275   4.981  0.4396  0.3087 -0.7844
 1597TIP3    H226207   4.255   4.353   5.103 -3.2829  1.7454 -0.2014
 1598TIP3   OH226208   0.670   1.946   4.209 -0.9127  0.5041  0.0256
 1598TIP3    H126209   0.698   1.862   4.244 -2.4704  0.2581  0.7053
 1598TIP3    H226210   0.583   1.930   4.173 -0.3937  1.3565 -1.6839
 1599TIP3   OH226211   5.202   0.998   5.358 -0.7071  0.0440  0.3203
 1599TIP3    H126212   5.251   1.079   5.349 -2.0205  0.7917 -0.3115
 1599TIP3    H226213   5.149   1.010   5.437 -1.7295  0.2689 -0.3829
 1600TIP3   OH226214   0.777   0.869   3.357 -0.5647  0.5382 -0.0228
 1600TIP3    H126215   0.820   0.955   3.358  2.5769 -0.9615 -0.7860
 1600TIP3    H226216   0.804   0.829   3.275 -2.3323 -1.0653  0.1394
 1601TIP3   OH226217   1.181   5.809   5.839 -0.0913  0.2874  0.4945
 1601TIP3    H126218   1.165   5.749   5.913 -0.5620  0.8428  0.8473
 1601TIP3    H226219   1.170   5.754   5.761 -0.8493 -0.0241  0.8063
 1602TIP3   OH226220   3.102   1.499  16.020  0.1524 -0.6850  0.1459
 1602TIP3    H126221   3.144   1.505  16.106  0.8110 -0.0592 -0.2177
 1602TIP3    H226222   3.088   1.589  15.993  2.3063 -0.8286 -1.5421
 1603TIP3   OH226223   2.297   3.406  13.731  0.2704 -0.2382  0.5808
 1603TIP3    H126224   2.355   3.335  13.757  0.2159 -0.2891  0.5656
 1603TIP3    H226225   2.319   3.423  13.639  0.3682 -0.1518  0.6208
 1604TIP3   OH226226   6.702   1.285   0.020 -0.4295 -0.3294  0.4183
 1604TIP3    H126227   6.662   1.306  -0.065  1.2515 -1.2788 -0.6329
 1604TIP3    H226228   6.659   1.205   0.049  0.0367 -0.8234 -0.2534
 1605TIP3   OH226229   2.114   0.102   5.061 -0.3094  0.1765  0.1921
 1605TIP3    H126230   2.046   0.082   5.126 -1.1938  0.2487 -0.6919
 1605TIP3    H226231   2.185   0.142   5.111 -0.6423 -0.5211  1.2299
 1606TIP3   OH226232   3.767   4.426   5.111  0.0466 -0.3520 -0.5995
 1606TIP3    H126233   3.801   4.379   5.188 -0.0492 -0.4144 -0.5950
 1606TIP3    H226234   3.738   4.356   5.052  0.2483 -0.3093 -0.7517
 1607TIP3   OH226235   4.636   1.795   2.742 -0.3128  0.4227  0.2205
 1607TIP3    H126236   4.583   1.806   2.821 -1.2467  1.2162 -0.4916
 1607TIP3    H226237   4.695   1.870   2.742  0.0104  0.1653  0.4190
 1608TIP3   OH226238   0.915   5.065  14.200  0.1342  0.0020  0.3120
 1608TIP3    H126239   0.823   5.040  14.191  0.1782 -0.4355  1.0163
 1608TIP3    H226240   0.916   5.160  14.186 -0.4947  0.0866  0.8341
 1609TIP3   OH226241   2.995   5.168  12.683  0.5732  0.2034  0.2373
 1609TIP3    H126242   2.941   5.089  12.679 -0.2551  0.8187 -1.0010
 1609TIP3    H226243   2.937   5.235  12.717  1.0075  0.4928  0.4077
 1610TIP3   OH226244   5.352   1.299   5.684  0.1610 -0.3969 -0.4078
 1610TIP3    H126245   5.338   1.295   5.778  1.1694  0.1397 -0.2309
 1610TIP3    H226246   5.355   1.207   5.656 -1.0606 -0.5490 -0.0724
 1611TIP3   OH226247   1.196   4.914   6.617 -0.1194 -0.1926 -0.0345
 1611TIP3    H126248   1.132   4.893   6.685  0.1086 -1.3456 -0.1619
 1611TIP3    H226249   1.173   4.856   6.544 -0.6837  1.3993 -1.1441
 1612TIP3   OH226250   0.286   5.483   4.185  0.2326 -0.1259 -0.5135
 1612TIP3    H126251   0.303   5.552   4.249 -1.1416  1.2725 -1.6014
 1612TIP3    H226252   0.197   5.455   4.204  0.0129 -0.0811 -1.4508
 1613TIP3   OH226253   3.982   4.988  12.798 -0.3959  0.2542  0.7166
 1613TIP3    H126254   4.009   5.080  12.799  1.2738 -0.2140 -0.4176
 1613TIP3    H226255   3.990   4.961  12.707  1.2428 -1.6379  1.3901
 1614TIP3   OH226256   2.061   3.956  11.517  0.3860  0.1432  0.5240
 1614TIP3    H126257   2.096   3.867  11.523  1.7396  0.6249  0.0232
 1614TIP3    H226258   2.138   4.012  11.527 -0.3872  1.2518  0.2882
 1615TIP3   OH226259   5.303   0.841  15.227  0.4886 -0.6834  0.1046
 1615TIP3    H126260   5.226   0.806  15.183 -0.7866 -0.3463  2.0247
 1615TIP3    H226261   5.307   0.933  15.199  1.3432 -1.1967 -1.5242
 1616TIP3   OH226262   3.709   0.202   3.931 -0.4996 -0.0555  0.0700
 1616TIP3    H126263   3.671   0.243   4.009  0.4891  1.0893 -0.0396
 1616TIP3    H226264   3.803   0.197   3.949 -0.1656  0.8508 -1.3194
 1617TIP3   OH226265   6.254   2.533   2.914  0.2925  0.5193  0.2297
 1617TIP3    H126266   6.192   2.606   2.916  1.4260  1.5342 -1.1448
 1617TIP3    H226267   6.321   2.556   2.978 -0.0280  0.0567  0.7385
 1618TIP3   OH226268   0.692   5.859  12.198 -0.6652 -0.5654 -0.1295
 1618TIP3    H126269   0.740   5.776  12.197 -0.1825 -0.2873 -0.5057
 1618TIP3    H226270   0.609   5.840  12.155  0.3358 -0.3286 -2.1951
 1619TIP3   OH226271   0.881   5.766   3.026  0.8911 -0.3191  0.0864
 1619TIP3    H126272   0.802   5.793   3.073 -0.0852 -0.9212 -1.1587
 1619TIP3    H226273   0.953   5.793   3.082 -0.2391 -0.9504  1.8722
 1620TIP3   OH226274   6.138   2.522  12.264  0.0377  0.2793  0.8814
 1620TIP3    H126275   6.085   2.444  12.283 -1.9389  0.8428 -2.0902
 1620TIP3    H226276   6.222   2.487  12.234 -1.5614 -0.8437 -2.5509
 1621TIP3   OH226277   3.065   0.779  12.040 -0.0170 -0.1047 -0.5064
 1621TIP3    H126278   2.998   0.725  12.000 -1.8537  0.4516  1.7428
 1621TIP3    H226279   3.122   0.717  12.086 -1.6625 -0.2494  1.4075
 1622TIP3   OH226280   6.527   2.622   0.721  0.7239  0.1817 -0.8464
 1622TIP3    H126281   6.474   2.555   0.678 -1.9084  0.5673  1.5959
 1622TIP3    H226282   6.617   2.592   0.711 -0.3230 -3.2907 -0.5548
 1623TIP3   OH226283   0.614   4.310  11.170  0.0518 -0.1877 -0.1862
 1623TIP3    H126284   0.544   4.259  11.130 -0.1289  1.2901 -1.8286
 1623TIP3    H226285   0.689   4.251  11.172 -0.9587 -1.4929  0.7751
 1624TIP3   OH226286   4.838   2.571   2.445 -0.2152 -0.9981  0.4253
 1624TIP3    H126287   4.846   2.602   2.535  1.7014 -0.0654 -0.0390
 1624TIP3    H226288   4.892   2.493   2.441 -1.4546 -1.8653  0.4440
 1625TIP3   OH226289   5.840   6.597   3.167 -0.1751 -0.0910 -0.3589
 1625TIP3    H126290   5.892   6.678   3.166 -2.0590  1.1539 -0.1035
 1625TIP3    H226291   5.752   6.626   3.192 -0.6997 -2.3371  0.4580
 1626TIP3   OH226292   2.584   4.956   2.260  0.1210 -0.0801 -0.0541
 1626TIP3    H126293   2.539   4.913   2.332 -0.0294  0.7124  0.3370
 1626TIP3    H226294   2.523   4.952   2.187 -0.9778  1.7257  0.6992
 1627TIP3   OH226295   0.411   4.598  16.907  0.3556 -0.2649 -0.0105
 1627TIP3    H126296   0.498   4.562  16.889  0.4568  0.2932 -0.6694
 1627TIP3    H226297   0.368   4.601  16.821 -0.2858 -0.4739  0.3011
 1628TIP3   OH226298   0.200   1.609   4.816  0.1634  0.5464  0.0277
 1628TIP3    H126299   0.209   1.691   4.864 -0.1823 -0.0837  1.1790
 1628TIP3    H226300   0.201   1.541   4.884 -0.5112 -0.3386 -0.8382
 1629TIP3   OH226301   5.972   4.584  14.007  0.4067 -0.0856 -0.1155
 1629TIP3    H126302   5.919   4.664  14.010  0.5582 -0.0032  0.2912
 1629TIP3    H226303   6.059   4.611  14.035  0.6522 -0.2386 -0.7132
 1630TIP3   OH226304   5.778   3.013  13.330  0.7830  0.2992 -0.2369
 1630TIP3    H126305   5.775   2.917  13.338  2.4474  0.2485  0.0375
 1630TIP3    H226306   5.693   3.037  13.294  0.4185 -1.3132 -0.4885
 1631TIP3   OH226307   5.226   1.767   1.013 -0.1859 -0.4472 -0.3297
 1631TIP3    H126308   5.163   1.774   0.941  0.0998 -0.2492 -0.5603
 1631TIP3    H226309   5.180   1.805   1.088 -0.1182  0.2728 -0.6439
 1632TIP3   OH226310   4.898   1.717   0.002 -0.2427 -0.4471  0.3361
 1632TIP3    H126311   4.951   1.655   0.052 -0.8273 -1.1010  0.1586
 1632TIP3    H226312   4.959   1.786  -0.023  0.3376 -0.7703  0.8445
 1633TIP3   OH226313   6.266   4.099  15.140 -0.3360 -0.0313  0.2591
 1633TIP3    H126314   6.355   4.109  15.108 -0.9597  0.9247 -1.2111
 1633TIP3    H226315   6.220   4.176  15.108 -1.7858 -0.7043  0.6844
 1634TIP3   OH226316   3.176   1.090   5.422 -0.2874  0.4150 -0.2237
 1634TIP3    H126317   3.112   1.106   5.353  0.4135  0.5532 -0.8475
 1634TIP3    H226318   3.258   1.125   5.388 -0.3322  2.2436  1.4631
 1635TIP3   OH226319   2.223   4.572   3.349 -0.2064  0.5799  0.5942
 1635TIP3    H126320   2.152   4.527   3.393 -0.1650 -0.5024 -0.4313
 1635TIP3    H226321   2.184   4.607   3.269  0.3783  0.0498  0.0650
 1636TIP3   OH226322   2.788   2.783  16.013  0.3026  0.0992  0.4180
 1636TIP3    H126323   2.805   2.866  15.970 -0.8982 -1.4230 -3.1945
 1636TIP3    H226324   2.694   2.768  16.001  0.5210 -1.8273  0.8784
 1637TIP3   OH226325   3.353   5.857  10.800 -0.2330 -1.1445  0.6781
 1637TIP3    H126326   3.335   5.951  10.796  0.4627 -1.1153 -2.8909
 1637TIP3    H226327   3.273   5.816  10.768 -0.0945 -1.7367  1.0804
 1638TIP3   OH226328   0.068   2.385   4.056 -0.0557  0.1112  0.1233
 1638TIP3    H126329   0.061   2.308   4.113  0.4118  0.0713  0.1314
 1638TIP3    H226330   0.162   2.397   4.045 -0.1109  1.1599  0.7633
 1639TIP3   OH226331   0.290   4.476   6.127  0.3299  0.1454  0.4740
 1639TIP3    H126332   0.277   4.403   6.188  0.9679  0.4813  1.0089
 1639TIP3    H226333   0.221   4.539   6.150 -0.3065 -0.3435 -0.0779
 1640TIP3   OH226334   6.711   0.859   2.005  0.0534 -0.0509  0.0916
 1640TIP3    H126335   6.739   0.949   2.025  0.2006  0.3767 -1.9295
 1640TIP3    H226336   6.629   0.848   2.054  1.7277 -0.0126  3.0494
 1641TIP3   OH226337   3.672   4.805   4.074  0.3012  0.0370 -0.6386
 1641TIP3    H126338   3.765   4.786   4.091 -0.2046 -1.9841 -0.1000
 1641TIP3    H226339   3.662   4.896   4.103  2.0228  0.1399 -0.2886
 1642TIP3   OH226340   1.868   1.830   2.276 -0.1448 -0.3628  0.1290
 1642TIP3    H126341   1.908   1.895   2.334 -0.1875 -0.5494  0.3679
 1642TIP3    H226342   1.776   1.826   2.305  0.2801 -1.8848  1.3389
 1643TIP3   OH226343   6.174   3.973  15.696  0.2971 -0.5827 -0.4136
 1643TIP3    H126344   6.195   3.883  15.671 -0.3356 -0.3731 -1.7749
 1643TIP3    H226345   6.089   3.967  15.739  0.8472 -0.7929  0.6588
 1644TIP3   OH226346   5.029   2.245  16.178 -0.3136  0.4583  0.4849
 1644TIP3    H126347   4.966   2.296  16.127 -0.2335  1.0187  0.9315
 1644TIP3    H226348   4.978   2.173  16.215 -0.5146  0.4413  0.1750
 1645TIP3   OH226349   6.649   3.678   1.978  0.6697  0.8136 -0.6002
 1645TIP3    H126350   6.678   3.728   1.901 -1.2326 -0.1772 -1.9935
 1645TIP3    H226351   6.581   3.620   1.944 -0.0890  0.2587  1.8310
 1646TIP3   OH226352   6.334   2.078  14.689  0.1833 -0.3370 -0.1134
 1646TIP3    H126353   6.251   2.110  14.725  1.0230  0.7074  0.9762
 1646TIP3    H226354   6.389   2.065  14.766  1.2894 -0.2473 -0.8765
 1647TIP3   OH226355   3.093   1.540  11.599 -0.3145  0.5158  0.3254
 1647TIP3    H126356   3.139   1.597  11.539 -1.6019  0.5693 -0.6270
 1647TIP3    H226357   3.117   1.451  11.571 -0.3479  0.5500  0.1888
 1648TIP3   OH226358   3.145   4.607   3.608 -0.4507 -0.3904 -0.0652
 1648TIP3    H126359   3.110   4.666   3.675  1.4552 -0.6061  1.1483
 1648TIP3    H226360   3.145   4.660   3.528 -0.3639  0.7094  0.6515
 1649TIP3   OH226361   2.738   5.628   4.800  0.0232 -0.2713  0.1585
 1649TIP3    H126362   2.710   5.674   4.721  0.2975  0.0253  0.2332
 1649TIP3    H226363   2.725   5.692   4.871 -0.3991 -0.5968  0.3769
 1650TIP3   OH226364   0.328   2.640   5.403  0.3306  0.1241  0.2519
 1650TIP3    H126365   0.369   2.703   5.462 -0.0537  0.4468  0.1692
 1650TIP3    H226366   0.284   2.693   5.338 -0.3526 -0.2333  0.4245
 1651TIP3   OH226367   2.868   5.478   3.134  0.1921 -0.4131 -0.0101
 1651TIP3    H126368   2.901   5.476   3.224  4.9971 -0.4278 -1.6749
 1651TIP3    H226369   2.856   5.385   3.111 -0.5385 -0.4273  0.4005
 1652TIP3   OH226370   3.205   5.344   4.053 -0.4127  0.6624  0.3813
 1652TIP3    H126371   3.137   5.411   4.065  0.5537  1.4123  1.7365
 1652TIP3    H226372   3.265   5.357   4.126 -0.0734 -1.5496  0.5321
 1653TIP3   OH226373   1.934   3.601  14.764  0.0699 -0.0225 -0.9149
 1653TIP3    H126374   1.977   3.522  14.795 -1.9413 -0.6180  0.4727
 1653TIP3    H226375   1.841   3.578  14.760 -0.5017  2.1402 -0.8744
 1654TIP3   OH226376   3.159   4.501  10.414 -0.5196  0.1196  0.2249
 1654TIP3    H126377   3.188   4.592  10.415 -1.1823  0.3638 -0.9427
 1654TIP3    H226378   3.107   4.493  10.333  2.2201 -2.1357 -1.4142
 1655TIP3   OH226379   4.481   4.329   4.154  0.3456  0.4844 -0.1279
 1655TIP3    H126380   4.573   4.304   4.162  0.1308 -0.4637 -0.5974
 1655TIP3    H226381   4.456   4.304   4.065 -0.0011  1.9622 -0.4623
 1656TIP3   OH226382   4.446   0.362   4.186 -0.0502  0.4258  0.1983
 1656TIP3    H126383   4.450   0.451   4.221  0.8276  0.1749  0.7581
 1656TIP3    H226384   4.537   0.335   4.178 -0.2914 -0.1823 -0.6114
 1657TIP3   OH226385   0.567   2.646  14.554 -0.2767 -0.6322  0.2573
 1657TIP3    H126386   0.579   2.571  14.612  0.1315  0.1708  1.2230
 1657TIP3    H226387   0.656   2.668  14.524 -0.3304 -0.2250  0.3829
 1658TIP3   OH226388   1.976   3.123  12.004  0.3144  0.4615 -0.2166
 1658TIP3    H126389   1.903   3.182  12.020  1.6850  1.6983  1.5605
 1658TIP3    H226390   1.980   3.067  12.082  0.2855 -0.6801 -1.0103
 1659TIP3   OH226391   5.914   5.649   2.358  0.7245 -0.4101 -0.1190
 1659TIP3    H126392   5.969   5.578   2.325 -0.1082 -0.2006 -2.0007
 1659TIP3    H226393   5.826   5.613   2.358  0.4447  0.2669 -0.0428
 1660TIP3   OH226394   3.669   2.676  12.043  0.0813  0.3770  0.2241
 1660TIP3    H126395   3.625   2.685  11.958  1.5850  1.9529 -0.4108
 1660TIP3    H226396   3.621   2.605  12.087 -0.0988 -1.1327 -2.3082
 1661TIP3   OH226397   2.441   1.982  12.409  0.7256  0.2290  0.5157
 1661TIP3    H126398   2.493   2.044  12.459  0.2026  0.2551  1.0424
 1661TIP3    H226399   2.397   1.929  12.476  0.2731  0.0482  0.0805
 1662TIP3   OH226400   2.088   3.100   2.043 -0.2835  0.4063  0.4692
 1662TIP3    H126401   2.116   3.105   2.134  0.5379 -2.0143  0.4137
 1662TIP3    H226402   1.994   3.088   2.047 -0.2555  0.3417  1.0032
 1663TIP3   OH226403   4.132   6.215  11.454  0.9504  0.1689 -0.0474
 1663TIP3    H126404   4.209   6.226  11.510 -0.6462  0.0909  2.2377
 1663TIP3    H226405   4.084   6.297  11.464 -0.8009 -0.9669  0.9678
 1664TIP3   OH226406   3.933   6.642  16.537  0.6392  0.5509  0.1650
 1664TIP3    H126407   3.863   6.703  16.559 -0.0756  0.5748 -1.9926
 1664TIP3    H226408   4.005   6.698  16.508  1.0557  0.4761  1.0546
 1665TIP3   OH226409   1.884   5.351   0.597  0.6192 -0.3617 -0.5206
 1665TIP3    H126410   1.906   5.439   0.566  0.4455 -0.1102  0.0628
 1665TIP3    H226411   1.798   5.333   0.558  0.0755  0.2407  0.3875
 1666TIP3   OH226412   2.149   6.156   1.808 -0.8388 -0.6023 -0.4071
 1666TIP3    H126413   2.129   6.249   1.796 -1.7369 -0.8515 -0.9036
 1666TIP3    H226414   2.196   6.130   1.729 -0.8643 -0.6455 -0.4085
 1667TIP3   OH226415   4.555   4.589   0.320 -0.5503 -0.1412  0.4493
 1667TIP3    H126416   4.470   4.613   0.284  0.3979 -0.6030 -2.2260
 1667TIP3    H226417   4.537   4.521   0.384 -2.0850 -1.2331 -1.1041
 1668TIP3   OH226418   4.146   3.425  14.978  0.0084 -0.8152 -0.1882
 1668TIP3    H126419   4.193   3.352  14.938  0.1694 -1.3386  0.9497
 1668TIP3    H226420   4.090   3.385  15.044 -0.4544  0.0209 -0.0657
 1669TIP3   OH226421   1.151   6.683   2.470 -0.0420  0.2338 -0.0205
 1669TIP3    H126422   1.157   6.778   2.470 -2.4960  0.4355 -1.6528
 1669TIP3    H226423   1.204   6.655   2.395  1.7354  0.1910  1.2192
 1670TIP3   OH226424   4.540   2.767   4.163  0.3616  0.7205 -0.2513
 1670TIP3    H126425   4.526   2.688   4.112  0.6117  1.1862 -1.0453
 1670TIP3    H226426   4.556   2.836   4.098 -1.5776  1.7835  0.3474
 1671TIP3   OH226427   3.112   5.843   3.819 -0.3071  0.0402 -0.6718
 1671TIP3    H126428   3.164   5.923   3.810  0.7865 -0.1048  3.4838
 1671TIP3    H226429   3.074   5.848   3.907  0.1821 -4.2180 -0.0924
 1672TIP3   OH226430   1.652   0.607   5.248  0.1473 -0.2496 -0.2009
 1672TIP3    H126431   1.593   0.664   5.200  0.2687 -0.2305 -0.3294
 1672TIP3    H226432   1.670   0.534   5.188  2.7033  1.2768 -1.3873
 1673TIP3   OH226433   2.434   3.693  14.482 -0.2583  0.0727  0.1704
 1673TIP3    H126434   2.412   3.751  14.555  1.8864  0.5182  0.5157
 1673TIP3    H226435   2.386   3.612  14.500  0.7959 -0.0954  2.5094
 1674TIP3   OH226436   0.098   5.652   5.373  0.5098  0.0754 -1.0107
 1674TIP3    H126437   0.066   5.742   5.376  1.7978  0.5494 -1.6161
 1674TIP3    H226438   0.074   5.616   5.459  1.5824  1.5374 -0.0796
 1675TIP3   OH226439   1.648   6.623   2.234 -0.3377  0.0943  0.3655
 1675TIP3    H126440   1.591   6.613   2.311  1.1328  0.8950  1.5793
 1675TIP3    H226441   1.734   6.597   2.264  0.5762  1.9547 -0.5649
 1676TIP3   OH226442   6.703   6.257   0.796  0.0916 -0.5529 -0.6137
 1676TIP3    H126443   6.667   6.175   0.764 -0.4224  0.0410 -1.5616
 1676TIP3    H226444   6.645   6.325   0.762  1.3794  0.3224 -1.1333
 1677TIP3   OH226445   2.527   3.068   4.728 -0.2988 -0.6366 -0.2989
 1677TIP3    H126446   2.619   3.048   4.711 -0.7324 -1.5124 -1.6855
 1677TIP3    H226447   2.500   3.005   4.796 -0.2230 -1.2591 -0.8405
 1678TIP3   OH226448   0.235   0.132   2.918 -0.1855  0.2348  0.3437
 1678TIP3    H126449   0.290   0.065   2.958  0.1031 -0.2985 -0.9071
 1678TIP3    H226450   0.195   0.088   2.843  0.3544  1.5730 -0.7538
 1679TIP3   OH226451   5.827   3.620  17.170  0.4494 -0.3552 -0.2511
 1679TIP3    H126452   5.786   3.567  17.101 -0.5161 -2.0586  1.5510
 1679TIP3    H226453   5.766   3.614  17.244  2.2582 -0.0042  1.3189
 1680TIP3   OH226454   4.040   4.823   1.176 -0.0064  0.0343 -0.3836
 1680TIP3    H126455   4.010   4.788   1.092 -1.4321 -0.4987  0.3272
 1680TIP3    H226456   3.975   4.890   1.198 -0.0997 -0.4068  0.6903
 1681TIP3   OH226457   2.585   2.008  11.870  0.0129  0.3891  0.0010
 1681TIP3    H126458   2.555   2.051  11.790 -0.7049  0.5849  0.3732
 1681TIP3    H226459   2.563   1.916  11.857  1.8090  0.0619 -0.9204
 1682TIP3   OH226460   0.013   2.450  13.653  0.1664 -1.2149 -0.1952
 1682TIP3    H126461   0.089   2.501  13.682 -0.4243 -1.2200  1.4177
 1682TIP3    H226462  -0.044   2.514  13.610 -0.6935 -0.4117  2.0557
 1683TIP3   OH226463   0.924   2.277   1.103  0.6976 -0.7125  0.2094
 1683TIP3    H126464   0.974   2.319   1.034 -2.3366 -0.7523 -2.1173
 1683TIP3    H226465   0.845   2.244   1.060 -0.0183 -3.1869  3.1663
 1684TIP3   OH226466   0.015   0.212   3.461 -0.0776 -0.4528 -0.1114
 1684TIP3    H126467  -0.039   0.287   3.486  0.6954  0.1167 -0.1097
 1684TIP3    H226468   0.079   0.204   3.532  0.4524 -0.5063 -0.5916
 1685TIP3   OH226469   2.055   3.734  16.734  0.0528 -0.0304 -0.4065
 1685TIP3    H126470   2.005   3.775  16.805  1.0651  1.2539 -0.4209
 1685TIP3    H226471   1.988   3.708  16.671 -0.6515  1.1957 -0.1886
 1686TIP3   OH226472   5.573   1.130  15.863  0.5276  0.5338  0.3961
 1686TIP3    H126473   5.570   1.049  15.915  1.6427 -0.2270 -0.7130
 1686TIP3    H226474   5.544   1.198  15.924 -1.8773 -0.8837  0.9285
 1687TIP3   OH226475   5.940   1.328   2.902  0.2864  0.0345 -0.3969
 1687TIP3    H126476   5.931   1.351   2.809  1.3944  0.9457 -0.2894
 1687TIP3    H226477   5.861   1.277   2.922 -0.9556  1.5742 -1.2955
 1688TIP3   OH226478   5.929   1.792  16.386  0.0823 -0.8025  0.0495
 1688TIP3    H126479   5.854   1.847  16.366  0.9157  1.0453  1.7990
 1688TIP3    H226480   5.972   1.778  16.302  0.5498  2.3064 -0.3012
 1689TIP3   OH226481   0.883   0.775   1.696  0.8755 -0.0736  0.2592
 1689TIP3    H126482   0.870   0.789   1.790  0.5524 -1.7513  0.4782
 1689TIP3    H226483   0.865   0.860   1.657 -1.7445 -0.0086  1.4619
 1690TIP3   OH226484   1.136   0.753   2.163 -0.4751 -0.1644  0.6672
 1690TIP3    H126485   1.089   0.677   2.130 -0.5853 -0.0950  0.6646
 1690TIP3    H226486   1.228   0.734   2.144 -0.7433  0.9925 -1.9824
 1691TIP3   OH226487   0.022   3.112  10.923  0.5984 -0.0590 -0.5641
 1691TIP3    H126488   0.084   3.041  10.938  0.0091 -0.7585 -1.3602
 1691TIP3    H226489  -0.018   3.091  10.839  0.7893  1.5006 -1.0586
 1692TIP3   OH226490   4.389   3.445  11.356 -0.2707  0.0466 -0.1562
 1692TIP3    H126491   4.360   3.363  11.395 -0.2339  0.5224  0.8874
 1692TIP3    H226492   4.336   3.455  11.277 -1.8880  0.1504  0.9277
 1693TIP3   OH226493   1.664   5.449  16.675  0.8090  0.1872 -0.2771
 1693TIP3    H126494   1.728   5.481  16.612  0.9695  1.8755  0.7316
 1693TIP3    H226495   1.705   5.371  16.713  0.9330 -0.5341 -1.8548
 1694TIP3   OH226496   1.731   6.614  11.582 -0.4507 -0.1343  0.0955
 1694TIP3    H126497   1.810   6.661  11.556 -0.6970  0.7100  0.8530
 1694TIP3    H226498   1.694   6.582  11.500  0.8020 -0.7404 -0.2398
 1695TIP3   OH226499   2.720   5.829   1.059 -0.0249  0.1249 -0.1666
 1695TIP3    H126500   2.740   5.742   1.023 -0.4243  0.2468 -0.6789
 1695TIP3    H226501   2.784   5.887   1.017 -0.1824  0.1892 -0.3155
 1696TIP3   OH226502   1.048   3.768  13.584 -0.0665  0.7679 -0.1570
 1696TIP3    H126503   1.016   3.829  13.650  0.0782  0.4604  0.1988
 1696TIP3    H226504   1.140   3.792  13.572 -0.0180  0.6462 -0.0392
 1697TIP3   OH226505   1.634   4.164   0.113  0.2864 -0.5455  0.4216
 1697TIP3    H126506   1.691   4.118   0.051 -0.3650 -0.4287 -0.2668
 1697TIP3    H226507   1.546   4.133   0.092 -0.1846  1.1735 -0.1783
 1698TIP3   OH226508   1.599   4.226   0.462  1.1080  0.0978  0.0727
 1698TIP3    H126509   1.660   4.166   0.505 -0.7598 -1.2909  0.8867
 1698TIP3    H226510   1.539   4.253   0.531 -1.0856 -1.0462 -1.3148
 1699TIP3   OH226511   3.476   6.479   5.569  0.1559  0.3841  0.5843
 1699TIP3    H126512   3.391   6.449   5.602  0.1479  0.9881  1.1225
 1699TIP3    H226513   3.539   6.448   5.634  0.2972  0.3444  0.4283
 1700TIP3   OH226514   6.761   1.855   0.568  0.1141 -0.2657 -0.2974
 1700TIP3    H126515   6.853   1.847   0.593  0.1081 -0.2446 -0.2695
 1700TIP3    H226516   6.717   1.789   0.621 -0.0779  0.6367  0.6916
 1701TIP3   OH226517   1.891   1.135   0.341  0.1062  0.3856 -0.0770
 1701TIP3    H126518   1.937   1.163   0.262 -1.1422  3.9109  0.3687
 1701TIP3    H226519   1.803   1.171   0.331 -0.2571  0.3145  2.6100
 1702TIP3   OH226520   4.757   4.945   5.324 -0.3489  0.1384 -0.1002
 1702TIP3    H126521   4.707   5.009   5.273  0.4825  0.8752 -0.0007
 1702TIP3    H226522   4.831   4.922   5.268 -1.9158 -2.5942 -1.1573
 1703TIP3   OH226523   1.032   1.607   5.202 -0.0075  0.2381  0.1197
 1703TIP3    H126524   1.115   1.559   5.206  1.1949  2.1935 -0.6236
 1703TIP3    H226525   1.001   1.610   5.292  0.5670 -0.7608  0.3584
 1704TIP3   OH226526   6.775   0.467  10.428  0.1475  0.2287 -0.6427
 1704TIP3    H126527   6.695   0.429  10.392 -0.0587 -0.3929  0.4419
 1704TIP3    H226528   6.846   0.423  10.382 -0.1044 -0.8394 -0.0125
 1705TIP3   OH226529   2.740   6.293  16.541 -0.1943 -0.3593  0.2692
 1705TIP3    H126530   2.666   6.343  16.574 -0.6159 -0.1794 -0.9372
 1705TIP3    H226531   2.701   6.216  16.499  0.2601 -0.1062 -0.6500
 1706TIP3   OH226532   5.147   6.419   0.063 -0.1906  0.0585 -0.5381
 1706TIP3    H126533   5.116   6.509   0.067 -1.8507 -0.4514 -1.5049
 1706TIP3    H226534   5.143   6.387   0.153 -0.9264  0.5222 -0.4058
 1707TIP3   OH226535   2.774   4.284   0.703  0.3482 -0.0852 -0.2088
 1707TIP3    H126536   2.686   4.280   0.666  0.0085 -0.9999  0.6667
 1707TIP3    H226537   2.823   4.218   0.655  1.2983  2.2703 -2.5557
 1708TIP3   OH226538   4.071   2.737   3.077 -0.6248 -0.1983  0.3446
 1708TIP3    H126539   4.048   2.651   3.043 -0.0957  0.5647 -2.0976
 1708TIP3    H226540   4.009   2.797   3.034  2.5745  1.2865 -2.5139
 1709TIP3   OH226541   4.226   2.374  15.467  0.1069  0.3510  0.0207
 1709TIP3    H126542   4.201   2.418  15.386 -0.5259  2.0010  1.0815
 1709TIP3    H226543   4.290   2.308  15.440 -2.9831 -1.8006 -2.3267
 1710TIP3   OH226544   6.764   5.959  16.601 -0.1969  0.2429 -0.1634
 1710TIP3    H126545   6.727   5.971  16.688 -0.0979 -1.8943  0.2066
 1710TIP3    H226546   6.695   5.987  16.541 -1.3561 -1.0064  0.5657
 1711TIP3   OH226547   6.054   6.494   2.144  0.0981 -0.2734 -0.3584
 1711TIP3    H126548   6.000   6.464   2.217  1.3223 -1.6233  0.0332
 1711TIP3    H226549   6.138   6.449   2.156  1.2882  1.6934 -1.0062
 1712TIP3   OH226550   4.004   2.943   3.812 -0.1499  0.4418 -0.2282
 1712TIP3    H126551   4.009   2.854   3.847 -1.2565 -1.1490 -3.8803
 1712TIP3    H226552   3.925   2.980   3.852 -1.1991 -1.1990 -0.7496
 1713TIP3   OH226553   0.317   1.831   3.685  0.8324 -0.1017  0.0475
 1713TIP3    H126554   0.347   1.742   3.703  0.6835 -0.0417  0.6176
 1713TIP3    H226555   0.396   1.878   3.658  0.5848 -0.8737 -2.1431
 1714TIP3   OH226556   2.775   4.939   1.305  0.0551 -0.7327 -0.0207
 1714TIP3    H126557   2.766   4.859   1.252 -1.9502 -1.1377  0.8880
 1714TIP3    H226558   2.707   4.997   1.272  1.3382  0.5354 -0.4986
 1715TIP3   OH226559   0.611   0.189   1.766  0.1782 -0.0502 -0.1885
 1715TIP3    H126560   0.684   0.128   1.779 -1.0400 -0.7611  4.0955
 1715TIP3    H226561   0.653   0.273   1.749  2.0036 -0.6606  1.1557
 1716TIP3   OH226562   0.403   5.559  15.278 -0.2159 -0.3932 -0.5987
 1716TIP3    H126563   0.430   5.592  15.363 -0.0359 -1.4044 -0.2482
 1716TIP3    H226564   0.333   5.617  15.249  0.7221  0.8336 -0.4255
 1717TIP3   OH226565   4.461   1.507  11.182 -0.4427 -0.7332  0.2292
 1717TIP3    H126566   4.554   1.509  11.160 -0.8790  0.7944 -1.6305
 1717TIP3    H226567   4.433   1.417  11.162  0.1382 -0.5608 -1.4224
 1718TIP3   OH226568   4.061   5.005   0.518  0.1756  0.2672 -1.0986
 1718TIP3    H126569   4.028   4.920   0.488  1.6802 -0.2562 -1.3636
 1718TIP3    H226570   4.024   5.068   0.456  0.0603 -0.3565 -1.6745
 1719TIP3   OH226571   6.693   2.175  13.941 -0.0051  0.1887  0.1048
 1719TIP3    H126572   6.707   2.185  14.035 -1.8527  0.7803  0.3204
 1719TIP3    H226573   6.656   2.258  13.913 -0.1625 -0.2522 -1.0259
 1720TIP3   OH226574   0.160   6.688   0.323  0.0630 -0.3648 -0.3228
 1720TIP3    H126575   0.211   6.662   0.400  1.4447 -1.2352 -1.5007
 1720TIP3    H226576   0.146   6.782   0.334  2.1069 -0.0620 -0.0455
 1721TIP3   OH226577   0.146   1.439   2.867  0.4511  0.2804  0.1455
 1721TIP3    H126578   0.092   1.477   2.797  0.8488  0.0003 -0.3205
 1721TIP3    H226579   0.162   1.349   2.837 -1.6481 -0.7210  1.8714
 1722TIP3   OH226580   2.945   3.774  12.214  0.2361 -0.0503 -0.3822
 1722TIP3    H126581   2.975   3.685  12.196  0.5496 -0.1042  0.3705
 1722TIP3    H226582   3.000   3.803  12.286  2.1206  1.8228 -2.5123
 1723TIP3   OH226583   4.256   4.816  12.322  0.0708 -0.2142  0.2032
 1723TIP3    H126584   4.263   4.861  12.238  1.9493  3.4657  2.2328
 1723TIP3    H226585   4.323   4.748  12.318  0.5879  0.3468 -1.0114
 1724TIP3   OH226586   5.921   0.498  10.530 -0.0158 -0.4124  0.1159
 1724TIP3    H126587   5.871   0.418  10.513  0.6652 -0.4872 -1.6132
 1724TIP3    H226588   5.883   0.563  10.470  1.4342 -0.2743 -0.6770
 1725TIP3   OH226589   4.266   1.874   1.658 -0.1673  0.4893  0.4630
 1725TIP3    H126590   4.332   1.943   1.668 -0.2084  1.3943 -4.2967
 1725TIP3    H226591   4.317   1.794   1.646 -0.0836  0.1613  2.7912
 1726TIP3   OH226592   0.662   3.306  16.872  0.0610 -0.2108  0.0682
 1726TIP3    H126593   0.616   3.222  16.876 -1.2364  0.5674  2.8522
 1726TIP3    H226594   0.751   3.286  16.901 -0.0971 -0.7353  0.1977
 1727TIP3   OH226595   1.115   0.893  16.076  0.0842  0.0945  0.2318
 1727TIP3    H126596   1.079   0.834  16.010 -1.8398 -0.0056  1.3224
 1727TIP3    H226597   1.163   0.959  16.027 -0.9084 -0.2578 -1.2305
 1728TIP3   OH226598   4.635   1.972  12.174 -0.1119  0.0451  0.0585
 1728TIP3    H126599   4.698   2.042  12.192  0.5237 -0.4500 -0.2335
 1728TIP3    H226600   4.550   2.014  12.182  0.2564  0.7359  0.3896
 1729TIP3   OH226601   3.172   4.010   4.470 -0.5486  0.3544  0.4455
 1729TIP3    H126602   3.147   4.096   4.436 -0.9881 -0.5464 -1.5606
 1729TIP3    H226603   3.112   3.949   4.428  1.6550 -1.2547 -0.4098
 1730TIP3   OH226604   4.412   1.305   3.078 -0.1268 -0.8185  0.0646
 1730TIP3    H126605   4.408   1.393   3.115  1.1893 -0.7941  0.1559
 1730TIP3    H226606   4.430   1.248   3.153 -0.2434 -1.0861 -0.1087
 1731TIP3   OH226607   4.901   0.910  13.157  0.2086  0.2719 -0.0055
 1731TIP3    H126608   4.875   0.968  13.086 -1.1487 -1.8617 -1.2906
 1731TIP3    H226609   4.866   0.951  13.236 -2.4075  0.2500 -1.1024
 1732TIP3   OH226610   0.677   2.482  11.327 -0.2536  0.3689  0.2615
 1732TIP3    H126611   0.613   2.531  11.379 -0.7086  0.5937 -0.4977
 1732TIP3    H226612   0.762   2.514  11.357 -0.5487  1.6772 -0.2725
 1733TIP3   OH226613   1.483   6.381   6.417 -0.1637  0.0182  0.2143
 1733TIP3    H126614   1.505   6.439   6.489  0.4117 -0.8635  0.7558
 1733TIP3    H226615   1.435   6.309   6.457 -2.9236  1.2442 -0.7716
 1734TIP3   OH226616   4.258   6.189   5.394 -0.1115  0.8243  0.2128
 1734TIP3    H126617   4.307   6.154   5.469  0.7360  1.6842  0.0739
 1734TIP3    H226618   4.326   6.223   5.335 -0.8723  1.9582 -0.0198
 1735TIP3   OH226619   2.492   3.835   1.523  0.2279  0.7245 -0.1895
 1735TIP3    H126620   2.513   3.760   1.578 -0.5317  0.6676  0.0358
 1735TIP3    H226621   2.552   3.829   1.449  1.0418  0.6269  0.4734
 1736TIP3   OH226622   0.180   6.038   6.677 -0.4124  0.0624 -0.1044
 1736TIP3    H126623   0.121   6.104   6.714 -0.6550 -0.3671  0.2878
 1736TIP3    H226624   0.252   6.033   6.741  1.2374  2.2491 -1.7154
 1737TIP3   OH226625   0.680   3.075   1.967 -0.7330  0.5672 -0.5506
 1737TIP3    H126626   0.691   3.049   1.875 -0.8285 -0.5635 -0.2541
 1737TIP3    H226627   0.649   3.165   1.963  1.4008  1.2872 -1.5884
 1738TIP3   OH226628   3.787   6.428  13.206  0.3380  0.4366  0.6531
 1738TIP3    H126629   3.705   6.429  13.256 -0.5627  0.4424 -0.8080
 1738TIP3    H226630   3.840   6.361  13.249 -0.1621  0.8954  2.0206
 1739TIP3   OH226631   5.984   5.453   4.108 -0.4539  0.2176  0.5249
 1739TIP3    H126632   6.005   5.431   4.017  1.7599  0.2605  0.9908
 1739TIP3    H226633   5.911   5.515   4.101 -0.5419 -0.0377 -1.2048
 1740TIP3   OH226634   2.542   4.009  15.345  0.1192  0.5152 -0.1608
 1740TIP3    H126635   2.624   3.989  15.390 -0.1613  3.0124  1.5515
 1740TIP3    H226636   2.533   4.104  15.352 -1.6939  0.5762 -2.5068
 1741TIP3   OH226637   1.404   4.956   3.364 -0.3499  0.3149 -0.1098
 1741TIP3    H126638   1.436   4.946   3.453  1.2403 -0.6188 -0.7577
 1741TIP3    H226639   1.400   4.867   3.329  0.5017  0.7674 -1.4378
 1742TIP3   OH226640   3.076   2.775   5.891 -0.5517  0.3783  0.4868
 1742TIP3    H126641   3.036   2.718   5.957  1.6566 -1.1667  0.5356
 1742TIP3    H226642   3.119   2.843   5.941  0.8255 -0.5991  0.6679
 1743TIP3   OH226643   2.666   5.535   4.550 -0.3728  0.9124  0.0838
 1743TIP3    H126644   2.740   5.478   4.531 -0.6794  0.0874  1.2259
 1743TIP3    H226645   2.592   5.495   4.504 -0.2323  1.3849 -0.5521
 1744TIP3   OH226646   6.360   0.788  13.640 -0.8782 -0.1025  0.3092
 1744TIP3    H126647   6.290   0.726  13.618 -0.1355 -0.2287 -1.8237
 1744TIP3    H226648   6.343   0.864  13.584  2.1864 -1.2215 -2.3107
 1745TIP3   OH226649   1.335   1.954   3.903  0.2407 -0.1046  0.7292
 1745TIP3    H126650   1.310   1.897   3.975 -0.2184  1.6078  1.9721
 1745TIP3    H226651   1.387   2.023   3.944 -1.0165  1.5571 -0.3599
 1746TIP3   OH226652   0.336   4.687   0.091  0.5735 -0.4260  0.3691
 1746TIP3    H126653   0.261   4.679   0.150 -0.8438  1.0356 -1.1780
 1746TIP3    H226654   0.297   4.686   0.004  2.5265 -1.2971 -0.5053
 1747TIP3   OH226655   2.250   4.203   1.009 -0.2363 -0.0575 -0.2269
 1747TIP3    H126656   2.325   4.223   1.065 -0.6548  1.3238 -0.1374
 1747TIP3    H226657   2.227   4.113   1.031  0.3597  0.0668  0.9558
 1748TIP3   OH226658   0.822   6.333   1.939 -0.0408 -0.3858  0.6256
 1748TIP3    H126659   0.827   6.309   1.847  3.0781 -1.3175  0.9863
 1748TIP3    H226660   0.733   6.309   1.965 -0.4322 -1.6425 -1.7206
 1749TIP3   OH226661   3.179   2.693  10.867 -0.3325 -0.1087 -0.3316
 1749TIP3    H126662   3.152   2.766  10.811 -0.8336  1.0432  1.3823
 1749TIP3    H226663   3.100   2.640  10.878 -0.1749 -0.4713 -0.8672
 1750TIP3   OH226664   3.792   3.613   1.361  0.4108 -0.3894 -0.5529
 1750TIP3    H126665   3.877   3.651   1.338 -0.6715  0.9182 -2.5649
 1750TIP3    H226666   3.761   3.666   1.434  0.6130  0.1701 -0.8699
 1751TIP3   OH226667   4.352   5.008  16.757  0.6139  0.4320  0.5674
 1751TIP3    H126668   4.365   4.971  16.845 -1.0533  0.0665  0.6768
 1751TIP3    H226669   4.397   4.947  16.698 -1.6110 -1.5254  0.7996
 1752TIP3   OH226670   1.506   6.117   5.063 -0.1359  0.0102 -0.4851
 1752TIP3    H126671   1.546   6.030   5.062  0.1629  0.1498 -0.4143
 1752TIP3    H226672   1.570   6.174   5.021  0.4970  0.5753  1.2245
 1753TIP3   OH226673   5.965   2.746   1.522  0.3051  0.4267 -0.5737
 1753TIP3    H126674   6.057   2.745   1.495  0.1720  0.5239 -1.0235
 1753TIP3    H226675   5.944   2.839   1.531  0.4111  0.3945  0.0809
 1754TIP3   OH226676   5.507   3.289   1.450  0.0075 -0.1027 -0.7966
 1754TIP3    H126677   5.592   3.311   1.488 -0.3842  0.4588 -0.2311
 1754TIP3    H226678   5.482   3.208   1.494  1.6267 -1.9133 -3.1593
 1755TIP3   OH226679   4.655   5.390   1.543  0.0416 -0.2284 -0.1451
 1755TIP3    H126680   4.730   5.378   1.601  0.1126  2.1795  0.3116
 1755TIP3    H226681   4.586   5.336   1.582  1.3597 -2.0711 -0.2906
 1756TIP3   OH226682   2.679   2.827  11.940  0.4390 -0.5525  0.3927
 1756TIP3    H126683   2.761   2.782  11.919  0.8174  0.3361 -0.0479
 1756TIP3    H226684   2.706   2.902  11.992 -0.0536  0.0157 -0.1664
 1757TIP3   OH226685   4.074   0.981   3.637  0.1800 -0.8694 -0.1168
 1757TIP3    H126686   4.075   0.960   3.730  1.1238  0.1000  0.0938
 1757TIP3    H226687   4.102   0.901   3.593  1.3155 -0.8235  0.5300
 1758TIP3   OH226688   5.432   1.936   3.059 -0.0056 -0.2039 -0.2991
 1758TIP3    H126689   5.451   2.030   3.063  0.0742 -0.3062  2.1664
 1758TIP3    H226690   5.518   1.894   3.069 -0.1511 -0.5535 -0.4951
 1759TIP3   OH226691   5.987   3.563   4.101 -0.0658 -0.7179  0.8087
 1759TIP3    H126692   5.970   3.491   4.161 -0.2452 -1.3065  0.0619
 1759TIP3    H226693   5.926   3.632   4.127 -0.5229 -1.1791  0.9469
 1760TIP3   OH226694   2.100   0.669   1.964 -0.3013 -0.3102  0.4624
 1760TIP3    H126695   2.142   0.735   1.908 -1.7955 -1.1691 -1.7233
 1760TIP3    H226696   2.097   0.710   2.050  0.5358  1.7177 -0.4280
 1761TIP3   OH226697   3.389   6.686  13.480  0.7312 -0.2605  0.2064
 1761TIP3    H126698   3.399   6.625  13.553  0.1665 -0.7319 -0.1064
 1761TIP3    H226699   3.446   6.652  13.411  0.0441 -0.7083 -0.1423
 1762TIP3   OH226700   4.191   5.340   0.366  0.2043  0.6879 -0.1479
 1762TIP3    H126701   4.195   5.343   0.270  2.5713  0.5150 -0.0797
 1762TIP3    H226702   4.125   5.273   0.385  0.6146 -0.1537 -1.6501
 1763TIP3   OH226703   1.343   6.196  11.664  0.1007  0.0424  0.0960
 1763TIP3    H126704   1.411   6.248  11.623 -1.6568  1.6423 -0.8507
 1763TIP3    H226705   1.276   6.259  11.690 -1.4464 -1.5680  0.1652
 1764TIP3   OH226706   1.305   3.899   2.783  0.2882  0.0604  0.0183
 1764TIP3    H126707   1.286   3.807   2.801  1.8385 -0.5821 -1.4725
 1764TIP3    H226708   1.228   3.931   2.737 -0.0178 -0.6324  0.0370
 1765TIP3   OH226709   6.338   0.960  16.695 -0.4138 -1.3149  0.1751
 1765TIP3    H126710   6.352   0.866  16.682  0.3234 -1.7108  3.3758
 1765TIP3    H226711   6.424   0.993  16.722 -1.0841 -0.0443  0.7880
 1766TIP3   OH226712   6.566   2.632   4.244  0.4542 -0.0462 -0.0983
 1766TIP3    H126713   6.492   2.657   4.188 -0.8135 -0.0886  1.5199
 1766TIP3    H226714   6.531   2.635   4.333  2.5438  0.4028  0.7419
 1767TIP3   OH226715   3.853   4.199  16.891  0.2947  1.1122  0.2794
 1767TIP3    H126716   3.918   4.143  16.932  1.9322  2.9131  0.2155
 1767TIP3    H226717   3.842   4.273  16.951 -2.3383  0.4585  0.6947
 1768TIP3   OH226718   0.214   0.211   5.689  0.0260 -0.0453 -0.1797
 1768TIP3    H126719   0.246   0.139   5.743 -0.8596 -1.3028 -1.2977
 1768TIP3    H226720   0.246   0.290   5.733  1.9149 -1.1352  0.4832
 1769TIP3   OH226721   0.379   5.129  12.615  1.3015  0.0803 -0.1890
 1769TIP3    H126722   0.412   5.069  12.682  1.5509  1.1144  0.6228
 1769TIP3    H226723   0.431   5.208  12.626  0.4140  0.7428 -0.7158
 1770TIP3   OH226724   2.088   0.552  12.853  0.2055 -0.1318 -0.0256
 1770TIP3    H126725   2.038   0.471  12.859 -1.1185  0.8366  2.8486
 1770TIP3    H226726   2.039   0.614  12.907  1.1751  2.6085 -2.1832
 1771TIP3   OH226727   6.232   3.560  15.427 -0.1388  0.7359  0.6414
 1771TIP3    H126728   6.211   3.467  15.433 -0.5580  0.8226  0.5293
 1771TIP3    H226729   6.272   3.569  15.340  0.9556  0.4616  1.0946
 1772TIP3   OH226730   2.855   4.677   1.968  0.9051  0.0918  0.1535
 1772TIP3    H126731   2.830   4.665   1.877  0.6053  0.3576  0.2031
 1772TIP3    H226732   2.939   4.630   1.976  0.7281 -0.2785 -0.1536
 1773TIP3   OH226733   0.094   4.802   1.468 -0.3853  0.0165 -0.1951
 1773TIP3    H126734   0.101   4.732   1.532 -2.3399 -1.5280 -1.5976
 1773TIP3    H226735   0.181   4.808   1.428  0.6561  0.5358  2.0769
 1774TIP3   OH226736   2.894   6.401  12.043  0.3479  0.2889 -0.1919
 1774TIP3    H126737   2.890   6.432  12.134  1.1184 -1.0349  0.2988
 1774TIP3    H226738   2.947   6.466  11.998  1.1512  0.2037  0.6217
 1775TIP3   OH226739   0.514   5.064   3.795 -0.3235  0.7896 -0.1398
 1775TIP3    H126740   0.593   5.119   3.795 -0.7628  1.4386  0.2317
 1775TIP3    H226741   0.496   5.048   3.888  0.5580 -1.1047 -0.2872
 1776TIP3   OH226742   1.123   1.335  13.985 -0.0353  0.1165  0.8066
 1776TIP3    H126743   1.211   1.362  14.011 -0.3258  1.2590  0.6260
 1776TIP3    H226744   1.134   1.299  13.897  0.3494 -0.3602  1.0432
 1777TIP3   OH226745   2.564   1.693   4.736  0.0190  0.4347  0.2607
 1777TIP3    H126746   2.603   1.662   4.654 -4.1598 -0.8361 -1.3838
 1777TIP3    H226747   2.568   1.789   4.729  2.7173  0.3388  0.1405
 1778TIP3   OH226748   2.148   4.766   4.008  0.7357  0.3519  0.5114
 1778TIP3    H126749   2.059   4.732   4.014 -0.1018  1.5345 -3.6862
 1778TIP3    H226750   2.139   4.848   3.958  3.6758  2.6956  3.6048
 1779TIP3   OH226751   5.811   2.729  13.269 -0.0506  0.2016  0.0488
 1779TIP3    H126752   5.720   2.699  13.261 -0.0192 -0.2443  1.2916
 1779TIP3    H226753   5.851   2.667  13.330  0.7169  1.2399  0.6065
 1780TIP3   OH226754   2.482   0.477  13.195 -0.2334  0.1910 -0.1236
 1780TIP3    H126755   2.433   0.544  13.244 -0.0529 -0.7492  1.3814
 1780TIP3    H226756   2.460   0.493  13.103  1.0882  3.3559  0.0378
 1781TIP3   OH226757   6.079   0.959  16.577 -0.1057  0.1520 -0.2691
 1781TIP3    H126758   6.103   0.876  16.536  1.0898  0.1448  0.4374
 1781TIP3    H226759   6.160   0.992  16.615 -0.7487  1.2358  0.1910
 1782TIP3   OH226760   4.344   4.390   6.089  0.8396 -0.4519 -0.0723
 1782TIP3    H126761   4.385   4.470   6.122 -0.2535 -0.7078  2.0450
 1782TIP3    H226762   4.417   4.329   6.077  1.2608 -0.6250  2.8121
 1783TIP3   OH226763   4.734   2.551   4.627  0.4572  0.2929  0.3696
 1783TIP3    H126764   4.770   2.610   4.561 -0.7159  0.6711  0.0479
 1783TIP3    H226765   4.639   2.560   4.618  0.2763 -0.4202  1.4227
 1784TIP3   OH226766   5.771   2.678   2.272 -0.9841 -0.6007 -0.1188
 1784TIP3    H126767   5.699   2.717   2.321 -1.2404 -2.1285  0.7765
 1784TIP3    H226768   5.731   2.607   2.222 -0.1187 -1.4457  0.3706
 1785TIP3   OH226769   2.665   0.984   5.496  0.5035  0.1945 -0.3294
 1785TIP3    H126770   2.610   0.980   5.417  0.6329  0.3135 -0.4254
 1785TIP3    H226771   2.753   0.963   5.464  0.7424  1.3053 -0.3920
 1786TIP3   OH226772   0.655   2.995   4.972  0.3151 -0.1228  0.2209
 1786TIP3    H126773   0.583   2.934   4.960  1.3120 -1.8672  2.6805
 1786TIP3    H226774   0.622   3.057   5.037  1.4497 -1.7232  2.3830
 1787TIP3   OH226775   0.800   6.281  14.996 -0.1333 -0.1717 -0.4071
 1787TIP3    H126776   0.883   6.308  15.036  1.8971 -1.2591 -3.6602
 1787TIP3    H226777   0.766   6.360  14.955  0.9944 -0.3919 -1.8223
 1788TIP3   OH226778   2.080   2.508   5.803  0.0394 -0.0690  0.3196
 1788TIP3    H126779   2.044   2.508   5.714 -0.6563 -2.0661  0.5779
 1788TIP3    H226780   2.012   2.550   5.855 -1.1886 -2.1843  0.4917
 1789TIP3   OH226781   6.136   4.644  11.744 -0.5965  0.4632 -0.2787
 1789TIP3    H126782   6.149   4.727  11.698 -0.1291  0.2687 -0.5041
 1789TIP3    H226783   6.168   4.578  11.683  0.7569  0.2602  0.6247
 1790TIP3   OH226784   6.787   2.343   1.166  0.3764  0.0267  0.5578
 1790TIP3    H126785   6.843   2.333   1.089 -0.4385  1.8520 -0.3019
 1790TIP3    H226786   6.839   2.309   1.239  2.1648  0.6372 -0.4182
 1791TIP3   OH226787   6.183   1.335   2.350  0.2684  0.1051  0.1534
 1791TIP3    H126788   6.265   1.300   2.315  0.7961  2.5389 -1.1455
 1791TIP3    H226789   6.139   1.373   2.275 -1.7576 -0.5491  0.9682
 1792TIP3   OH226790   1.352   1.270  12.803 -0.1521  0.4498 -0.3525
 1792TIP3    H126791   1.431   1.220  12.783  0.6084  1.0586  1.1053
 1792TIP3    H226792   1.295   1.209  12.850 -0.2896  0.2111 -0.8210
 1793TIP3   OH226793   4.177   2.076  12.693 -0.4852 -0.4092  0.5505
 1793TIP3    H126794   4.252   2.018  12.697  0.7553  1.0645 -0.5897
 1793TIP3    H226795   4.212   2.163  12.709 -1.8544  0.3628 -0.4794
 1794TIP3   OH226796   3.922   4.653  15.312  0.0215  0.2548 -0.5039
 1794TIP3    H126797   3.914   4.707  15.390 -1.7040 -2.8870  1.6287
 1794TIP3    H226798   4.012   4.620  15.314  0.1547  0.6352 -0.1644
 1795TIP3   OH226799   2.853   3.642  16.067  0.2945  0.3187 -0.1225
 1795TIP3    H126800   2.891   3.562  16.101  1.0766  0.8060  0.1607
 1795TIP3    H226801   2.792   3.613  15.999 -0.0514 -0.5615  0.5511
 1796TIP3   OH226802   2.089   5.507  15.290  0.0364  0.3685 -0.0397
 1796TIP3    H126803   2.022   5.477  15.229  0.1758 -0.4556  0.2079
 1796TIP3    H226804   2.152   5.434  15.294  1.0632  1.2238 -0.4517
 1797TIP3   OH226805   0.091   6.398   0.315 -0.0738 -0.3357  0.3052
 1797TIP3    H126806   0.111   6.484   0.276  2.3101 -0.9378  0.0973
 1797TIP3    H226807   0.056   6.418   0.401 -2.0149  0.9096 -0.7277
 1798TIP3   OH226808   4.643   0.963   5.218 -0.1004  0.0129  0.3270
 1798TIP3    H126809   4.728   0.922   5.236 -0.2394 -0.5853 -0.3496
 1798TIP3    H226810   4.609   0.915   5.142 -0.4466  1.1203 -0.2247
 1799TIP3   OH226811   1.283   3.191  14.656  0.2384  0.0819 -0.1589
 1799TIP3    H126812   1.198   3.188  14.612 -0.5823  3.2945  1.0554
 1799TIP3    H226813   1.264   3.162  14.746  0.9844 -1.8660 -0.6121
 1800TIP3   OH226814   3.408   6.395   4.554 -0.1042  0.2819 -0.0432
 1800TIP3    H126815   3.438   6.305   4.566 -0.4623  0.1140 -0.3800
 1800TIP3    H226816   3.322   6.397   4.598 -0.0886  0.4656 -0.0197
 1801TIP3   OH226817   5.444   1.405   5.233 -0.7199  0.2078  0.1769
 1801TIP3    H126818   5.533   1.422   5.264 -0.9944  0.9829  0.5374
 1801TIP3    H226819   5.398   1.488   5.243 -1.9597 -0.6013  1.5965
 1802TIP3   OH226820   0.758   4.261  15.202  0.3631  0.2958 -0.0125
 1802TIP3    H126821   0.721   4.173  15.216 -0.4023  0.9702  2.3595
 1802TIP3    H226822   0.803   4.254  15.118 -1.0694 -1.9160 -0.6549
 1803TIP3   OH226823   5.219   1.689  13.178  0.2398 -0.4030 -0.6808
 1803TIP3    H126824   5.262   1.607  13.154  1.8163  0.7288 -1.8979
 1803TIP3    H226825   5.149   1.699  13.113  0.3842 -0.5328 -0.8581
 1804TIP3   OH226826   1.379   4.231  16.930 -1.0789  0.1428  0.3842
 1804TIP3    H126827   1.375   4.151  16.982 -1.0619  0.4650  0.8882
 1804TIP3    H226828   1.287   4.249  16.906 -1.0121 -0.3863 -0.2937
 1805TIP3   OH226829   0.998   0.852   5.559  0.1612 -0.0265  0.7193
 1805TIP3    H126830   0.917   0.902   5.570 -0.0104  0.3221 -1.8038
 1805TIP3    H226831   1.064   0.919   5.538  1.2314 -0.2548  3.2069
 1806TIP3   OH226832   1.201   3.758  17.164 -0.3030 -0.5269  0.2034
 1806TIP3    H126833   1.245   3.710  17.234  1.2436 -0.9778 -1.0455
 1806TIP3    H226834   1.178   3.691  17.099  1.1017  0.2568 -1.1473
 1807TIP3   OH226835   2.256   5.360  13.073  0.6555  0.2258  0.4656
 1807TIP3    H126836   2.224   5.443  13.037 -1.0998  0.1935  1.8890
 1807TIP3    H226837   2.222   5.294  13.013  0.5187  0.4100  0.3371
 1808TIP3   OH226838   6.014   1.674  14.235 -0.1649  0.2550 -0.4809
 1808TIP3    H126839   6.081   1.736  14.263 -0.1106 -0.5712  1.3556
 1808TIP3    H226840   6.044   1.642  14.150  0.5603  1.6213 -0.7472
 1809TIP3   OH226841   0.833   4.545   4.127  0.6976  0.3998  0.4856
 1809TIP3    H126842   0.744   4.544   4.162  0.8985  0.3498  0.9976
 1809TIP3    H226843   0.828   4.493   4.046  0.2478  0.4638  0.4714
 1810TIP3   OH226844   3.815   4.333   5.431 -0.0818 -0.1069  0.5094
 1810TIP3    H126845   3.727   4.297   5.422  0.4733 -1.0069 -1.6747
 1810TIP3    H226846   3.804   4.427   5.420 -0.8322 -0.1580  0.8137
 1811TIP3   OH226847   4.507   1.504   5.219 -0.2616  0.0062 -0.4215
 1811TIP3    H126848   4.525   1.414   5.193 -0.4219 -0.3383  0.6264
 1811TIP3    H226849   4.415   1.518   5.197 -0.3245 -0.1975 -0.2912
 1812TIP3   OH226850   4.453   1.688  13.051  0.5201 -0.1493 -0.2780
 1812TIP3    H126851   4.540   1.724  13.037  0.6559  0.4541  1.8938
 1812TIP3    H226852   4.445   1.680  13.146 -2.4884  1.5379 -0.3253
 1813TIP3   OH226853   3.427   1.634  14.503  0.4824 -0.2026  0.1671
 1813TIP3    H126854   3.475   1.702  14.456  0.6556 -1.1882 -1.1134
 1813TIP3    H226855   3.491   1.595  14.562  0.6015  0.1683  0.2849
 1814TIP3   OH226856   5.869   1.312   6.348 -0.0803  0.8014  0.0380
 1814TIP3    H126857   5.964   1.316   6.358 -0.1131 -3.0610  2.7672
 1814TIP3    H226858   5.836   1.384   6.402  1.1956  1.3648  0.0869
 1815TIP3   OH226859   6.494   2.382  15.073 -0.1067  0.2118  0.0786
 1815TIP3    H126860   6.512   2.475  15.083  1.7928 -0.1187 -0.1303
 1815TIP3    H226861   6.440   2.377  14.994 -0.5660  1.1650  0.3239
 1816TIP3   OH226862   1.984   5.179  11.715  0.0493  0.6052  0.5978
 1816TIP3    H126863   1.900   5.214  11.747 -0.3248 -0.2319  0.5335
 1816TIP3    H226864   2.040   5.177  11.793 -0.0680  0.9394  0.6907
 1817TIP3   OH226865   5.038   3.797   2.864  0.0205  0.2103  0.1841
 1817TIP3    H126866   5.013   3.832   2.779  3.0504  0.9803 -0.4649
 1817TIP3    H226867   5.085   3.868   2.907  0.6462 -0.9479  1.4725
 1818TIP3   OH226868   4.780   4.963   6.681  0.0244  0.1154  0.0731
 1818TIP3    H126869   4.846   4.923   6.626 -1.0588 -0.7380 -0.6252
 1818TIP3    H226870   4.779   4.910   6.760 -0.0449 -0.0530 -0.0421
 1819TIP3   OH226871   3.132   1.679  13.276  0.0259 -0.2316 -0.2359
 1819TIP3    H126872   3.114   1.692  13.369  1.2432 -1.0461  0.1311
 1819TIP3    H226873   3.158   1.587  13.268 -1.2290 -0.4917 -1.5806
 1820TIP3   OH226874   6.610   5.260   2.638 -0.1130  0.4837  0.1438
 1820TIP3    H126875   6.559   5.180   2.623 -2.0823  1.6354  0.6020
 1820TIP3    H226876   6.651   5.278   2.553 -1.0811 -0.0277 -0.4383
 1821TIP3   OH226877   4.940   6.531   3.246  0.0809  0.8043 -0.5393
 1821TIP3    H126878   4.903   6.560   3.329 -1.3741 -0.5924 -0.6549
 1821TIP3    H226879   5.029   6.565   3.245 -0.5674  2.5948  0.6570
 1822TIP3   OH226880   4.209   0.370  11.980 -0.5189 -0.0954 -0.2665
 1822TIP3    H126881   4.165   0.343  12.061  0.7655  0.4902  0.6452
 1822TIP3    H226882   4.302   0.356  11.997 -0.1970  0.4999 -1.4636
 1823TIP3   OH226883   0.479   0.212  13.533 -0.2654  0.3330 -0.1155
 1823TIP3    H126884   0.469   0.290  13.479  1.6758  0.1356 -0.7772
 1823TIP3    H226885   0.427   0.231  13.611  1.5286  3.0272  0.4964
 1824TIP3   OH226886   6.705   4.534  16.173  0.1154  0.6562  0.1549
 1824TIP3    H126887   6.650   4.565  16.244  0.9249  0.8429  0.7131
 1824TIP3    H226888   6.650   4.539  16.095  0.4548  4.2960  0.0811
 1825TIP3   OH226889   3.032   3.206   0.200  0.6480 -0.1200 -0.2368
 1825TIP3    H126890   3.070   3.199   0.288  0.5936 -0.3582 -0.2315
 1825TIP3    H226891   2.938   3.210   0.215  0.5530 -1.8151 -0.3745
 1826TIP3   OH226892   1.984   2.241  13.601  0.3824 -0.2487  0.0556
 1826TIP3    H126893   1.961   2.319  13.552  2.6514  1.1321  1.0893
 1826TIP3    H226894   2.077   2.228  13.583  0.6997 -1.0795  2.0884
 1827TIP3   OH226895   5.501   1.142  13.248 -0.3184 -0.1403  0.2444
 1827TIP3    H126896   5.408   1.129  13.266 -0.2857 -0.0341  0.4900
 1827TIP3    H226897   5.520   1.230  13.282 -0.0554 -0.2857  0.4678
 1828TIP3   OH226898   4.230   2.258  11.361  0.2981  0.0344 -0.0218
 1828TIP3    H126899   4.183   2.326  11.410 -0.5449  0.1873 -1.0322
 1828TIP3    H226900   4.167   2.187  11.353  1.1218 -0.8083  0.8808
 1829TIP3   OH226901   2.650   1.258  11.979  0.7612  0.4365  0.7530
 1829TIP3    H126902   2.614   1.283  11.894 -0.0976 -0.3021  0.9017
 1829TIP3    H226903   2.672   1.342  12.021 -0.0164  0.8538  0.3338
 1830TIP3   OH226904   5.567   2.766   3.111 -0.3692 -0.5386  0.4584
 1830TIP3    H126905   5.649   2.725   3.138  2.2063  2.3929 -2.4579
 1830TIP3    H226906   5.539   2.715   3.034  1.0669  1.0404 -1.1512
 1831TIP3   OH226907   6.389   0.418   0.486 -0.1409  0.0152 -0.2245
 1831TIP3    H126908   6.352   0.390   0.569  0.2626 -0.7513 -0.2934
 1831TIP3    H226909   6.409   0.511   0.498 -1.8903  0.3840 -0.1358
 1832TIP3   OH226910   3.187   0.715  11.687  0.3479 -0.1326 -0.0219
 1832TIP3    H126911   3.216   0.801  11.656  1.5093 -1.2677 -2.2074
 1832TIP3    H226912   3.092   0.725  11.700  0.4624  1.4553 -0.3005
 1833TIP3   OH226913   1.914   0.948   1.958  0.1727  0.0524  0.4768
 1833TIP3    H126914   1.896   0.872   1.903 -1.6869  0.5992  0.2892
 1833TIP3    H226915   1.947   1.014   1.898 -3.0363  1.0683 -0.2527
 1834TIP3   OH226916   3.652   2.395   3.788  0.2693 -0.2902 -0.4426
 1834TIP3    H126917   3.734   2.429   3.753  0.5820 -1.0151 -0.4225
 1834TIP3    H226918   3.678   2.320   3.841 -0.0459  1.6019  2.5377
 1835TIP3   OH226919   5.593   0.219   4.030  0.7594  0.2187 -0.2598
 1835TIP3    H126920   5.513   0.189   3.987  0.3782  1.9952 -0.8219
 1835TIP3    H226921   5.635   0.139   4.060 -0.7040 -0.8105 -0.8859
 1836TIP3   OH226922   1.928   0.242   2.561  0.2694  1.0388 -0.1280
 1836TIP3    H126923   1.841   0.267   2.532 -0.0987  0.1633  0.1882
 1836TIP3    H226924   1.919   0.150   2.587  1.6347  0.5073 -1.4861
 1837TIP3   OH226925   5.433   1.651  11.901 -0.1269 -0.2037  0.3110
 1837TIP3    H126926   5.391   1.623  11.982  1.2511  1.8413  1.7582
 1837TIP3    H226927   5.521   1.679  11.926  2.0359 -3.9367 -2.6069
 1838TIP3   OH226928   0.300   4.075   3.714 -0.3754  0.2014 -0.4333
 1838TIP3    H126929   0.241   4.028   3.774  0.6936 -0.3158  0.2223
 1838TIP3    H226930   0.299   4.023   3.634 -1.4428  0.6364 -0.7110
 1839TIP3   OH226931   5.621   5.908   0.530 -0.1842  0.0219 -0.1452
 1839TIP3    H126932   5.563   5.984   0.532 -0.4459 -0.1940  2.4959
 1839TIP3    H226933   5.564   5.835   0.504 -0.3069  0.4206 -1.0048
 1840TIP3   OH226934   1.139   4.182  16.208  0.4185  0.4498 -0.0623
 1840TIP3    H126935   1.225   4.192  16.247  0.9675  0.3104 -1.2005
 1840TIP3    H226936   1.092   4.262  16.231  1.2477  1.0431 -0.4180
 1841TIP3   OH226937   1.404   3.334  13.965  0.3906  0.1504 -0.7634
 1841TIP3    H126938   1.420   3.419  13.924  3.1269  0.4596  0.7868
 1841TIP3    H226939   1.488   3.288  13.957  0.0202 -0.9916  1.6554
 1842TIP3   OH226940   1.749   3.841   2.740 -0.1706 -0.6152 -0.1448
 1842TIP3    H126941   1.761   3.778   2.811 -1.4534 -0.5143  0.1819
 1842TIP3    H226942   1.670   3.889   2.764 -0.5692 -0.5157 -1.6025
 1843TIP3   OH226943   4.695   0.489   2.509 -0.0530 -1.0998  0.1949
 1843TIP3    H126944   4.736   0.562   2.556 -0.8693  0.1914 -1.0683
 1843TIP3    H226945   4.726   0.499   2.419 -0.6377 -1.9923 -0.1077
 1844TIP3   OH226946   0.593   3.556  16.005 -0.5967  0.0315 -0.7622
 1844TIP3    H126947   0.564   3.552  16.096 -1.3403  0.0132 -1.0028
 1844TIP3    H226948   0.539   3.491  15.960  0.2273 -0.4324 -1.0914
 1845TIP3   OH226949   4.856   6.629  10.387  0.2867 -0.6081 -0.1937
 1845TIP3    H126950   4.762   6.649  10.388  0.5601  0.7842 -1.3804
 1845TIP3    H226951   4.897   6.701  10.435  1.0254  0.4658 -2.3459
 1846TIP3   OH226952   0.878   3.586  13.918 -0.7772  0.4206 -0.2117
 1846TIP3    H126953   0.862   3.632  13.836 -0.0885  0.1955 -0.4749
 1846TIP3    H226954   0.908   3.499  13.892 -2.1811 -0.2278  0.2803
 1847TIP3   OH226955   2.965   2.918  12.665  0.1346  0.1899  0.3708
 1847TIP3    H126956   2.953   2.839  12.717 -0.1103  0.5562  0.8694
 1847TIP3    H226957   2.903   2.908  12.592 -0.1330  0.0767  0.6132
 1848TIP3   OH226958   4.173   5.009  11.237  0.0447 -0.2142  0.2315
 1848TIP3    H126959   4.232   5.013  11.162  2.0777 -0.3069  1.7680
 1848TIP3    H226960   4.088   5.037  11.203  1.2631  1.2039 -1.7471
 1849TIP3   OH226961   0.698   2.398   5.216  0.5071 -0.5719 -0.9174
 1849TIP3    H126962   0.714   2.342   5.139  0.4905 -1.3544 -0.3527
 1849TIP3    H226963   0.786   2.419   5.248  0.5466  0.5837 -1.7310
 1850TIP3   OH226964   5.260   6.554   5.742 -0.2708 -0.5344 -1.6272
 1850TIP3    H126965   5.227   6.465   5.754 -1.9728 -0.0252 -2.2989
 1850TIP3    H226966   5.200   6.608   5.794  0.7722  0.2284 -1.1917
 1851TIP3   OH226967   1.348   5.318  15.067 -0.0464 -0.4865 -0.3547
 1851TIP3    H126968   1.296   5.314  15.147  0.5776 -1.8386 -0.0071
 1851TIP3    H226969   1.291   5.279  15.000 -1.4280  2.6132 -1.0761
 1852TIP3   OH226970   2.561   0.795  13.223  0.2305 -0.2981 -0.0300
 1852TIP3    H126971   2.510   0.806  13.304 -2.2598 -0.2686 -1.5629
 1852TIP3    H226972   2.652   0.788  13.253 -0.5310  0.7857  2.7007
 1853TIP3   OH226973   6.165   3.636  15.999 -0.1962 -0.0975  0.1823
 1853TIP3    H126974   6.106   3.570  16.036 -1.0241  0.0650 -0.8040
 1853TIP3    H226975   6.107   3.698  15.955  0.7384 -0.3454 -1.4642
 1854TIP3   OH226976   2.128   4.749  15.191  0.1629 -0.4708 -0.0697
 1854TIP3    H126977   2.082   4.703  15.261 -1.1509 -0.3258 -0.8091
 1854TIP3    H226978   2.166   4.680  15.137  1.0567 -0.5854  0.7186
 1855TIP3   OH226979   2.899   2.433  17.179  0.7629  0.6589 -0.1182
 1855TIP3    H126980   2.842   2.503  17.148 -0.7163 -0.2283  0.5463
 1855TIP3    H226981   2.964   2.477  17.234  2.5277  2.0563 -3.2427
 1856TIP3   OH226982   0.717   5.116   3.513 -0.6366 -0.1730 -0.7594
 1856TIP3    H126983   0.792   5.087   3.460 -1.5357 -0.2858 -1.9914
 1856TIP3    H226984   0.688   5.038   3.560 -1.1543 -0.5694 -1.7320
 1857TIP3   OH226985   1.668   1.380   2.485 -0.5463 -0.4486 -0.1663
 1857TIP3    H126986   1.594   1.364   2.426 -1.1754  2.5550 -0.2667
 1857TIP3    H226987   1.671   1.475   2.495  2.6023 -0.5840  0.7680
 1858TIP3   OH226988   5.056   0.609   2.325  0.1464  0.3040 -0.6729
 1858TIP3    H126989   5.040   0.678   2.389 -0.7365  0.0020 -0.5658
 1858TIP3    H226990   5.129   0.642   2.272  1.5056  0.1461  1.0678
 1859TIP3   OH226991   5.257   5.803  17.129  0.6385  0.3425  0.1059
 1859TIP3    H126992   5.346   5.839  17.131  0.9399 -0.2916 -1.3514
 1859TIP3    H226993   5.266   5.720  17.082  0.0076 -1.8651  3.6549
 1860TIP3   OH226994   4.083   5.660   5.775  0.0509  0.8377  0.6227
 1860TIP3    H126995   4.051   5.746   5.749  0.4198  0.7369 -0.2016
 1860TIP3    H226996   4.008   5.617   5.815 -0.1462  1.5245  0.9904
 1861TIP3   OH226997   0.792   0.623  11.766 -0.6481 -0.6325  0.7643
 1861TIP3    H126998   0.796   0.549  11.827  0.1110 -1.8207 -0.6731
 1861TIP3    H226999   0.861   0.604  11.702 -2.6818 -0.4342 -1.5619
 1862TIP3   OH227000   4.311   3.870  13.359  0.4122  0.7135  0.0307
 1862TIP3    H127001   4.323   3.846  13.451 -1.3376 -0.2616  0.0249
 1862TIP3    H227002   4.286   3.963  13.362  0.8791  0.8233  0.5100
 1863TIP3   OH227003   1.869   3.188   3.442 -0.2338  0.0488 -0.4866
 1863TIP3    H127004   1.816   3.177   3.363 -1.2543 -1.4677  0.3863
 1863TIP3    H227005   1.805   3.203   3.512  0.6525  1.1547  0.1102
 1864TIP3   OH227006   0.566   0.915   0.530 -0.6724 -0.1353  0.1006
 1864TIP3    H127007   0.646   0.936   0.482 -0.6130  2.4334  1.2592
 1864TIP3    H227008   0.495   0.932   0.469 -0.4154 -1.1018 -0.4790
 1865TIP3   OH227009   5.977   4.156   3.937  0.2721  0.7639 -0.0693
 1865TIP3    H127010   5.975   4.114   3.852  0.0244  0.2080  0.2094
 1865TIP3    H227011   6.041   4.107   3.987 -1.0691 -0.2179  0.7324
 1866TIP3   OH227012   0.487   0.756  14.620 -0.4103 -0.0780  0.0793
 1866TIP3    H127013   0.566   0.788  14.575 -0.4745 -0.1500 -0.0859
 1866TIP3    H227014   0.433   0.834  14.632 -0.6335 -0.1431 -0.4561
 1867TIP3   OH227015   0.645   1.570  10.983  0.0796  0.3703  0.3674
 1867TIP3    H127016   0.586   1.604  11.051  0.7610  0.6190  0.8410
 1867TIP3    H227017   0.723   1.542  11.031 -0.3122 -1.5387 -0.0405
 1868TIP3   OH227018   3.980   0.307   0.760 -0.0439 -0.1742 -0.0771
 1868TIP3    H127019   3.980   0.388   0.708 -1.3572  0.2420  0.5369
 1868TIP3    H227020   3.929   0.245   0.707  2.7930 -1.3234 -1.5742
 1869TIP3   OH227021   4.232   0.945  15.102 -0.4589 -0.2095  0.1428
 1869TIP3    H127022   4.180   0.953  15.022 -0.6615 -1.3885  0.1479
 1869TIP3    H227023   4.321   0.925  15.072 -0.3231  0.3162  0.1856
 1870TIP3   OH227024   4.250   6.422   0.997  0.1846  0.3527  0.4844
 1870TIP3    H127025   4.166   6.450   1.033 -1.6728 -2.7623 -1.2650
 1870TIP3    H227026   4.289   6.369   1.066  0.2127  0.8230  0.8383
 1871TIP3   OH227027   1.435   4.291  14.389  0.4326 -0.9702 -0.2177
 1871TIP3    H127028   1.343   4.309  14.408 -0.1461 -3.0867 -0.9244
 1871TIP3    H227029   1.455   4.347  14.314  0.3799  1.1884  1.3395
 1872TIP3   OH227030   4.861   1.240   1.042 -0.7226 -0.7275  0.1240
 1872TIP3    H127031   4.917   1.295   1.097  0.1426 -1.8549  0.4126
 1872TIP3    H227032   4.782   1.225   1.094 -1.5178  1.2749 -0.4819
 1873TIP3   OH227033   3.710   4.267  14.463 -0.2221  0.3532 -0.1135
 1873TIP3    H127034   3.689   4.346  14.513  0.1965  0.0115  0.6116
 1873TIP3    H227035   3.756   4.211  14.525  1.6300  0.5388 -1.2785
 1874TIP3   OH227036   5.147   0.488  13.774 -0.3072  0.5034  0.2096
 1874TIP3    H127037   5.115   0.479  13.684 -0.6566 -1.5141  0.5078
 1874TIP3    H227038   5.242   0.477  13.767 -0.2692  0.9411  0.0167
 1875TIP3   OH227039   2.547   6.474   3.784  0.2661 -0.0913  0.3270
 1875TIP3    H127040   2.526   6.565   3.805  2.1522  0.6778 -0.9468
 1875TIP3    H227041   2.467   6.438   3.746 -1.2751  0.2851  3.0622
 1876TIP3   OH227042   0.551   1.265   3.572  0.6522  0.1410  0.0891
 1876TIP3    H127043   0.634   1.307   3.595  0.0236  0.6028  1.4995
 1876TIP3    H227044   0.529   1.303   3.486  1.9948 -0.1402 -0.3960
 1877TIP3   OH227045   4.242   4.336   6.638 -0.0150  0.7312 -0.9093
 1877TIP3    H127046   4.257   4.294   6.553  0.4719 -0.5944 -0.1921
 1877TIP3    H227047   4.328   4.338   6.680 -0.5657 -0.3781  0.3196
 1878TIP3   OH227048   2.394   2.769  11.453 -0.2213  0.1053  0.2384
 1878TIP3    H127049   2.400   2.690  11.507  1.6602  0.8833  1.1928
 1878TIP3    H227050   2.480   2.809  11.459 -0.9358  1.8600 -0.8452
 1879TIP3   OH227051   1.384   1.364  11.921  0.4665 -0.3977  0.1953
 1879TIP3    H127052   1.469   1.321  11.931  0.8746 -0.1238 -1.8094
 1879TIP3    H227053   1.400   1.456  11.943  1.0356 -0.0643 -1.5453
 1880TIP3   OH227054   2.227   5.850   1.651 -0.1582 -0.0663  0.1922
 1880TIP3    H127055   2.256   5.918   1.590  2.1197 -0.5069  0.7569
 1880TIP3    H227056   2.226   5.770   1.598  0.0833 -0.1281  0.2807
 1881TIP3   OH227057   5.120   1.713  11.905 -0.3947  0.3532 -0.3310
 1881TIP3    H127058   5.094   1.634  11.858  1.2337 -0.9802  0.9491
 1881TIP3    H227059   5.135   1.778  11.836 -1.1425 -0.6260 -1.4393
 1882TIP3   OH227060   1.479   0.862  16.402 -0.1139 -0.1530 -0.4862
 1882TIP3    H127061   1.487   0.952  16.434  1.9183  0.0586 -1.5227
 1882TIP3    H227062   1.433   0.870  16.319  1.6954  0.1250 -1.4670
 1883TIP3   OH227063   0.985   1.617  14.019 -0.5911  0.2827 -0.0608
 1883TIP3    H127064   1.045   1.543  14.019  0.0208  0.7423  1.7746
 1883TIP3    H227065   1.030   1.685  13.968 -0.4905 -0.0908 -0.4729
 1884TIP3   OH227066   4.848   4.525   1.750  0.4326  0.1243  0.2339
 1884TIP3    H127067   4.902   4.604   1.748  0.1885  0.2665 -0.6381
 1884TIP3    H227068   4.838   4.506   1.844 -1.2799  2.3420  0.5486
 1885TIP3   OH227069   0.949   6.373  13.062  0.0054 -0.0094  0.3056
 1885TIP3    H127070   0.895   6.325  13.000  1.0847  0.2546 -0.8681
 1885TIP3    H227071   0.935   6.466  13.040 -0.9710  0.1740  1.6269
 1886TIP3   OH227072   3.281   1.508  13.835  0.4063  0.1355 -0.6308
 1886TIP3    H127073   3.266   1.512  13.741  0.7021  0.8033 -0.6538
 1886TIP3    H227074   3.372   1.537  13.846  0.3041  0.2777 -0.1212
 1887TIP3   OH227075   3.931   2.063   2.827  0.5063  0.3308 -0.3434
 1887TIP3    H127076   3.885   1.984   2.855  0.1493  0.8863  0.6646
 1887TIP3    H227077   3.974   2.038   2.745  0.9755 -1.1132  0.3246
 1888TIP3   OH227078   1.892   2.783   2.257  0.3765  1.1680 -0.4972
 1888TIP3    H127079   1.837   2.809   2.331  1.1704  1.1735  0.1095
 1888TIP3    H227080   1.966   2.844   2.261  0.4203  1.1706 -1.3081
 1889TIP3   OH227081   3.294   1.525  11.782 -0.5256  0.1363 -0.4884
 1889TIP3    H127082   3.296   1.598  11.843 -0.2592  0.2623 -0.6435
 1889TIP3    H227083   3.219   1.543  11.726 -2.0768 -1.0918  1.1478
 1890TIP3   OH227084   6.651   6.158  15.465 -0.1413 -0.4560  0.2667
 1890TIP3    H127085   6.606   6.152  15.549  0.3004 -0.8665  0.4743
 1890TIP3    H227086   6.709   6.233  15.474 -1.5653  0.7455 -0.3790
 1891TIP3   OH227087   6.434   1.711   5.579  0.5042 -0.1479 -0.3818
 1891TIP3    H127088   6.367   1.688   5.644  1.7264 -0.4212  0.8217
 1891TIP3    H227089   6.386   1.726   5.498 -0.8657 -1.6829  0.1338
 1892TIP3   OH227090   0.444   0.080  17.006  0.2550 -0.4741  0.0844
 1892TIP3    H127091   0.379   0.113  17.068  2.1678 -0.6417  2.2216
 1892TIP3    H227092   0.416   0.115  16.921 -1.4971  1.0867  1.2706
 1893TIP3   OH227093   0.084   6.650   0.765 -1.1775  0.1772  0.5085
 1893TIP3    H127094   0.155   6.714   0.761  0.0638 -1.1814  0.4523
 1893TIP3    H227095   0.115   6.584   0.826 -2.5271 -0.2834  0.7064
 1894TIP3   OH227096   6.575   6.099   4.021 -0.2577 -0.3880  0.1677
 1894TIP3    H127097   6.525   6.151   4.083  0.5383 -0.7917  1.1622
 1894TIP3    H227098   6.558   6.008   4.048  1.4844 -0.5133  0.9094
 1895TIP3   OH227099   1.783   6.048   0.729 -0.2287 -0.1320  0.0410
 1895TIP3    H127100   1.849   6.020   0.792  1.3992  3.7892  0.2608
 1895TIP3    H227101   1.825   6.035   0.644  0.3093  1.0393  0.1178
 1896TIP3   OH227102   3.880   5.822  11.537  0.4029 -0.4201 -0.0792
 1896TIP3    H127103   3.909   5.754  11.477  0.1973 -0.1137 -0.5308
 1896TIP3    H227104   3.920   5.902  11.503 -0.1152 -0.1678 -0.0960
 1897TIP3   OH227105   3.099   3.960   0.516 -0.4275  0.8330  0.6855
 1897TIP3    H127106   3.087   3.880   0.568  1.4250  0.0137 -0.1222
 1897TIP3    H227107   3.065   3.938   0.429 -0.0294  0.9688  0.4947
 1898TIP3   OH227108   6.298   2.230  11.913  0.4085 -0.2369 -0.4340
 1898TIP3    H127109   6.250   2.197  11.838 -0.0697 -0.4326 -0.0442
 1898TIP3    H227110   6.383   2.185  11.910  1.0901  1.1003 -1.8833
 1899TIP3   OH227111   6.136   6.744   4.447  0.1671 -0.3599 -0.1159
 1899TIP3    H127112   6.105   6.655   4.432  2.2644 -1.2947  0.9650
 1899TIP3    H227113   6.214   6.734   4.501 -0.5048  2.2310  1.4063
 1900TIP3   OH227114   2.214   0.848   5.034  0.6107  0.0575 -0.3289
 1900TIP3    H127115   2.160   0.770   5.039 -0.9346  1.0799 -0.7333
 1900TIP3    H227116   2.179   0.906   5.101  0.2082  1.3374 -1.6276
 1901TIP3   OH227117   5.022   1.903  14.517  0.2945 -0.2037  0.1560
 1901TIP3    H127118   4.969   1.842  14.466 -0.2430  0.8936 -0.6434
 1901TIP3    H227119   5.110   1.864  14.518  0.6916  0.4613 -2.9428
 1902TIP3   OH227120   3.841   1.127  10.313  0.6295  0.2346  0.1119
 1902TIP3    H127121   3.931   1.123  10.345  0.4074  0.4702  0.7734
 1902TIP3    H227122   3.787   1.134  10.392 -0.0558 -1.2564 -0.2092
 1903TIP3   OH227123   0.766   5.593   2.559 -0.1300  0.3137 -0.4107
 1903TIP3    H127124   0.714   5.666   2.592 -1.3082 -1.2180  1.2723
 1903TIP3    H227125   0.849   5.599   2.607  0.1072  1.0439 -0.9114
 1904TIP3   OH227126   0.753   3.466  16.351  0.2956  0.0653 -0.1860
 1904TIP3    H127127   0.703   3.395  16.312 -1.3779  1.0991  0.0377
 1904TIP3    H227128   0.766   3.439  16.442 -1.5375  0.6441  0.2721
 1905TIP3   OH227129   0.890   1.086   4.148  0.4704 -0.7600  0.0155
 1905TIP3    H127130   0.845   1.065   4.066 -2.4805  1.1108  1.0447
 1905TIP3    H227131   0.839   1.041   4.215  1.9492 -1.0382  0.9586
 1906TIP3   OH227132   5.503   1.645   3.389 -0.6496 -0.2198  0.4697
 1906TIP3    H127133   5.521   1.624   3.298 -0.0531 -0.3734  0.6229
 1906TIP3    H227134   5.474   1.562   3.428  1.0306 -0.6273  0.9033
 1907TIP3   OH227135   5.786   5.219  15.937  0.1476 -0.1487 -0.1832
 1907TIP3    H127136   5.812   5.307  15.961  1.2124 -0.7898  1.0838
 1907TIP3    H227137   5.784   5.219  15.841 -3.1445  2.1496 -0.2030
 1908TIP3   OH227138   0.432   2.330  12.975  0.3264 -0.1903  0.0683
 1908TIP3    H127139   0.376   2.398  13.013  0.1199  0.3623 -1.2011
 1908TIP3    H227140   0.492   2.306  13.046 -1.4630 -0.7697  1.4611
 1909TIP3   OH227141   0.024   6.575  17.219 -0.1609  0.4905 -0.3439
 1909TIP3    H127142   0.024   6.602  17.311 -0.5852 -0.8274  0.0635
 1909TIP3    H227143  -0.063   6.600  17.187  0.1273  1.3024 -0.4996
 1910TIP3   OH227144   1.198   0.472  11.223  0.0677  0.9860  0.1721
 1910TIP3    H127145   1.104   0.462  11.205 -0.4782  2.1117  2.1914
 1910TIP3    H227146   1.217   0.563  11.204  0.3077  1.2427  1.5876
 1911TIP3   OH227147   2.798   4.685  16.031  0.7392 -0.4994 -0.8034
 1911TIP3    H127148   2.839   4.771  16.039 -0.1758 -0.2279  1.0629
 1911TIP3    H227149   2.809   4.663  15.938 -1.6566  2.9659 -2.0455
 1912TIP3   OH227150   4.811   5.040   1.606 -0.1784  0.1133  0.8093
 1912TIP3    H127151   4.829   5.133   1.623 -0.3461  0.5319 -1.2344
 1912TIP3    H227152   4.838   5.027   1.515  0.9104 -2.1335  1.4284
 1913TIP3   OH227153   0.805   0.888   0.302 -0.0957  0.1191 -0.1250
 1913TIP3    H127154   0.787   0.893   0.208 -0.1428 -0.9769 -0.1856
 1913TIP3    H227155   0.758   0.810   0.332  1.7701 -0.8757  0.3478
 1914TIP3   OH227156   4.363   3.574   0.861  0.8655  0.1373 -0.8099
 1914TIP3    H127157   4.405   3.653   0.826  0.3613  1.0135  0.5136
 1914TIP3    H227158   4.299   3.550   0.795  0.3792  1.3885 -0.8182
 1915TIP3   OH227159   3.207   4.293   1.801  0.4353 -0.0356  1.0901
 1915TIP3    H127160   3.118   4.329   1.803  0.4601  0.2104 -1.0019
 1915TIP3    H227161   3.195   4.198   1.797  0.2984 -0.0686  2.1769
 1916TIP3   OH227162   1.437   2.611   0.610  0.2154  0.6089 -0.3113
 1916TIP3    H127163   1.394   2.541   0.561 -0.7980  1.6151 -0.8746
 1916TIP3    H227164   1.397   2.609   0.696  0.8372 -0.0951 -0.0341
 1917TIP3   OH227165   6.571   0.058   1.698  0.0880  0.4931  0.1873
 1917TIP3    H127166   6.565   0.143   1.655  3.9910  1.5743  1.5377
 1917TIP3    H227167   6.547   0.074   1.789  3.0167  0.7197  0.9749
 1918TIP3   OH227168   0.075   0.093  14.067 -0.0430  0.0125  0.6632
 1918TIP3    H127169   0.045   0.046  13.990 -0.2338 -1.2815  1.5093
 1918TIP3    H227170   0.034   0.180  14.060  0.8213  0.2890 -1.2260
 1919TIP3   OH227171   4.934   1.521  13.452  0.8323  0.0207 -0.4708
 1919TIP3    H127172   4.929   1.534  13.357 -2.4034 -1.3713 -0.5344
 1919TIP3    H227173   4.852   1.557  13.486  2.2424  1.1269  1.9267
 1920TIP3   OH227174   5.034   0.116  13.968 -0.1749  0.7644 -0.2872
 1920TIP3    H127175   5.062   0.111  13.877  1.3162 -1.6094  0.2371
 1920TIP3    H227176   5.023   0.209  13.986 -3.4713  1.1555 -3.7265
 1921TIP3   OH227177   2.117   2.306  11.172  0.0488  0.2536  0.2227
 1921TIP3    H127178   2.049   2.343  11.228  1.0682 -0.7980  2.1966
 1921TIP3    H227179   2.090   2.216  11.158  0.7803 -0.0306  0.6187
 1922TIP3   OH227180   2.526   2.505   2.412  0.3877 -0.0314  0.0343
 1922TIP3    H127181   2.594   2.465   2.358 -1.6382 -2.6874 -0.7046
 1922TIP3    H227182   2.514   2.444   2.485 -1.9623 -0.2160 -0.4579
 1923TIP3   OH227183   1.231   2.728   4.822  0.1606  0.0855 -0.2615
 1923TIP3    H127184   1.177   2.760   4.894  0.1698 -0.5530  0.0345
 1923TIP3    H227185   1.218   2.633   4.823  1.2560 -0.0649 -0.2133
 1924TIP3   OH227186   2.256   1.436   3.744 -0.1844 -0.0234 -0.3405
 1924TIP3    H127187   2.216   1.523   3.736  1.2893  0.6793 -0.1369
 1924TIP3    H227188   2.245   1.397   3.657  1.5095  1.4093 -1.2423
 1925TIP3   OH227189   5.553   0.519  10.245 -0.5162  0.7485 -0.6216
 1925TIP3    H127190   5.579   0.428  10.250 -0.4967  0.6998 -1.5542
 1925TIP3    H227191   5.474   0.525  10.298 -0.6655  0.1364 -0.7826
 1926TIP3   OH227192   2.430   6.261  11.689 -0.1799 -0.1539 -0.0687
 1926TIP3    H127193   2.345   6.272  11.732 -0.8352 -3.0019 -0.5201
 1926TIP3    H227194   2.436   6.334  11.628 -0.5312  2.3018  2.7570
 1927TIP3   OH227195   4.110   3.158  14.642 -0.1566 -0.2498 -0.1382
 1927TIP3    H127196   4.026   3.119  14.669  0.2844  0.6286  2.6943
 1927TIP3    H227197   4.091   3.252  14.637  0.3060 -0.1994 -0.9631
 1928TIP3   OH227198   3.999   4.584  16.470  0.0231 -0.2967 -0.1806
 1928TIP3    H127199   3.917   4.568  16.423 -0.6108  0.2480  0.7376
 1928TIP3    H227200   4.065   4.589  16.400 -0.9766  0.9332 -1.0706
 1929TIP3   OH227201   0.035   3.030  11.454 -0.1881 -0.3436 -0.0019
 1929TIP3    H127202   0.050   2.940  11.426  0.6299 -0.2237  0.0622
 1929TIP3    H227203   0.115   3.077  11.431 -0.0332  0.0531  1.2957
 1930TIP3   OH227204   4.023   2.667   4.816 -0.5201 -0.4143  0.3220
 1930TIP3    H127205   4.019   2.700   4.906  1.6367  1.1640 -0.1173
 1930TIP3    H227206   3.937   2.686   4.779 -0.2810  2.1637  0.9848
 1931TIP3   OH227207   0.839   5.704  11.936  0.1825  0.3895 -0.3012
 1931TIP3    H127208   0.753   5.670  11.962  0.2992  0.4740  0.2151
 1931TIP3    H227209   0.857   5.663  11.852 -0.2206  0.1161 -0.2575
 1932TIP3   OH227210   2.946   2.057   5.224 -0.0218 -0.5269 -0.0070
 1932TIP3    H127211   2.923   2.139   5.181 -0.3227 -1.0882 -0.9220
 1932TIP3    H227212   2.916   1.989   5.164 -1.9094 -1.3398  1.8179
 1933TIP3   OH227213   2.826   6.224  11.516  0.1941  0.3012 -0.1529
 1933TIP3    H127214   2.776   6.299  11.483  1.5580  1.2023 -0.2084
 1933TIP3    H227215   2.821   6.159  11.446  0.7525  1.1484 -0.9960
 1934TIP3   OH227216   0.643   6.563  11.687 -0.3495 -0.5098 -0.1240
 1934TIP3    H127217   0.714   6.575  11.751 -1.4908  1.0914  0.8867
 1934TIP3    H227218   0.609   6.476  11.704 -0.5286 -0.1604  1.3536
 1935TIP3   OH227219   5.169   4.777   2.735 -0.1974 -0.2371 -0.0578
 1935TIP3    H127220   5.092   4.793   2.789 -0.4555 -1.1892 -0.1333
 1935TIP3    H227221   5.241   4.821   2.780 -0.8706  1.0431 -0.2260
 1936TIP3   OH227222   2.348   0.383  16.393  0.2541 -0.1625  0.9496
 1936TIP3    H127223   2.399   0.310  16.357 -1.0021 -0.0386 -1.1363
 1936TIP3    H227224   2.368   0.457  16.336 -2.7654 -0.2804 -0.3261
 1937TIP3   OH227225   6.346   6.286   5.875 -0.8545  0.3211 -0.0525
 1937TIP3    H127226   6.261   6.291   5.831 -1.0075  0.4461  0.2544
 1937TIP3    H227227   6.325   6.268   5.967 -0.4645 -1.7673 -0.3533
 1938TIP3   OH227228   2.765   0.324  11.359 -0.8130 -0.3691  0.2018
 1938TIP3    H127229   2.830   0.332  11.290  0.0041 -1.0360  0.8885
 1938TIP3    H227230   2.725   0.239  11.346  1.0470 -1.5671  1.9912
 1939TIP3   OH227231   5.875   2.949   0.127  0.4391 -0.6716 -0.3492
 1939TIP3    H127232   5.901   3.027   0.176  0.2969 -1.5679  1.2138
 1939TIP3    H227233   5.815   2.981   0.060  2.6814  0.9513 -1.6693
 1940TIP3   OH227234   2.043   0.946  15.199 -0.0113 -0.4472  0.3916
 1940TIP3    H127235   2.016   1.037  15.214  0.3231 -0.3840  0.6010
 1940TIP3    H227236   1.968   0.894  15.227 -0.4194 -0.2142 -0.2461
 1941TIP3   OH227237   5.496   0.561   5.162  0.3526  0.7855 -0.0143
 1941TIP3    H127238   5.484   0.563   5.257 -0.2439 -0.0269 -0.0686
 1941TIP3    H227239   5.566   0.624   5.146  2.4156 -1.0881  1.2560
 1942TIP3   OH227240   1.521   5.605   6.150 -0.4450  0.3706 -0.0374
 1942TIP3    H127241   1.482   5.690   6.134 -0.1959  0.2672 -1.2135
 1942TIP3    H227242   1.482   5.547   6.084 -0.8671 -0.4985  0.9592
 1943TIP3   OH227243   3.794   2.386   1.499  0.2094  0.3779  0.8551
 1943TIP3    H127244   3.854   2.460   1.493  1.6353 -0.8486 -0.5033
 1943TIP3    H227245   3.713   2.416   1.459  1.3715  0.6262 -1.3607
 1944TIP3   OH227246   6.160   4.375  15.111 -0.3230  0.6536  0.3913
 1944TIP3    H127247   6.231   4.437  15.123 -2.1737  2.4420  2.6072
 1944TIP3    H227248   6.140   4.344  15.199 -1.0630 -1.2571 -0.4130
 1945TIP3   OH227249   4.725   1.437  15.723  0.4144  0.0487  0.1560
 1945TIP3    H127250   4.671   1.358  15.730  0.5448 -0.1662 -1.0624
 1945TIP3    H227251   4.809   1.412  15.761  0.4317 -0.3823 -0.1594
 1946TIP3   OH227252   4.987   4.263   0.099 -0.2340  0.2567 -0.0290
 1946TIP3    H127253   4.930   4.315   0.042  1.1322  0.4746 -1.2381
 1946TIP3    H227254   5.069   4.313   0.103  0.0537 -0.3072  1.2482
 1947TIP3   OH227255   1.877   5.322  14.473  0.1678 -0.2799 -0.6638
 1947TIP3    H127256   1.944   5.327  14.541 -0.6109  0.3520  0.0819
 1947TIP3    H227257   1.867   5.229  14.455 -0.5612 -0.5522  1.0560
 1948TIP3   OH227258   1.603   5.623  14.471  0.0603  0.1891 -0.1321
 1948TIP3    H127259   1.598   5.690  14.402  2.9129 -0.1311 -0.7243
 1948TIP3    H227260   1.573   5.542  14.428  1.5308  0.0562 -0.9479
 1949TIP3   OH227261   5.757   3.838  13.398 -0.3481  0.4271 -0.0391
 1949TIP3    H127262   5.764   3.772  13.467 -2.2376  0.0868 -0.1297
 1949TIP3    H227263   5.675   3.884  13.418  0.1556  1.7037 -0.8745
 1950TIP3   OH227264   0.956   3.418   5.346 -0.3689  0.0067 -0.6644
 1950TIP3    H127265   1.013   3.343   5.367 -0.3288 -0.3973 -2.1218
 1950TIP3    H227266   0.910   3.390   5.266 -0.2496  1.5876 -1.2951
 1951TIP3   OH227267   2.098   1.741  11.354  0.4754 -0.0333 -0.5133
 1951TIP3    H127268   2.069   1.746  11.445 -0.0869  0.8701 -0.7358
 1951TIP3    H227269   2.040   1.678  11.313 -0.1460  0.5695 -0.5673
 1952TIP3   OH227270   0.692   3.728  12.676  0.0837 -0.1747 -0.2778
 1952TIP3    H127271   0.638   3.801  12.705 -0.5746 -1.2510  1.2353
 1952TIP3    H227272   0.686   3.663  12.746  0.5311 -1.7522 -1.6593
 1953TIP3   OH227273   5.633   1.989   4.299 -0.7309  0.0575  0.0936
 1953TIP3    H127274   5.620   2.021   4.209 -0.7658 -0.9364 -0.2575
 1953TIP3    H227275   5.589   1.904   4.301  0.2219 -0.4248  0.7429
 1954TIP3   OH227276   6.162   4.904  12.495  0.5614 -0.3485 -0.0670
 1954TIP3    H127277   6.154   4.881  12.402 -0.5415 -1.0877  0.1967
 1954TIP3    H227278   6.210   4.831  12.534  0.0416 -0.5761  0.1487
 1955TIP3   OH227279   2.127   2.073  13.070  0.5494 -0.0100  0.3834
 1955TIP3    H127280   2.184   2.146  13.045 -0.9845  0.9039 -0.5919
 1955TIP3    H227281   2.154   2.002  13.012 -0.1428  0.8213 -1.0161
 1956TIP3   OH227282   0.138   1.387   4.977 -0.1942 -0.6042  0.4244
 1956TIP3    H127283   0.072   1.353   4.918 -0.0818  0.7164 -0.5005
 1956TIP3    H227284   0.219   1.343   4.950 -0.4207 -1.1296  0.5955
 1957TIP3   OH227285   1.432   4.096  14.618 -0.2060  0.0891 -0.5719
 1957TIP3    H127286   1.467   4.018  14.661 -1.1391  0.2272  0.4559
 1957TIP3    H227287   1.508   4.136  14.575  0.1816 -1.6648 -1.5681
 1958TIP3   OH227288   6.492   0.624  16.487  0.1077  0.1255 -0.0369
 1958TIP3    H127289   6.528   0.703  16.447 -0.8786 -0.2985 -1.7759
 1958TIP3    H227290   6.516   0.553  16.428 -1.2943 -0.5227  0.1582
 1959TIP3   OH227291   4.613   0.044   3.123 -0.1340 -0.5862  0.0634
 1959TIP3    H127292   4.608  -0.014   3.046 -0.5457 -1.5082  0.7813
 1959TIP3    H227293   4.704   0.036   3.152 -0.1649 -0.8083  0.1030
 1960TIP3   OH227294   5.354   5.836  11.642  0.5225 -0.3034  0.5715
 1960TIP3    H127295   5.300   5.757  11.650  1.2130 -1.0925 -2.1534
 1960TIP3    H227296   5.292   5.903  11.613  0.6629 -0.8169 -0.9658
 1961TIP3   OH227297   6.537   3.751   2.761  0.6083  0.4631  0.5953
 1961TIP3    H127298   6.631   3.765   2.747  0.8609 -0.8301  0.9082
 1961TIP3    H227299   6.509   3.704   2.682  0.1485  1.1258  0.3575
 1962TIP3   OH227300   1.105   4.560  12.391  0.1509 -0.2945  0.3162
 1962TIP3    H127301   1.198   4.570  12.410  0.1064 -0.7311  0.7722
 1962TIP3    H227302   1.072   4.505  12.461 -0.3591 -0.5273 -0.1023
 1963TIP3   OH227303   3.790   0.371  13.754  0.0350 -0.6404  0.0191
 1963TIP3    H127304   3.781   0.424  13.675  1.2407 -1.7957 -0.9109
 1963TIP3    H227305   3.709   0.387  13.803  0.0228  1.4022 -0.6262
 1964TIP3   OH227306   0.729   4.378   3.913  0.1579  0.2352 -0.1762
 1964TIP3    H127307   0.799   4.400   3.852  0.5876  0.0386  0.2509
 1964TIP3    H227308   0.662   4.338   3.858 -0.3560  1.9752 -0.8569
 1965TIP3   OH227309   3.796   0.362  15.896  0.5226 -0.0363 -0.2781
 1965TIP3    H127310   3.726   0.342  15.958  0.0860  0.1225 -0.7147
 1965TIP3    H227311   3.838   0.440  15.932  0.7682 -0.4058  0.2322
 1966TIP3   OH227312   2.143   3.791   3.463  0.0101  0.5041  0.0383
 1966TIP3    H127313   2.238   3.785   3.452 -0.3498 -0.2212 -3.0159
 1966TIP3    H227314   2.125   3.732   3.537  1.6246 -1.8477 -1.3409
 1967TIP3   OH227315   0.905   4.911  16.275 -0.4304 -0.4611 -0.5167
 1967TIP3    H127316   0.869   4.922  16.363  0.6023 -0.3773 -0.0949
 1967TIP3    H227317   0.841   4.857  16.229 -1.0142 -0.4378  0.2652
 1968TIP3   OH227318   3.455   3.659   4.233  0.3881  0.6249 -0.4070
 1968TIP3    H127319   3.518   3.703   4.290  0.9446  0.7380 -1.1017
 1968TIP3    H227320   3.505   3.636   4.155 -0.7093  1.8284 -1.5006
 1969TIP3   OH227321   3.260   0.650  11.388  0.3805  0.1982  0.8786
 1969TIP3    H127322   3.298   0.652  11.300  1.6832  1.7146  1.4439
 1969TIP3    H227323   3.253   0.557  11.409 -1.4462 -0.2258 -1.4522
 1970TIP3   OH227324   5.434   3.532  13.473  0.0006  0.1371  0.1971
 1970TIP3    H127325   5.403   3.596  13.537 -0.0552 -0.2769  0.5888
 1970TIP3    H227326   5.515   3.498  13.512 -0.5399 -0.8179  0.5127
 1971TIP3   OH227327   5.143   4.674   4.436  0.0677 -0.3356 -0.1187
 1971TIP3    H127328   5.185   4.643   4.356 -1.1615  0.5249 -1.1168
 1971TIP3    H227329   5.182   4.759   4.452 -0.4076 -0.0719 -0.3606
 1972TIP3   OH227330   5.356   0.511  15.708  0.3015 -0.5661 -0.1328
 1972TIP3    H127331   5.356   0.581  15.773 -1.4150 -2.9517  2.5649
 1972TIP3    H227332   5.410   0.545  15.636  1.5996  2.4808  2.1639
 1973TIP3   OH227333   3.923   6.049  11.368  0.1340  0.0815 -0.2846
 1973TIP3    H127334   3.994   6.108  11.393  0.3540 -0.6464  0.8374
 1973TIP3    H227335   3.844   6.104  11.368  0.5653  0.7032 -0.7132
 1974TIP3   OH227336   2.436   0.691   2.621 -0.4171  0.7673  0.4284
 1974TIP3    H127337   2.418   0.612   2.671 -1.0578  1.5245  1.4088
 1974TIP3    H227338   2.440   0.661   2.530  0.4001 -0.5570  0.8866
 1975TIP3   OH227339   4.537   4.413   3.104 -0.9676  0.4054 -0.8980
 1975TIP3    H127340   4.560   4.345   3.167 -1.4853 -0.0268 -1.1681
 1975TIP3    H227341   4.443   4.426   3.116 -0.9533  0.7497 -1.1600
 1976TIP3   OH227342   6.492   5.480   6.066 -0.1436  0.1545  0.5442
 1976TIP3    H127343   6.454   5.540   6.002 -2.0481 -0.1004  1.3927
 1976TIP3    H227344   6.513   5.402   6.015 -0.3713  0.4582 -0.0264
 1977TIP3   OH227345   2.462   5.746   3.806 -0.2429  0.1735 -0.1593
 1977TIP3    H127346   2.388   5.805   3.792 -0.0644  0.6439  0.8473
 1977TIP3    H227347   2.532   5.782   3.752 -0.9055 -0.5856 -1.5409
 1978TIP3   OH227348   4.852   3.940   3.770 -0.0629  0.9096 -0.0059
 1978TIP3    H127349   4.897   4.010   3.722  0.3278  1.0483  0.5608
 1978TIP3    H227350   4.855   3.865   3.710  0.6058  1.0255 -0.1235
 1979TIP3   OH227351   0.676   3.195   4.345  0.0647  0.4287  0.2589
 1979TIP3    H127352   0.697   3.276   4.390 -0.1612  0.6863 -0.0996
 1979TIP3    H227353   0.703   3.209   4.255  0.0137  0.1101  0.1912
 1980TIP3   OH227354   5.434   0.771  14.556 -0.7901  0.2150 -0.6147
 1980TIP3    H127355   5.396   0.759  14.643  0.2175 -2.0219 -0.4592
 1980TIP3    H227356   5.362   0.753  14.496 -0.5913 -1.7217 -0.2832
 1981TIP3   OH227357   1.197   1.163   6.255  0.3736  0.5529  0.3060
 1981TIP3    H127358   1.221   1.241   6.206 -0.3319  0.0316 -0.9060
 1981TIP3    H227359   1.107   1.179   6.283 -0.2571 -0.3911 -1.1378
 1982TIP3   OH227360   6.731   3.921  14.592 -0.3196 -0.0428 -0.3850
 1982TIP3    H127361   6.759   4.006  14.626 -1.1663  0.3797 -0.7411
 1982TIP3    H227362   6.636   3.926  14.589 -0.3859 -1.0310 -0.3483
 1983TIP3   OH227363   1.368   2.085   2.252  0.0222  0.2521 -0.4336
 1983TIP3    H127364   1.330   2.031   2.321 -0.0997  1.2838  0.3305
 1983TIP3    H227365   1.453   2.111   2.286 -0.5554  1.7874 -0.1238
 1984TIP3   OH227366   2.591   4.029   0.924  1.1825 -0.5050  0.7145
 1984TIP3    H127367   2.503   3.993   0.938  0.9014 -0.3046 -0.4288
 1984TIP3    H227368   2.628   3.973   0.855  1.3119  0.4439  0.0038
 1985TIP3   OH227369   3.487   1.456   1.167 -0.9403 -0.1194 -0.2476
 1985TIP3    H127370   3.404   1.499   1.145 -0.4158  0.6771 -0.7240
 1985TIP3    H227371   3.526   1.436   1.082 -0.3454  0.1154 -0.0326
 1986TIP3   OH227372   0.096   2.060  11.791 -0.2787 -0.8198  0.1088
 1986TIP3    H127373   0.087   2.118  11.867  0.2048 -0.6904  0.0682
 1986TIP3    H227374   0.184   2.079  11.757  0.2631 -2.2544  0.6664
 1987TIP3   OH227375   3.743   0.062   3.412  0.6257  0.8742 -0.1096
 1987TIP3    H127376   3.783  -0.021   3.437  1.5303  0.7698 -1.8313
 1987TIP3    H227377   3.657   0.061   3.454  0.3246 -1.2843 -0.7232
 1988TIP3   OH227378   2.519   4.076  16.948 -0.2125  0.0163  0.5092
 1988TIP3    H127379   2.460   4.112  17.013 -0.1716 -1.0318  1.1338
 1988TIP3    H227380   2.596   4.133  16.951 -1.2532  1.5181 -0.4694
 1989TIP3   OH227381   1.626   3.625   0.150 -0.6419  0.6266 -0.0633
 1989TIP3    H127382   1.583   3.592   0.072  1.1849 -1.2755 -0.3157
 1989TIP3    H227383   1.557   3.632   0.215 -1.6419 -0.7587 -0.9522
 1990TIP3   OH227384   1.617   3.542   3.701 -0.1391  0.4228  0.7312
 1990TIP3    H127385   1.611   3.598   3.624  0.4180 -1.0106 -0.3652
 1990TIP3    H227386   1.695   3.573   3.747 -0.7028  1.5454  0.9502
 1991TIP3   OH227387   5.233   5.856  14.429  0.6318  0.1299  0.0273
 1991TIP3    H127388   5.314   5.812  14.455 -0.7377 -1.8066  1.1096
 1991TIP3    H227389   5.183   5.865  14.509 -0.8983 -0.1305 -0.8689
 1992TIP3   OH227390   3.082   2.511  11.520 -0.3679  0.6269 -0.3295
 1992TIP3    H127391   3.029   2.550  11.451 -2.1324  2.0239  1.7429
 1992TIP3    H227392   3.114   2.585  11.570  1.0787 -0.3545  0.2248
 1993TIP3   OH227393   5.631   5.713  12.807 -0.4463  0.0104 -0.0591
 1993TIP3    H127394   5.618   5.624  12.841 -0.1001 -0.5318 -1.3072
 1993TIP3    H227395   5.724   5.717  12.786 -0.4604  0.6742 -0.0092
 1994TIP3   OH227396   0.947   5.609  16.845  0.5206 -0.0718 -0.6029
 1994TIP3    H127397   0.980   5.663  16.917 -1.8396  0.7482 -0.0892
 1994TIP3    H227398   1.016   5.611  16.779  1.5339  1.4538  0.4779
 1995TIP3   OH227399   2.034   6.371   0.345  0.0286  0.0744  0.4909
 1995TIP3    H127400   2.071   6.434   0.407 -0.0377  2.1276 -1.4812
 1995TIP3    H227401   1.941   6.394   0.340 -0.2346 -0.9503  0.6502
 1996TIP3   OH227402   1.045   3.299   1.894 -0.2449  0.6937  0.1649
 1996TIP3    H127403   1.038   3.320   1.987  1.1853 -0.2115  0.4817
 1996TIP3    H227404   1.126   3.340   1.865  1.5066 -2.5046  0.3133
 1997TIP3   OH227405   4.877   4.278  14.114  0.0764 -0.0713 -0.4326
 1997TIP3    H127406   4.894   4.342  14.184  0.3603 -0.0045 -0.5609
 1997TIP3    H227407   4.791   4.302  14.080 -0.0938 -0.1496 -0.0577
 1998TIP3   OH227408   0.414   4.628  16.281 -0.3438 -0.1703 -0.1346
 1998TIP3    H127409   0.420   4.590  16.369 -0.0203  0.3113  0.0490
 1998TIP3    H227410   0.445   4.558  16.223 -0.7152 -0.5473  0.1127
 1999TIP3   OH227411   4.539   3.945   2.012  0.0111 -0.0771 -0.1172
 1999TIP3    H127412   4.512   3.969   2.100 -0.9714  0.4437 -0.5522
 1999TIP3    H227413   4.603   3.875   2.024  0.0616  0.1648  1.0122
 2000TIP3   OH227414   3.845   2.314   2.576  0.3444  0.3441  0.0473
 2000TIP3    H127415   3.881   2.361   2.652  0.7467  1.4030 -0.7900
 2000TIP3    H227416   3.896   2.347   2.502  1.0915 -1.9106 -0.4706
 2001TIP3   OH227417   1.416   1.361  13.941 -0.0295  0.3895 -0.0350
 2001TIP3    H127418   1.392   1.428  14.006 -0.0842 -1.3019  1.7132
 2001TIP3    H227419   1.506   1.382  13.917 -0.6001  2.1126 -0.8213
 2002TIP3   OH227420   3.017   0.642   1.675  0.4610 -0.2524 -0.3996
 2002TIP3    H127421   2.951   0.623   1.740 -0.4519 -0.4025 -1.3577
 2002TIP3    H227422   3.026   0.738   1.676  1.4532 -0.3384  0.8982
 2003TIP3   OH227423   5.258   2.530   6.152  0.5725  0.3509 -0.3374
 2003TIP3    H127424   5.192   2.571   6.096  0.3629 -0.3196 -0.5760
 2003TIP3    H227425   5.242   2.568   6.238 -2.1585 -2.1461  0.3158
 2004TIP3   OH227426   5.972   1.526   4.183  0.2378 -0.1218  0.6936
 2004TIP3    H127427   6.029   1.603   4.189 -0.9317  0.9400 -1.3807
 2004TIP3    H227428   6.018   1.466   4.124 -0.0307  0.0762  0.2764
 2005TIP3   OH227429   4.242   3.226   2.481  0.0206  0.4192  0.3576
 2005TIP3    H127430   4.196   3.305   2.453  0.0668  0.1558 -0.4962
 2005TIP3    H227431   4.288   3.252   2.561 -1.1931  0.8228  0.9466
 2006TIP3   OH227432   0.793   2.595  14.350  0.5066 -0.2122  0.7693
 2006TIP3    H127433   0.798   2.521  14.410 -1.2941 -0.7902  0.2436
 2006TIP3    H227434   0.876   2.594  14.303  1.8978  0.2211  3.1874
 2007TIP3   OH227435   4.840   4.053   0.222  0.0263  0.5880 -0.0559
 2007TIP3    H127436   4.876   4.019   0.140  0.3665  0.9524 -0.0610
 2007TIP3    H227437   4.876   4.142   0.229 -0.7761  0.9147 -0.0046
 2008TIP3   OH227438   4.227   0.001  11.452  0.2606 -0.6339  0.1215
 2008TIP3    H127439   4.240  -0.025  11.361 -1.2700 -0.5967 -0.1172
 2008TIP3    H227440   4.232  -0.080  11.501  0.4954 -0.7308 -0.0610
 2009TIP3   OH227441   1.394   1.836  13.874  0.1976  0.0195 -0.2921
 2009TIP3    H127442   1.470   1.820  13.929  0.8926  1.6180 -0.7566
 2009TIP3    H227443   1.408   1.923  13.837 -2.2106  0.6772  0.2081
 2010TIP3   OH227444   5.555   6.156   3.234  0.5355  0.4288  0.1368
 2010TIP3    H127445   5.601   6.075   3.209  0.6169  0.8527 -1.1193
 2010TIP3    H227446   5.618   6.226   3.215  0.0003  0.8778  0.0163
 2011TIP3   OH227447   0.008   5.211  15.660 -0.5797 -0.2740  0.5459
 2011TIP3    H127448  -0.010   5.295  15.618  3.3768  0.2557 -0.2956
 2011TIP3    H227449   0.018   5.150  15.588  0.5610 -0.6057  0.9827
 2012TIP3   OH227450   5.899   6.066  15.971  0.2290  0.1491  0.1091
 2012TIP3    H127451   5.841   6.074  16.047  1.5576 -0.8374  1.2460
 2012TIP3    H227452   5.986   6.084  16.006  0.6957  1.0531 -1.4759
 2013TIP3   OH227453   0.774   0.031  15.679 -0.1231 -0.0160  0.5025
 2013TIP3    H127454   0.752  -0.008  15.594  0.0414 -2.2919  1.4694
 2013TIP3    H227455   0.697   0.084  15.701 -0.6764 -0.3895 -0.4908
 2014TIP3   OH227456   3.364   6.176   4.366  0.3093 -0.5677  0.3222
 2014TIP3    H127457   3.315   6.133   4.295 -0.0834 -0.1850  0.3626
 2014TIP3    H227458   3.442   6.121   4.377 -1.0175 -2.2915  1.5408
 2015TIP3   OH227459   0.580   3.540   5.147  0.0360 -0.4782  0.3543
 2015TIP3    H127460   0.568   3.595   5.225 -1.8790 -1.3034  0.6677
 2015TIP3    H227461   0.496   3.494   5.137  0.2032 -0.2614 -2.2955
 2016TIP3   OH227462   2.701   5.590  12.634 -0.6004  0.2275  0.0265
 2016TIP3    H127463   2.675   5.652  12.566 -1.2766 -0.1080 -0.0220
 2016TIP3    H227464   2.726   5.645  12.708 -2.3386  0.5579  0.4017
 2017TIP3   OH227465   5.560   2.979   3.542 -0.5422 -0.3152  0.1029
 2017TIP3    H127466   5.625   2.911   3.528 -1.4887 -0.7100 -2.5403
 2017TIP3    H227467   5.521   2.994   3.456 -2.3761  1.5116  1.2010
 2018TIP3   OH227468   5.175   5.644   1.091 -0.3536 -0.6644  0.3864
 2018TIP3    H127469   5.146   5.586   1.021  0.2445  1.2485 -1.5042
 2018TIP3    H227470   5.109   5.713   1.095  0.7040  0.3698  0.2746
 2019TIP3   OH227471   2.167   4.444  15.896  0.3458 -0.8903  0.3841
 2019TIP3    H127472   2.249   4.404  15.866  0.2900 -1.0495  0.4427
 2019TIP3    H227473   2.153   4.406  15.982 -0.7017 -2.1996 -0.3392
 2020TIP3   OH227474   4.866   4.290   3.338  0.1493 -0.0467  0.1956
 2020TIP3    H127475   4.920   4.342   3.398  0.9699  0.3891 -0.9075
 2020TIP3    H227476   4.867   4.202   3.375 -0.2705  0.4509  1.4291
 2021TIP3   OH227477   1.105   1.480   4.121  0.0508 -0.1768 -0.1084
 2021TIP3    H127478   1.174   1.430   4.164 -0.6702  1.3302  3.0087
 2021TIP3    H227479   1.146   1.517   4.043  1.8969 -1.7175  0.1113
 2022TIP3   OH227480   1.869   6.657   0.902  0.2219 -0.1262 -0.1447
 2022TIP3    H127481   1.905   6.731   0.852  2.4162 -0.5216  0.7756
 2022TIP3    H227482   1.927   6.649   0.977 -0.2094 -2.5614 -0.0279
 2023TIP3   OH227483   0.782   0.588   0.030  0.4943 -0.6894 -0.3205
 2023TIP3    H127484   0.737   0.667   0.059  0.5173 -0.8507  0.1613
 2023TIP3    H227485   0.808   0.606  -0.060  0.8647  0.0090 -0.0756
 2024TIP3   OH227486   1.108   5.627   1.816 -1.1045  0.6508 -0.3129
 2024TIP3    H127487   1.163   5.700   1.844 -0.8334  0.3718 -0.1205
 2024TIP3    H227488   1.022   5.646   1.853 -0.9083  0.6184  0.1558
 2025TIP3   OH227489   3.167   5.304   1.197 -0.1884  0.0969 -0.7711
 2025TIP3    H127490   3.122   5.387   1.182 -0.6629  0.1016  0.6230
 2025TIP3    H227491   3.153   5.255   1.116 -0.4982  1.1026 -1.3399
 2026TIP3   OH227492   1.454   6.639   4.590 -0.0886  0.0409 -0.0194
 2026TIP3    H127493   1.540   6.664   4.557  0.0216 -0.3047 -0.0041
 2026TIP3    H227494   1.403   6.621   4.511  0.6922 -2.4891 -0.0185
 2027TIP3   OH227495   3.649   4.755  12.174 -0.2965 -0.1653 -0.0053
 2027TIP3    H127496   3.655   4.660  12.161  1.0258  0.0712 -1.1698
 2027TIP3    H227497   3.726   4.776  12.227 -2.4399 -0.2351  3.2745
 2028TIP3   OH227498   5.517   1.105   4.604 -0.1235 -0.2305 -0.4809
 2028TIP3    H127499   5.470   1.027   4.633 -1.2756  0.8441  0.6002
 2028TIP3    H227500   5.451   1.159   4.561  0.3145  0.8280  0.1325
 2029TIP3   OH227501   3.836   1.506   5.312  0.3652  0.1358  0.0484
 2029TIP3    H127502   3.917   1.481   5.270  1.4038 -0.3775  2.2779
 2029TIP3    H227503   3.787   1.425   5.322 -0.3417  0.4076 -1.0694
 2030TIP3   OH227504   5.293   5.577  17.001 -0.5406  0.4871 -0.6583
 2030TIP3    H127505   5.214   5.527  16.983 -0.5391  0.2479 -0.0213
 2030TIP3    H227506   5.328   5.600  16.915 -1.0975  0.2747 -0.9413
 2031TIP3   OH227507   5.014   5.714   4.316  0.4478  0.3569  0.3694
 2031TIP3    H127508   5.028   5.689   4.225  0.1762  1.4590  0.0232
 2031TIP3    H227509   5.100   5.708   4.356  0.6085  0.0828 -0.0128
 2032TIP3   OH227510   5.304   2.282  13.751 -0.4348 -0.1945  0.0811
 2032TIP3    H127511   5.223   2.333  13.739 -0.0128  0.2542 -0.9151
 2032TIP3    H227512   5.288   2.230  13.830 -1.5966  0.0912  0.0456
 2033TIP3   OH227513   5.232   0.216   0.118  0.3702 -0.0356 -0.0582
 2033TIP3    H127514   5.284   0.196   0.040  0.6577  0.7607 -0.0670
 2033TIP3    H227515   5.150   0.251   0.084  0.8066  1.0592  0.0153
 2034TIP3   OH227516   0.557   5.877  11.691 -0.9014  0.3592  0.0637
 2034TIP3    H127517   0.583   5.868  11.600 -0.4524  0.6040  0.1626
 2034TIP3    H227518   0.621   5.938  11.728 -1.1591  0.3658  0.5069
 2035TIP3   OH227519   0.366   5.428  14.800  0.2772 -0.0876 -0.3732
 2035TIP3    H127520   0.429   5.394  14.736 -0.1204 -2.6613  0.5606
 2035TIP3    H227521   0.284   5.435  14.752  1.0991  2.7761 -1.4533
 2036TIP3   OH227522   2.553   1.658  14.267  0.2788 -0.0104 -0.0158
 2036TIP3    H127523   2.461   1.630  14.260  0.7347 -1.2909 -0.9965
 2036TIP3    H227524   2.570   1.659  14.361 -0.8685  0.6664  0.1948
 2037TIP3   OH227525   4.074   2.727  15.581  0.0529  0.3479  0.3595
 2037TIP3    H127526   4.151   2.705  15.632  2.0293 -2.0154 -3.3893
 2037TIP3    H227527   4.098   2.807  15.534 -0.1734  0.2352  0.0433
 2038TIP3   OH227528   6.176   0.461  12.614 -0.5355  0.1265  0.1337
 2038TIP3    H127529   6.238   0.465  12.541  0.1103  0.3451  0.6760
 2038TIP3    H227530   6.109   0.525  12.593 -0.4392  0.0692 -0.3459
 2039TIP3   OH227531   6.709   5.511   4.244 -0.0545 -0.2297  0.6332
 2039TIP3    H127532   6.620   5.488   4.217  0.2204 -1.8701  1.0400
 2039TIP3    H227533   6.764   5.483   4.171  0.2123  0.0095  0.7424
 2040TIP3   OH227534   5.936   1.122   4.671  0.2231 -0.0067  0.3777
 2040TIP3    H127535   5.969   1.039   4.637 -0.3533 -0.0466 -0.0897
 2040TIP3    H227536   5.848   1.101   4.703  0.0357  0.4509  0.1574
 2041TIP3   OH227537   3.806   6.504   5.470 -0.0860  0.1459 -0.3700
 2041TIP3    H127538   3.804   6.467   5.558  0.0641  1.3699  0.1466
 2041TIP3    H227539   3.840   6.592   5.481 -1.0547  0.6846 -1.5121
 2042TIP3   OH227540   5.840   2.384   6.450  0.4808 -0.9112 -0.2923
 2042TIP3    H127541   5.838   2.316   6.383  2.0964  0.6513 -1.9596
 2042TIP3    H227542   5.799   2.343   6.526  1.5523 -3.8008 -1.2000
 2043TIP3   OH227543   6.129   0.842   0.825  0.2273  0.6252 -0.3474
 2043TIP3    H127544   6.077   0.797   0.759 -0.9431  0.6158  0.5557
 2043TIP3    H227545   6.099   0.933   0.822  0.8182  0.8187 -0.4521
 2044TIP3   OH227546   4.260   1.164   1.606  0.1133 -0.1448 -0.1846
 2044TIP3    H127547   4.333   1.217   1.637  1.2837 -0.6367 -1.9995
 2044TIP3    H227548   4.201   1.226   1.563 -0.5826  0.2610  1.3392
 2045TIP3   OH227549   3.551   1.280  14.051 -0.0296 -0.7013 -0.2373
 2045TIP3    H127550   3.463   1.267  14.016  0.1463  0.2625 -1.0528
 2045TIP3    H227551   3.598   1.200  14.029  0.0411 -0.1730 -2.1229
 2046TIP3   OH227552   5.840   1.523   2.317 -0.5472 -0.3177  0.0092
 2046TIP3    H127553   5.758   1.508   2.271 -0.2037 -1.6152 -0.1966
 2046TIP3    H227554   5.906   1.530   2.248 -0.1687 -1.3975  0.2373
 2047TIP3   OH227555   3.298   5.227   0.783 -0.1887 -0.3563 -0.1011
 2047TIP3    H127556   3.223   5.272   0.823  0.6720  1.0278 -0.0341
 2047TIP3    H227557   3.274   5.218   0.691 -1.3219 -1.7700  0.3138
 2048TIP3   OH227558   0.256   3.886  10.628  0.1807  0.6310  0.0263
 2048TIP3    H127559   0.340   3.930  10.643  0.7308 -0.7766  1.1906
 2048TIP3    H227560   0.279   3.796  10.604 -0.9704  0.5509 -0.8246
 2049TIP3   OH227561   4.995   6.200  16.320  0.5171  0.1615  0.4285
 2049TIP3    H127562   4.930   6.270  16.322 -1.4125 -1.5518 -0.8885
 2049TIP3    H227563   5.061   6.230  16.257 -0.9283  0.2841 -1.0527
 2050TIP3   OH227564   2.409   0.807   3.099 -0.1683 -0.4083 -0.3059
 2050TIP3    H127565   2.415   0.880   3.037 -0.3196 -0.1755 -0.0495
 2050TIP3    H227566   2.369   0.846   3.177  0.0836 -0.6858 -0.0386
 2051TIP3   OH227567   5.747   6.624   1.621  0.7604 -0.2436  0.2396
 2051TIP3    H127568   5.655   6.599   1.631  0.9529 -1.1415 -0.1236
 2051TIP3    H227569   5.783   6.559   1.560  1.6257  0.1161  0.3529
 2052TIP3   OH227570   3.611   4.158   0.941  0.1430  0.4554  0.2785
 2052TIP3    H127571   3.638   4.068   0.927  0.2446  0.5933 -0.4386
 2052TIP3    H227572   3.518   4.160   0.915  0.0251  0.4594  0.7012
 2053TIP3   OH227573   5.319   5.728  15.667  0.0238 -0.0546 -0.0492
 2053TIP3    H127574   5.356   5.803  15.715  2.0177 -1.1853  0.2595
 2053TIP3    H227575   5.284   5.671  15.736  1.6822 -1.0388  0.0297
 2054TIP3   OH227576   4.868   4.798   1.706 -0.5238 -0.2185  0.5916
 2054TIP3    H127577   4.836   4.768   1.621 -1.7806 -0.3064  1.0705
 2054TIP3    H227578   4.849   4.892   1.707 -1.6619 -0.4395  1.2418
 2055TIP3   OH227579   5.190   0.978  16.976 -0.3798 -0.1493  0.1605
 2055TIP3    H127580   5.230   0.897  17.007  0.0257 -0.8356 -2.0637
 2055TIP3    H227581   5.264   1.032  16.947 -0.7963  0.1768 -0.3030
 2056TIP3   OH227582   0.944   1.057  15.298  0.3234 -0.2772 -0.2417
 2056TIP3    H127583   0.909   1.085  15.382 -0.9750 -0.8011 -0.5801
 2056TIP3    H227584   0.946   1.137  15.245  0.2297 -0.1193 -0.0087
 2057TIP3   OH227585   6.524   1.360  15.797  1.0263  0.2538  0.3830
 2057TIP3    H127586   6.478   1.377  15.714 -1.0756  1.0098  1.6776
 2057TIP3    H227587   6.456   1.364  15.864  2.5012 -1.4968  2.0608
 2058TIP3   OH227588   5.117   6.691  16.599  0.2311  0.5112 -0.4655
 2058TIP3    H127589   5.074   6.774  16.579  0.5008  1.1675  1.5525
 2058TIP3    H227590   5.105   6.638  16.520 -0.2385  2.3361 -1.6455
 2059TIP3   OH227591   5.697   5.464   2.979 -0.1791  0.3377  0.1308
 2059TIP3    H127592   5.751   5.396   3.020  1.3458 -0.0027 -2.3043
 2059TIP3    H227593   5.624   5.416   2.940  0.6691  0.1020 -1.2164
 2060TIP3   OH227594   4.990   3.411  16.376 -0.2534 -0.4653  0.3938
 2060TIP3    H127595   4.924   3.363  16.326 -0.3158 -1.2469  1.2102
 2060TIP3    H227596   4.992   3.366  16.461 -0.6983  1.2970  1.3590
 2061TIP3   OH227597   5.776   1.380   2.677  0.2754 -0.1274 -0.2170
 2061TIP3    H127598   5.815   1.330   2.605 -0.4300 -0.4099 -0.4071
 2061TIP3    H227599   5.682   1.373   2.662  0.1454  0.3005  0.4111
 2062TIP3   OH227600   5.448   1.776  16.563 -0.8678  0.5153 -0.3391
 2062TIP3    H127601   5.443   1.849  16.625  0.0785  0.3759 -0.0868
 2062TIP3    H227602   5.491   1.706  16.612 -1.3361 -0.0430 -0.7304
 2063TIP3   OH227603   4.816   4.655  11.630  0.3021 -0.2405  0.8183
 2063TIP3    H127604   4.854   4.638  11.543  1.3222 -1.9614  1.5564
 2063TIP3    H227605   4.729   4.689  11.612  0.7636  0.1094 -0.8884
 2064TIP3   OH227606   0.206   1.551   1.325  0.5409 -0.2007 -0.3583
 2064TIP3    H127607   0.136   1.531   1.387 -0.7525 -3.0537 -2.6137
 2064TIP3    H227608   0.285   1.517   1.366  0.0705 -0.0654  0.6772
 2065TIP3   OH227609   4.075   1.816  13.760 -0.0643  0.2210  0.1673
 2065TIP3    H127610   4.146   1.756  13.784  0.2365  0.6777  0.4290
 2065TIP3    H227611   4.120   1.894  13.727 -0.4530  0.3450 -0.0780
 2066TIP3   OH227612   6.468   0.023   5.915 -0.1823 -0.4645  0.0679
 2066TIP3    H127613   6.553   0.067   5.910 -1.0785  1.5105  1.2963
 2066TIP3    H227614   6.489  -0.069   5.929  1.7825  0.2132  1.8701
 2067TIP3   OH227615   0.563   5.776   3.584 -0.3571  0.5353  0.1958
 2067TIP3    H127616   0.651   5.738   3.580 -0.2841  0.7425 -0.2537
 2067TIP3    H227617   0.534   5.761   3.674  0.8421  2.0168  0.8593
 2068TIP3   OH227618   6.454   5.559  12.831 -0.1614 -0.4794 -0.3045
 2068TIP3    H127619   6.484   5.547  12.922  3.0616  0.6764 -1.1316
 2068TIP3    H227620   6.471   5.474  12.790 -1.4419 -0.9444  0.1243
 2069TIP3   OH227621   1.469   6.189   5.890  0.6044 -0.8572 -0.3741
 2069TIP3    H127622   1.493   6.158   5.977 -0.5864  0.3093  0.3922
 2069TIP3    H227623   1.388   6.142   5.869  0.1182 -0.1028 -0.2328
 2070TIP3   OH227624   4.761   1.147  16.343  0.0441  0.0597 -0.1197
 2070TIP3    H127625   4.823   1.087  16.302  0.0637 -0.1888  0.2722
 2070TIP3    H227626   4.743   1.212  16.276  2.2737  1.2836  0.4305
 2071TIP3   OH227627   6.536   0.754  15.769 -0.3584 -0.3223 -0.4126
 2071TIP3    H127628   6.609   0.736  15.709 -0.7636 -2.0204 -0.3966
 2071TIP3    H227629   6.476   0.681  15.757 -1.6928  0.6446  0.1850
 2072TIP3   OH227630   2.900   1.215  11.268  0.0058 -0.0497 -0.3886
 2072TIP3    H127631   2.899   1.198  11.173  1.0337 -1.0376 -0.2334
 2072TIP3    H227632   2.826   1.165  11.301  0.2629 -0.5399 -0.5426
 2073TIP3   OH227633   4.870   4.349  10.478 -0.3787 -0.6567 -0.1964
 2073TIP3    H127634   4.957   4.358  10.517 -0.5458  1.7314 -0.2891
 2073TIP3    H227635   4.843   4.259  10.498  1.5410 -0.9872  0.9876
 2074TIP3   OH227636   3.660   5.375  12.798  0.1571 -0.4634 -0.0781
 2074TIP3    H127637   3.598   5.312  12.835 -1.1374  1.0288  0.3428
 2074TIP3    H227638   3.634   5.384  12.706  0.3318 -0.5188 -0.1344
 2075TIP3   OH227639   6.295   5.328   1.092  0.9281 -0.6836 -0.0115
 2075TIP3    H127640   6.320   5.395   1.028  0.9190 -1.3211 -0.6837
 2075TIP3    H227641   6.359   5.258   1.079 -0.2830 -1.6731 -0.6818
 2076TIP3   OH227642   6.742   0.080  14.807 -0.5199  0.3015 -1.0661
 2076TIP3    H127643   6.704   0.001  14.769 -0.5965 -0.2395  0.0908
 2076TIP3    H227644   6.832   0.082  14.774 -0.6434 -0.0616 -1.4187
 2077TIP3   OH227645   1.411   5.720  10.818 -0.2286 -0.0335 -0.1117
 2077TIP3    H127646   1.418   5.814  10.838  0.0503  0.0814 -0.7419
 2077TIP3    H227647   1.317   5.704  10.814 -0.2791  0.1713  0.2316
 2078TIP3   OH227648   4.873   2.725  11.671  0.0920  0.3062  0.0442
 2078TIP3    H127649   4.897   2.634  11.687  2.0111  0.7875  0.0475
 2078TIP3    H227650   4.792   2.737  11.720 -0.1933 -1.3919  0.0366
 2079TIP3   OH227651   1.040   0.981  13.881 -0.0036 -0.0537 -0.6214
 2079TIP3    H127652   1.082   1.054  13.835  0.8376 -0.0769  0.0910
 2079TIP3    H227653   1.097   0.906  13.861 -0.0505 -0.2125 -0.1565
 2080TIP3   OH227654   4.087   6.422   5.330  0.1164 -0.2406 -0.4358
 2080TIP3    H127655   4.136   6.348   5.367  0.0460  0.0088  0.1623
 2080TIP3    H227656   4.100   6.493   5.393 -1.4963 -0.3367  0.0080
 2081TIP3   OH227657   1.335   4.923  10.555 -0.4694  0.0964 -0.4086
 2081TIP3    H127658   1.248   4.949  10.524 -0.2871 -2.1245 -2.9642
 2081TIP3    H227659   1.331   4.828  10.563  1.5243  0.0245  0.1591
 2082TIP3   OH227660   1.403   6.084   3.684 -0.3037  0.3878  0.1691
 2082TIP3    H127661   1.334   6.075   3.618 -0.6211 -0.6980  0.6365
 2082TIP3    H227662   1.367   6.043   3.762  0.6033  0.4329  0.6186
 2083TIP3   OH227663   4.177   6.508  11.596 -0.2831  0.1012  0.2821
 2083TIP3    H127664   4.260   6.461  11.587 -0.9788 -1.1226  0.1301
 2083TIP3    H227665   4.148   6.490  11.686 -0.1176  0.9659  0.5099
 2084TIP3   OH227666   2.957   0.702   2.153  0.2939 -0.2799  0.5806
 2084TIP3    H127667   3.025   0.658   2.203  0.6354 -1.4446 -0.8603
 2084TIP3    H227668   3.003   0.742   2.079  0.1456  3.4658  2.4215
 2085TIP3   OH227669   4.602   1.801  12.389  0.0034  0.2095  0.4739
 2085TIP3    H127670   4.632   1.842  12.307 -0.6307 -1.4356 -0.6095
 2085TIP3    H227671   4.605   1.871  12.453  3.3001  0.8421 -0.2840
 2086TIP3   OH227672   2.065   3.665  15.845 -0.6956 -0.3311  0.4550
 2086TIP3    H127673   1.989   3.703  15.889 -0.6179  0.7784 -0.3249
 2086TIP3    H227674   2.066   3.707  15.759  0.7088 -0.4450  0.3970
 2087TIP3   OH227675   2.830   3.084  14.515 -0.4668  0.3243 -0.2781
 2087TIP3    H127676   2.867   3.008  14.469 -0.1135  0.7709 -0.7347
 2087TIP3    H227677   2.767   3.046  14.576 -0.0097 -0.3742 -0.2280
 2088TIP3   OH227678   6.332   4.078   3.982  0.1361  0.3044 -0.2251
 2088TIP3    H127679   6.389   4.145   3.944 -1.6703  1.8100 -0.3726
 2088TIP3    H227680   6.284   4.124   4.051 -0.8510 -0.9626 -0.0470
 2089TIP3   OH227681   1.042   1.272  16.910  0.8020 -0.4577  0.0613
 2089TIP3    H127682   1.114   1.324  16.944 -0.3223  0.2401  1.4201
 2089TIP3    H227683   0.990   1.334  16.858 -1.7093  0.3646  3.4057
 2090TIP3   OH227684   3.766   2.064   2.434  0.1783 -0.2922 -0.1398
 2090TIP3    H127685   3.809   2.130   2.489  0.9914 -1.1720  0.2960
 2090TIP3    H227686   3.675   2.093   2.428  0.5131  0.8308  0.1095
 2091TIP3   OH227687   5.172   1.247  11.482 -0.1604 -0.2234 -0.1056
 2091TIP3    H127688   5.139   1.199  11.406 -0.6899 -0.5570  0.3309
 2091TIP3    H227689   5.194   1.334  11.448  2.8477 -1.4131 -1.3575
 2092TIP3   OH227690   6.168   0.492  16.251 -0.5355 -0.0872 -0.1619
 2092TIP3    H127691   6.217   0.431  16.306  0.3361  0.8935  0.1703
 2092TIP3    H227692   6.082   0.497  16.291  0.5262  1.7330  1.9925
 2093TIP3   OH227693   4.416   0.328   0.162 -0.4577 -0.0546 -0.4520
 2093TIP3    H127694   4.512   0.326   0.161 -0.4516 -1.2780  0.6553
 2093TIP3    H227695   4.391   0.280   0.083 -0.1666 -0.6381 -0.1896
 2094TIP3   OH227696   5.522   5.827  14.577  0.1292 -0.1907  0.1424
 2094TIP3    H127697   5.595   5.771  14.551 -0.5244  0.4103 -3.2701
 2094TIP3    H227698   5.538   5.910  14.533 -2.9734 -0.3101 -1.3889
 2095TIP3   OH227699   5.907   2.775  14.162 -0.4150 -0.4422 -0.0528
 2095TIP3    H127700   5.851   2.826  14.105 -0.2431 -0.4078 -0.1923
 2095TIP3    H227701   5.849   2.708  14.200 -0.4484 -0.7092 -0.5661
 2096TIP3   OH227702   6.669   1.569  15.950  0.3492  0.0496  0.3082
 2096TIP3    H127703   6.612   1.646  15.960 -0.9119 -0.9290  0.8417
 2096TIP3    H227704   6.628   1.518  15.880  1.3058 -0.0370 -0.1963
 2097TIP3   OH227705   6.376   1.059   0.725  0.2886 -0.2242 -0.3654
 2097TIP3    H127706   6.445   1.125   0.734  0.6405 -0.8103  1.4892
 2097TIP3    H227707   6.413   0.981   0.766 -0.9056 -0.9756 -0.7143
 2098TIP3   OH227708   6.285   5.684   2.761  0.6253 -0.0465  0.2623
 2098TIP3    H127709   6.268   5.699   2.854  0.2956  2.6036 -0.1873
 2098TIP3    H227710   6.202   5.654   2.726  0.4740 -0.0746  0.6412
 2099TIP3   OH227711   1.664   2.975  12.179 -0.3336 -0.1403  0.7107
 2099TIP3    H127712   1.672   3.059  12.134 -0.3754 -1.4964 -1.8950
 2099TIP3    H227713   1.615   2.996  12.259 -2.7069  1.8851 -1.1717
 2100TIP3   OH227714   4.671   2.618  11.391 -0.9654  0.1431  0.2029
 2100TIP3    H127715   4.677   2.651  11.481 -1.5456 -0.0366  0.3112
 2100TIP3    H227716   4.682   2.524  11.399 -2.4584 -0.0389  0.2562
 2101TIP3   OH227717   2.937   0.477   5.293 -0.0577 -0.2228  0.2174
 2101TIP3    H127718   2.963   0.569   5.289 -2.0745  0.3481 -0.7719
 2101TIP3    H227719   2.907   0.465   5.383  0.5459  0.0021  0.4485
 2102TIP3   OH227720   1.365   1.678  15.026  0.1240  0.1276  0.5127
 2102TIP3    H127721   1.313   1.605  14.992  0.1238  0.7422 -0.8380
 2102TIP3    H227722   1.387   1.652  15.116  0.8280 -1.8916 -0.2188
 2103TIP3   OH227723   6.215   5.049   1.145 -0.1658 -0.3274 -0.0967
 2103TIP3    H127724   6.223   5.086   1.233 -0.1514  2.4866 -1.2160
 2103TIP3    H227725   6.295   5.076   1.100 -0.1175 -1.8513 -0.9625
 2104TIP3   OH227726   2.406   3.721   6.012 -0.0901  0.4307  0.3257
 2104TIP3    H127727   2.447   3.694   5.930  0.4964  1.6520  0.2046
 2104TIP3    H227728   2.326   3.766   5.986 -0.4903 -0.1762  0.4823
 2105TIP3   OH227729   5.950   0.562   3.139  0.3258 -0.1698 -0.1886
 2105TIP3    H127730   5.916   0.587   3.053  1.8499 -1.1144 -1.0907
 2105TIP3    H227731   6.037   0.528   3.121  0.1569 -1.6029  1.6000
 2106TIP3   OH227732   6.652   2.687  13.613 -0.1055 -0.2182 -0.0738
 2106TIP3    H127733   6.639   2.716  13.703  1.0058 -1.5877  0.5619
 2106TIP3    H227734   6.564   2.664  13.582 -0.2247 -2.1971  1.5642
 2107TIP3   OH227735   3.048   0.419  12.834  0.0111  0.3150  0.4966
 2107TIP3    H127736   2.997   0.474  12.774  0.1394  1.8332  1.7446
 2107TIP3    H227737   2.994   0.414  12.913 -0.0934 -1.5512  0.3261
 2108TIP3   OH227738   3.265   3.292   3.515  0.8348 -0.1238 -0.6283
 2108TIP3    H127739   3.309   3.294   3.600 -0.4381 -0.8291  0.0633
 2108TIP3    H227740   3.179   3.255   3.533  0.2392  0.4889 -2.0920
 2109TIP3   OH227741   3.833   6.336  14.782 -0.3522  0.4194 -0.3899
 2109TIP3    H127742   3.764   6.346  14.716  0.9890 -1.0113 -2.0461
 2109TIP3    H227743   3.891   6.269  14.746  0.6646 -0.0414  2.0450
 2110TIP3   OH227744   0.828   4.068   2.189 -0.2897  0.2694 -0.0278
 2110TIP3    H127745   0.815   4.138   2.125 -2.3145  0.1739  0.2504
 2110TIP3    H227746   0.739   4.038   2.210  0.5335 -2.6003 -0.3915
 2111TIP3   OH227747   3.351   0.551  14.632  0.0270 -0.5241  0.1949
 2111TIP3    H127748   3.285   0.515  14.573 -0.3203  1.3303 -0.6069
 2111TIP3    H227749   3.302   0.582  14.708 -0.2706  2.3388 -1.1176
 2112TIP3   OH227750   1.091   3.190  12.600  0.7598 -0.3217  0.0417
 2112TIP3    H127751   1.094   3.102  12.563  0.9396 -0.5154  0.5259
 2112TIP3    H227752   1.014   3.231  12.559  0.2454 -0.9447  0.3853
 2113TIP3   OH227753   2.416   0.477  14.502  0.7576 -0.4183 -0.1987
 2113TIP3    H127754   2.490   0.426  14.537  0.0854 -1.6405 -0.5144
 2113TIP3    H227755   2.407   0.550  14.563  1.8167 -0.6095  0.2085
 2114TIP3   OH227756   4.711   6.574  14.088  0.0810 -0.1835 -0.7674
 2114TIP3    H127757   4.621   6.560  14.118 -0.2953  1.2564 -1.1794
 2114TIP3    H227758   4.725   6.506  14.022 -0.3179 -1.0946  0.0672
 2115TIP3   OH227759   6.075   5.695  15.287 -0.7033  0.5457  0.1870
 2115TIP3    H127760   5.992   5.681  15.241  0.2333 -0.9207 -1.0970
 2115TIP3    H227761   6.134   5.629  15.251  0.7854  1.0055  1.7106
 2116TIP3   OH227762   0.899   2.353   2.088 -0.2521  0.0337  0.0582
 2116TIP3    H127763   0.922   2.302   2.010 -2.7078  0.6476 -1.1410
 2116TIP3    H227764   0.953   2.317   2.158  1.3580 -1.1288 -1.7508
 2117TIP3   OH227765   4.840   0.677  15.232  0.4121 -0.5121  0.1520
 2117TIP3    H127766   4.935   0.669  15.236  0.3263 -2.3002 -0.9675
 2117TIP3    H227767   4.824   0.771  15.242  2.4404  0.1091 -1.9721
 2118TIP3   OH227768   0.798   1.887   0.859 -0.6098 -0.3123  0.1680
 2118TIP3    H127769   0.759   1.800   0.869 -0.4906 -0.4047 -0.1621
 2118TIP3    H227770   0.874   1.886   0.917 -0.4741 -0.5118 -0.0133
 2119TIP3   OH227771   3.956   3.935   1.389 -0.0980 -0.3438 -0.9616
 2119TIP3    H127772   3.881   3.992   1.370 -0.2705 -0.4019 -0.4702
 2119TIP3    H227773   3.992   3.969   1.471 -0.1596 -0.8990 -0.7031
 2120TIP3   OH227774   1.307   3.483  10.765 -0.0061 -0.2952  0.1033
 2120TIP3    H127775   1.254   3.478  10.685 -2.0650 -3.1731  1.5316
 2120TIP3    H227776   1.251   3.529  10.827  0.4790 -0.4986  0.6941
 2121TIP3   OH227777   6.560   1.717  12.150 -0.1704 -0.3272 -0.1773
 2121TIP3    H127778   6.601   1.799  12.175 -1.3065  0.0279  0.5365
 2121TIP3    H227779   6.629   1.651  12.161  0.6555  0.4798 -0.4886
 2122TIP3   OH227780   1.773   3.577   5.129  0.1413  0.2015  0.0171
 2122TIP3    H127781   1.813   3.633   5.063 -0.4494  1.0700  0.3930
 2122TIP3    H227782   1.703   3.531   5.083  1.3768 -1.1460 -0.5860
 2123TIP3   OH227783   0.574   4.858   3.627  0.2228  0.1142  0.1753
 2123TIP3    H127784   0.578   4.943   3.669 -0.5968  0.5179 -0.5394
 2123TIP3    H227785   0.542   4.799   3.695 -2.5229  1.0402 -0.2627
 2124TIP3   OH227786   3.194   0.033  11.988  0.2553  0.0038 -0.6526
 2124TIP3    H127787   3.241   0.023  11.905 -1.1935 -0.2101 -1.4580
 2124TIP3    H227788   3.263   0.034  12.055  1.5276  1.4979 -1.9570
 2125TIP3   OH227789   3.085   3.224   3.894 -0.5304  0.1325  0.1787
 2125TIP3    H127790   3.057   3.132   3.890  0.2739 -0.1304  0.5159
 2125TIP3    H227791   3.139   3.229   3.972  2.1781  0.1309 -1.6439
 2126TIP3   OH227792   1.170   5.731  16.321 -0.6624  0.1630  0.0438
 2126TIP3    H127793   1.209   5.815  16.294  1.0572 -0.0317  1.7717
 2126TIP3    H227794   1.082   5.732  16.283 -0.2702  2.2549 -0.9023
 2127TIP3   OH227795   5.954   1.953  16.015  0.5293 -0.8749  0.2307
 2127TIP3    H127796   5.955   1.906  15.932  1.2874 -0.4609  0.0024
 2127TIP3    H227797   5.871   1.927  16.057 -1.0281  0.8282 -1.7304
 2128TIP3   OH227798   2.267   5.608  16.630  0.3638 -0.5293  0.0150
 2128TIP3    H127799   2.347   5.562  16.655  0.7015  0.0155 -0.0656
 2128TIP3    H227800   2.297   5.689  16.590 -0.2030 -0.7499 -0.8802
 2129TIP3   OH227801   2.122   5.441  16.435 -0.2763 -0.4325  0.6048
 2129TIP3    H127802   2.157   5.515  16.485 -0.7724  0.3534 -0.2030
 2129TIP3    H227803   2.196   5.409  16.384 -0.2869  0.0826  0.2655
 2130TIP3   OH227804   1.923   4.071   0.679  0.0359  0.2565  0.1752
 2130TIP3    H127805   1.832   4.045   0.695 -0.2586  0.3936 -1.1699
 2130TIP3    H227806   1.928   4.161   0.710  0.5191 -0.6881  2.9755
 2131TIP3   OH227807   0.222   6.760  14.783  0.3375 -0.0086 -0.4380
 2131TIP3    H127808   0.276   6.765  14.704 -0.3357  0.0161 -0.9001
 2131TIP3    H227809   0.225   6.668  14.808  1.6073  0.1997  0.2623
 2132TIP3   OH227810   2.453   4.919   5.905  0.1620  0.0057 -0.9493
 2132TIP3    H127811   2.410   4.844   5.946 -0.2751 -0.0889 -1.5742
 2132TIP3    H227812   2.545   4.894   5.901  0.7821  1.3947  3.0274
 2133TIP3   OH227813   4.768   6.202  11.216 -0.1731 -0.0333  0.4675
 2133TIP3    H127814   4.729   6.120  11.247  0.4915 -0.9719 -1.1513
 2133TIP3    H227815   4.853   6.177  11.181  0.9328  1.6791  1.8486
 2134TIP3   OH227816   3.811   1.908   0.117  0.4475 -0.6489  0.0466
 2134TIP3    H127817   3.800   1.815   0.138 -2.9832 -0.5915 -1.1589
 2134TIP3    H227818   3.743   1.926   0.053  2.4711  2.2193 -1.3933
 2135TIP3   OH227819   5.489   1.567  15.774  0.0990  0.0476 -0.2493
 2135TIP3    H127820   5.483   1.583  15.868  0.6577 -1.1783  0.0038
 2135TIP3    H227821   5.579   1.587  15.751  0.7389 -2.3328  0.0216
 2136TIP3   OH227822   6.076   2.019  11.323 -0.2537  0.0167  0.4424
 2136TIP3    H127823   6.026   2.078  11.379 -0.9294  0.0639 -0.1977
 2136TIP3    H227824   6.148   1.988  11.378  0.8987  2.4853  0.4153
 2137TIP3   OH227825   2.433   4.917   3.918 -0.5439 -0.5258 -0.2912
 2137TIP3    H127826   2.400   4.835   3.883 -1.7997  0.1313 -0.6755
 2137TIP3    H227827   2.390   4.985   3.867 -1.5627  0.4380  1.7601
 2138TIP3   OH227828   3.904   5.853   5.211 -0.0087  0.8122 -0.5919
 2138TIP3    H127829   3.935   5.774   5.256 -1.2687  0.1448 -0.8851
 2138TIP3    H227830   3.962   5.923   5.243 -0.8484  0.3609  2.0174
 2139TIP3   OH227831   3.788   1.051   1.019 -0.0673  0.5216 -1.1539
 2139TIP3    H127832   3.729   1.119   0.987  0.7141  1.1729 -1.2485
 2139TIP3    H227833   3.762   0.972   0.972 -0.0212  1.0886 -2.1445
 2140TIP3   OH227834   2.960   3.304  12.342 -0.0595 -0.1568 -0.8032
 2140TIP3    H127835   3.027   3.261  12.396  1.0144  1.6993 -0.5940
 2140TIP3    H227836   2.936   3.382  12.393 -1.5693 -0.2199 -1.4150
 2141TIP3   OH227837   5.557   5.744   4.157  0.4111 -0.0846 -0.4372
 2141TIP3    H127838   5.498   5.670   4.174  0.7875 -0.3826 -0.4258
 2141TIP3    H227839   5.498   5.815   4.132  0.0257 -0.3171 -0.2111
 2142TIP3   OH227840   2.414   6.454  11.047  0.1806 -0.3365  0.3132
 2142TIP3    H127841   2.329   6.451  11.092 -0.4230 -0.9042 -0.8489
 2142TIP3    H227842   2.404   6.394  10.973  1.3728  0.1118 -0.2206
 2143TIP3   OH227843   4.433   1.790   4.864 -0.7869  0.0719  0.1747
 2143TIP3    H127844   4.528   1.782   4.878 -0.6228  0.4261 -0.6872
 2143TIP3    H227845   4.411   1.717   4.806 -1.0661 -0.0764  0.4651
 2144TIP3   OH227846   5.332   1.737  12.360 -0.0900  0.5089 -0.2986
 2144TIP3    H127847   5.312   1.829  12.344  2.5356  1.0688 -0.5311
 2144TIP3    H227848   5.266   1.709  12.423 -1.1816  2.4329 -0.5599
 2145TIP3   OH227849   2.781   6.116   5.636  0.1430  0.1378 -0.2501
 2145TIP3    H127850   2.810   6.157   5.554 -0.3931 -0.7216 -0.8766
 2145TIP3    H227851   2.794   6.184   5.702  2.2628  0.2480 -0.7369
 2146TIP3   OH227852   0.357   6.511  14.168  0.3084  0.4978  0.1175
 2146TIP3    H127853   0.274   6.556  14.175  1.1837  2.4909 -2.0014
 2146TIP3    H227854   0.417   6.562  14.224  0.3980 -0.2959  0.7668
 2147TIP3   OH227855   1.113   1.680   0.552 -0.5051 -0.3626 -0.2034
 2147TIP3    H127856   1.165   1.722   0.621  0.3321  0.7703 -1.4973
 2147TIP3    H227857   1.149   1.592   0.545  0.9815  0.2802 -0.7957
 2148TIP3   OH227858   4.602   1.252  12.255 -0.0937 -0.1968  0.0330
 2148TIP3    H127859   4.615   1.235  12.348  2.2525 -0.9645 -0.4136
 2148TIP3    H227860   4.542   1.183  12.226 -2.4606  1.2289  1.3557
 2149TIP3   OH227861   1.026   3.879  16.844 -0.3462  0.6727 -0.4959
 2149TIP3    H127862   0.991   3.899  16.931 -1.5569  0.7722 -0.9973
 2149TIP3    H227863   0.950   3.885  16.786  0.3720  0.1602 -1.4910
 2150TIP3   OH227864   5.645   4.900  14.386 -0.2012  0.1009  0.1083
 2150TIP3    H127865   5.604   4.985  14.399  0.9134  0.5183  0.9200
 2150TIP3    H227866   5.574   4.837  14.400 -0.7119  0.8341  0.8555
 2151TIP3   OH227867   4.483   3.973  13.029 -0.3647 -0.2194  0.1631
 2151TIP3    H127868   4.460   3.884  13.053  2.6422 -1.6108 -1.7704
 2151TIP3    H227869   4.521   4.010  13.108 -1.6044 -0.6556  0.9666
 2152TIP3   OH227870   6.446   3.987   2.063 -0.1540  0.2999  0.0717
 2152TIP3    H127871   6.492   3.950   2.138  0.6673  0.9136 -0.1213
 2152TIP3    H227872   6.420   3.911   2.011 -1.2458 -0.1736  1.2554
 2153TIP3   OH227873   4.907   5.008  13.340 -0.0204  0.2065 -0.1399
 2153TIP3    H127874   4.853   4.985  13.265  1.4914 -0.4247 -1.0574
 2153TIP3    H227875   4.943   4.925  13.370  2.2554  0.8574 -0.9681
 2154TIP3   OH227876   1.374   3.900  15.325  0.5252 -0.7907  0.1333
 2154TIP3    H127877   1.421   3.824  15.360  0.1869 -1.3178 -0.5476
 2154TIP3    H227878   1.398   3.972  15.384  0.2716 -1.5771  1.2156
 2155TIP3   OH227879   3.486   0.253   2.910 -0.3792 -0.1430  0.0978
 2155TIP3    H127880   3.459   0.283   2.824 -0.6599 -1.2910 -0.2155
 2155TIP3    H227881   3.470   0.159   2.909  1.3121 -0.4478  0.7666
 2156TIP3   OH227882   4.228   3.991  16.256  0.3670  0.4247 -0.2931
 2156TIP3    H127883   4.172   3.997  16.178  1.2747 -0.4008 -1.0273
 2156TIP3    H227884   4.194   3.915  16.304  1.1665 -0.4009 -1.0076
 2157TIP3   OH227885   4.026   1.158   0.851 -0.5536  0.1034 -0.5697
 2157TIP3    H127886   4.000   1.083   0.797 -2.9190  1.0439 -0.8096
 2157TIP3    H227887   3.953   1.171   0.911  0.6471  1.0679  0.7035
 2158TIP3   OH227888   1.441   3.443   2.253 -0.7446  0.4410 -0.2240
 2158TIP3    H127889   1.499   3.399   2.316  0.0124  0.5629 -0.8187
 2158TIP3    H227890   1.361   3.461   2.302 -0.5356 -0.3467  0.4223
 2159TIP3   OH227891   6.115   0.077  11.088  0.1413  0.7249  0.4396
 2159TIP3    H127892   6.141   0.088  11.179 -0.0402  1.3090  0.4170
 2159TIP3    H227893   6.072   0.159  11.064 -1.3877 -0.0793  0.3563
 2160TIP3   OH227894   4.071   6.752   3.957  0.3527 -0.4879  0.5707
 2160TIP3    H127895   4.151   6.707   3.986  1.1617  0.5119 -0.0679
 2160TIP3    H227896   4.064   6.729   3.864 -0.0921 -0.5402  0.6172
 2161TIP3   OH227897   0.851   1.022  17.035 -0.7931  0.3641  0.3708
 2161TIP3    H127898   0.904   1.101  17.046 -0.9024  0.2797  1.5651
 2161TIP3    H227899   0.826   1.023  16.943 -1.2378  2.0088  0.4930
 2162TIP3   OH227900   5.945   1.109   4.190  0.1800  0.0761  0.8168
 2162TIP3    H127901   5.882   1.181   4.192  1.4362  1.2219 -0.2389
 2162TIP3    H227902   5.893   1.033   4.162 -1.0780  0.6312  1.5973
 2163TIP3   OH227903   0.608   2.349   1.486 -0.0900 -0.7635 -0.6355
 2163TIP3    H127904   0.702   2.353   1.466  0.0542 -0.5362  0.0632
 2163TIP3    H227905   0.579   2.265   1.451  0.8702 -1.8904  1.1780
 2164TIP3   OH227906   1.752   3.702  13.273  0.1169  0.6405  0.3627
 2164TIP3    H127907   1.806   3.736  13.345  1.7223  0.0478 -0.5618
 2164TIP3    H227908   1.775   3.757  13.198 -1.6326  1.3215  0.2954
 2165TIP3   OH227909   4.666   3.581   0.397 -0.8500  0.4862 -0.2282
 2165TIP3    H127910   4.703   3.600   0.483  2.0083 -1.1197 -1.0168
 2165TIP3    H227911   4.689   3.490   0.381 -2.1343  0.4966 -2.3185
 2166TIP3   OH227912   5.653   1.605  17.096  0.1489 -0.5923 -0.1320
 2166TIP3    H127913   5.710   1.647  17.031 -0.2651 -0.3778 -0.3529
 2166TIP3    H227914   5.656   1.663  17.172 -0.8462  0.1084 -0.6304
 2167TIP3   OH227915   2.531   4.465  17.025 -0.1632 -0.5525  0.2131
 2167TIP3    H127916   2.519   4.465  16.930 -1.1979 -1.1457  0.3394
 2167TIP3    H227917   2.443   4.475  17.061  0.3905  1.2704  1.1146
 2168TIP3   OH227918   5.566   5.805   5.244  0.2146  0.6718 -0.0839
 2168TIP3    H127919   5.546   5.890   5.205 -1.1701 -0.3037 -1.5181
 2168TIP3    H227920   5.488   5.782   5.294  0.3001 -0.1282 -0.3259
 2169TIP3   OH227921   0.771   6.109   5.309 -0.6777  0.2377 -0.4425
 2169TIP3    H127922   0.796   6.181   5.367 -1.9264  0.2387  0.1179
 2169TIP3    H227923   0.851   6.086   5.263  0.2427  0.5245  0.9804
 2170TIP3   OH227924   3.624   6.756   3.829  0.5483  0.0034  0.1159
 2170TIP3    H127925   3.664   6.824   3.884  2.6485 -1.9243  1.0456
 2170TIP3    H227926   3.682   6.680   3.839 -1.3269 -1.6901 -1.5140
 2171TIP3   OH227927   4.926   1.837  13.972  0.1149  0.2181 -0.3710
 2171TIP3    H127928   4.936   1.887  14.052  1.9474  0.4449 -0.7240
 2171TIP3    H227929   5.016   1.814  13.946 -0.5243 -0.8947 -1.6856
 2172TIP3   OH227930   6.401   5.117  11.843  0.0387  0.2527 -0.0065
 2172TIP3    H127931   6.495   5.114  11.864 -0.0082 -0.9688  0.0679
 2172TIP3    H227932   6.382   5.210  11.833  1.1572  0.5460  0.4639
 2173TIP3   OH227933   4.447   4.145   5.525 -0.0580 -0.2547 -0.5179
 2173TIP3    H127934   4.443   4.062   5.477  0.3467 -0.1543 -0.7229
 2173TIP3    H227935   4.356   4.170   5.537 -0.1713 -0.5501 -0.7649
 2174TIP3   OH227936   1.000   2.970  11.954 -0.0824 -0.5043 -0.3527
 2174TIP3    H127937   0.975   2.985  12.045  1.2518 -0.1110 -0.0440
 2174TIP3    H227938   0.953   3.037  11.905  0.0512 -0.0145  0.1811
 2175TIP3   OH227939   5.184   2.870  12.474  0.1686  0.5564 -0.0091
 2175TIP3    H127940   5.232   2.918  12.407  0.4799 -1.0877 -0.9984
 2175TIP3    H227941   5.248   2.853  12.543  1.0100 -1.5277 -1.2726
 2176TIP3   OH227942   1.860   4.610   3.274  0.1755 -0.2953  0.2562
 2176TIP3    H127943   1.919   4.562   3.216  0.1610 -0.2038  0.1665
 2176TIP3    H227944   1.824   4.543   3.333 -0.1626 -0.4563 -0.1374
 2177TIP3   OH227945   0.709   6.344  15.362  0.5925 -0.6608 -0.1945
 2177TIP3    H127946   0.777   6.404  15.332 -0.0835  0.0849 -0.2377
 2177TIP3    H227947   0.747   6.257  15.349  1.9956 -0.2311  0.8613
 2178TIP3   OH227948   5.060   6.525   2.355 -0.4366  0.2335  0.0707
 2178TIP3    H127949   4.992   6.502   2.419 -1.2288  2.9862  0.3014
 2178TIP3    H227950   5.107   6.598   2.396  2.0224 -0.9374 -0.5574
 2179TIP3   OH227951   0.948   6.225  16.932  0.3152 -0.2953 -0.1909
 2179TIP3    H127952   0.911   6.291  16.873  0.4548 -1.0690 -1.1669
 2179TIP3    H227953   1.006   6.275  16.990  2.1902  0.1652 -2.3898
 2180TIP3   OH227954   4.668   0.491   5.165 -0.5964 -0.2804  0.2694
 2180TIP3    H127955   4.606   0.467   5.234 -1.5439 -1.0204 -0.8088
 2180TIP3    H227956   4.626   0.562   5.118 -0.3266 -0.3321 -0.0531
 2181TIP3   OH227957   5.900   2.008  14.660 -0.4795  0.0622  0.1430
 2181TIP3    H127958   5.882   2.034  14.570 -1.3680 -0.3443  0.1941
 2181TIP3    H227959   5.963   2.072  14.692 -1.4653  1.2247 -0.2270
 2182TIP3   OH227960   3.227   6.385  16.106  0.3996  0.3053  0.6519
 2182TIP3    H127961   3.195   6.322  16.042 -0.5327 -0.3623  1.7453
 2182TIP3    H227962   3.154   6.397  16.166  1.1407  1.1750  1.3941
 2183TIP3   OH227963   4.305   5.146   6.168  0.4193 -0.7740  0.2554
 2183TIP3    H127964   4.229   5.200   6.143  1.3406  1.3049  1.7283
 2183TIP3    H227965   4.267   5.071   6.214 -0.7897 -0.0978  0.3845
 2184TIP3   OH227966   3.246   1.956   0.687  0.2707 -0.5087 -0.5565
 2184TIP3    H127967   3.321   2.000   0.727  0.8807 -1.1374 -0.9869
 2184TIP3    H227968   3.261   1.964   0.593 -0.2809 -0.5025 -0.6465
 2185TIP3   OH227969   0.786   6.146  14.735  0.0428  0.4769  0.1764
 2185TIP3    H127970   0.701   6.178  14.704  0.1641  0.2781 -0.3858
 2185TIP3    H227971   0.791   6.173  14.826 -0.9846 -0.2282  0.4517
 2186TIP3   OH227972   1.608   5.952   5.459  0.0504 -0.0676  0.4890
 2186TIP3    H127973   1.689   6.003   5.452  0.3419 -0.6054 -0.0618
 2186TIP3    H227974   1.574   5.948   5.370 -0.0524 -0.6974  0.5518
 2187TIP3   OH227975   0.736   5.063   1.886  0.8658  0.0073 -0.0663
 2187TIP3    H127976   0.767   5.149   1.857  1.5758 -1.1653 -2.9962
 2187TIP3    H227977   0.801   5.034   1.950  1.5298  0.9758 -0.2944
 2188TIP3   OH227978   5.361   4.458  14.446 -0.3148  1.0834 -0.2247
 2188TIP3    H127979   5.362   4.398  14.521  0.2093  1.7156  0.2820
 2188TIP3    H227980   5.450   4.492  14.442  0.1849 -0.3823 -2.3174
 2189TIP3   OH227981   0.344   5.652   6.371 -0.0796  0.7335  0.1665
 2189TIP3    H127982   0.259   5.609   6.359  0.2437  0.0929  0.1544
 2189TIP3    H227983   0.322   5.740   6.400 -0.7888  1.1890 -1.6779
 2190TIP3   OH227984   6.697   6.145   0.292 -0.1714 -0.2661 -0.0295
 2190TIP3    H127985   6.617   6.094   0.283 -0.2197 -0.2258  0.1583
 2190TIP3    H227986   6.680   6.227   0.248 -0.4381 -0.0295  0.5077
 2191TIP3   OH227987   6.124   1.920  13.786  0.1978 -0.0907 -0.1857
 2191TIP3    H127988   6.094   1.939  13.697 -1.5712 -1.5653  0.0809
 2191TIP3    H227989   6.100   1.999  13.836 -0.7307 -0.1163 -0.5754
 2192TIP3   OH227990   4.661   1.826  11.428 -0.0513  0.0327  0.0631
 2192TIP3    H127991   4.574   1.838  11.389 -0.3252 -0.1755  0.5885
 2192TIP3    H227992   4.715   1.791  11.358 -0.6541 -0.7820 -0.0063
 2193TIP3   OH227993   3.011   2.855   1.958 -0.1627 -0.1003  0.7042
 2193TIP3    H127994   2.989   2.869   1.865 -0.1160  0.7919  0.8167
 2193TIP3    H227995   3.081   2.790   1.956 -0.1254 -0.0490  0.1074
 2194TIP3   OH227996   4.101   6.394   1.359 -0.1229 -0.2519 -0.4974
 2194TIP3    H127997   4.047   6.416   1.434  0.7915  0.5345 -0.0606
 2194TIP3    H227998   4.041   6.395   1.284 -0.5094  1.6232 -0.1649
 2195TIP3   OH227999   5.844   6.377   3.331 -0.2030  0.0970  0.6448
 2195TIP3    H128000   5.838   6.465   3.292 -1.5484  0.4408  1.6042
 2195TIP3    H228001   5.841   6.392   3.426  1.0353 -0.8831  0.8526
 2196TIP3   OH228002   6.056   4.332   2.098  0.5327 -0.3587 -0.2248
 2196TIP3    H128003   6.006   4.307   2.020  1.7333  1.2777 -1.5632
 2196TIP3    H228004   6.139   4.286   2.088  0.4748 -0.5916  0.3836
 2197TIP3   OH228005   3.372   0.946   2.000  0.1286 -0.6144  0.0687
 2197TIP3    H128006   3.432   0.877   2.029 -0.0342 -0.8409 -0.1272
 2197TIP3    H228007   3.421   0.994   1.933  1.1160  0.9460  1.8933
 2198TIP3   OH228008   1.619   6.531  17.119 -0.1241 -0.0247  0.0805
 2198TIP3    H128009   1.524   6.535  17.131 -0.2359 -0.6834 -0.5287
 2198TIP3    H228010   1.639   6.602  17.058 -0.3038 -0.2453 -0.2352
 2199TIP3   OH228011   4.313   4.666  11.847  0.1655 -0.3332 -0.0965
 2199TIP3    H128012   4.222   4.652  11.820 -0.4961  0.1273  1.8531
 2199TIP3    H228013   4.348   4.725  11.780 -1.0908 -0.1549 -0.6235
 2200TIP3   OH228014   2.026   0.802  11.957  0.0204 -0.1247 -0.1336
 2200TIP3    H128015   2.110   0.761  11.980  0.3362  1.2740  1.2808
 2200TIP3    H228016   1.963   0.761  12.017 -0.2981 -1.0900 -1.1168
 2201TIP3   OH228017   3.373   0.266  15.685 -0.4499 -0.3505 -0.4483
 2201TIP3    H128018   3.336   0.307  15.763  0.6828 -1.1412  0.5220
 2201TIP3    H228019   3.415   0.338  15.638 -1.1221  0.1288 -0.3295
 2202TIP3   OH228020   5.462   2.698  11.500 -0.5069 -0.0529  0.2628
 2202TIP3    H128021   5.479   2.608  11.529 -0.9926 -0.1687  0.1936
 2202TIP3    H228022   5.367   2.709  11.510 -0.5601  0.1919 -0.4739
 2203TIP3   OH228023   4.499   5.743   0.731  0.8057  0.1111  0.2376
 2203TIP3    H128024   4.405   5.760   0.738  0.6161 -0.4591 -0.8610
 2203TIP3    H228025   4.525   5.717   0.819 -0.4978 -1.8688  0.0579
 2204TIP3   OH228026   1.243   4.370  12.669 -0.2350 -0.2828  0.0475
 2204TIP3    H128027   1.211   4.291  12.625  0.2414 -1.0588  1.0585
 2204TIP3    H228028   1.237   4.350  12.762 -2.1131  1.6903  0.3858
 2205TIP3   OH228029   2.037   0.911  14.605 -0.5293  0.0965 -0.6610
 2205TIP3    H128030   2.061   0.980  14.542  0.7210 -0.8488 -1.2427
 2205TIP3    H228031   2.082   0.935  14.685  1.7712 -1.2471 -1.5227
 2206TIP3   OH228032   6.547   0.757   3.615 -0.0791  0.6069 -0.9098
 2206TIP3    H128033   6.518   0.705   3.541 -0.0819  0.0450 -0.5125
 2206TIP3    H228034   6.508   0.715   3.691  0.7769  0.5634 -0.4881
 2207TIP3   OH228035   1.925   2.213   5.714  0.3790  0.4433 -0.0148
 2207TIP3    H128036   1.879   2.252   5.788 -0.2774 -0.3228 -0.0061
 2207TIP3    H228037   1.934   2.284   5.651 -1.6566  0.3772 -0.4057
 2208TIP3   OH228038   6.615   4.309   5.058 -0.1106 -0.2292  0.0038
 2208TIP3    H128039   6.705   4.320   5.089 -0.2854  0.6676  0.1993
 2208TIP3    H228040   6.574   4.251   5.122  0.2909 -0.5434 -0.0202
 2209TIP3   OH228041   4.667   2.381   1.192  0.1771  0.4367  0.1161
 2209TIP3    H128042   4.718   2.418   1.264  1.7476 -1.8717  0.2438
 2209TIP3    H228043   4.622   2.306   1.232 -1.1258  0.7927 -0.6668
 2210TIP3   OH228044   6.568   2.072  15.833  0.1296  0.0268  0.3070
 2210TIP3    H128045   6.502   2.092  15.900 -1.2839  0.1788 -1.1044
 2210TIP3    H228046   6.592   2.158  15.797  2.4115  0.1547  1.9716
 2211TIP3   OH228047   5.428   6.485   2.751 -0.4286 -0.2088  0.1465
 2211TIP3    H128048   5.477   6.550   2.700  0.1249  0.3000  1.3087
 2211TIP3    H228049   5.336   6.504   2.731 -0.2047 -0.2672 -0.9572
 2212TIP3   OH228050   6.511   2.800  15.044  0.2366 -0.7315 -0.2378
 2212TIP3    H128051   6.428   2.766  15.011 -0.1767 -0.4943  0.5326
 2212TIP3    H228052   6.502   2.895  15.036 -0.8305 -0.5395  2.7588
 2213TIP3   OH228053   4.430   2.079  11.787  0.0507 -0.1563 -0.4208
 2213TIP3    H128054   4.468   1.991  11.797  0.8298  0.1103 -0.9542
 2213TIP3    H228055   4.348   2.076  11.836  0.2645 -1.0662 -0.1143
 2214TIP3   OH228056   1.628   4.808   0.358 -0.1979  0.2805  0.2998
 2214TIP3    H128057   1.579   4.735   0.395  2.1567 -1.4753  0.0612
 2214TIP3    H228058   1.583   4.886   0.390 -1.6976 -1.2467  2.0289
 2215TIP3   OH228059   1.419   5.789   5.605  0.0192  0.3055  0.0243
 2215TIP3    H128060   1.487   5.840   5.561  0.1321  1.3361  1.3772
 2215TIP3    H228061   1.417   5.823   5.694 -0.9670 -1.0201  0.5204
 2216TIP3   OH228062   0.314   0.252   5.323  0.2397  0.2093 -0.2856
 2216TIP3    H128063   0.338   0.311   5.395 -0.5340  0.1689  0.0145
 2216TIP3    H228064   0.384   0.187   5.321  0.3277  0.2764  0.3626
 2217TIP3   OH228065   3.652   5.590  16.006 -0.2854  0.5235 -0.0184
 2217TIP3    H128066   3.699   5.670  15.985  1.4641 -0.5234 -0.2727
 2217TIP3    H228067   3.715   5.537  16.055 -0.3588 -1.8881 -2.3715
 2218TIP3   OH228068   1.368   2.842   0.519  0.6170  0.1528  0.1023
 2218TIP3    H128069   1.450   2.890   0.534  0.1749  0.7021  0.8033
 2218TIP3    H228070   1.383   2.757   0.559  1.0363  0.0647 -0.2372
 2219TIP3   OH228071   2.403   5.440   5.815  0.0025 -0.3513 -0.8573
 2219TIP3    H128072   2.366   5.473   5.898 -0.6374 -2.0649 -0.4299
 2219TIP3    H228073   2.482   5.492   5.801 -0.4624  0.6895  0.2757
 2220TIP3   OH228074   1.049   5.747  10.995 -0.2169  0.1291 -0.2203
 2220TIP3    H128075   1.119   5.794  11.040 -0.3550 -0.9997  1.2028
 2220TIP3    H228076   0.985   5.814  10.972 -0.1592  0.7155  1.3119
 2221TIP3   OH228077   3.828   0.420   6.646  0.7632 -0.4149  0.1095
 2221TIP3    H128078   3.837   0.394   6.555  2.2633 -0.5704  0.2858
 2221TIP3    H228079   3.805   0.513   6.643  0.3079 -0.5463 -0.4333
 2222TIP3   OH228080   5.757   3.402   0.708  0.2779 -0.6325  0.2039
 2222TIP3    H128081   5.686   3.339   0.695 -0.7210  0.1301  1.8251
 2222TIP3    H228082   5.830   3.349   0.740  0.5715 -1.4735 -1.7991
 2223TIP3   OH228083   5.800   0.157  14.013  0.1386 -0.3919 -0.0241
 2223TIP3    H128084   5.869   0.194  13.958  0.2186  1.0800  1.0395
 2223TIP3    H228085   5.728   0.220  14.007 -1.0723 -1.8399 -1.0029
 2224TIP3   OH228086   0.091   2.451  16.821 -0.7073  0.0674 -0.5093
 2224TIP3    H128087   0.002   2.463  16.788 -1.7340  2.1049  2.6923
 2224TIP3    H228088   0.086   2.373  16.876 -0.2828 -0.3658 -1.0865
 2225TIP3   OH228089   6.380   0.107   3.529 -0.0056 -0.1853 -0.1095
 2225TIP3    H128090   6.316   0.049   3.488 -1.2345  1.5569 -0.7572
 2225TIP3    H228091   6.423   0.151   3.455 -0.2794  0.9390  0.3868
 2226TIP3   OH228092   3.642   4.206   3.009  0.4811  0.4554  0.7574
 2226TIP3    H128093   3.650   4.300   3.022  1.0415  0.2029  2.3606
 2226TIP3    H228094   3.592   4.175   3.084  0.5807 -0.5736  0.4128
 2227TIP3   OH228095   3.425   0.579   4.906 -0.5683  0.5650  0.4694
 2227TIP3    H128096   3.454   0.584   4.815 -0.0710 -0.7115  0.5591
 2227TIP3    H228097   3.341   0.625   4.907 -0.2628  1.1489 -0.5023
 2228TIP3   OH228098   3.263   3.926  17.206  0.3325  0.1544  0.0654
 2228TIP3    H128099   3.336   3.984  17.186 -0.6324  1.0605 -0.8923
 2228TIP3    H228100   3.302   3.839  17.210  1.7129  0.7875  1.0508
 2229TIP3   OH228101   3.616   0.812  16.780  0.3623 -0.6421  0.0039
 2229TIP3    H128102   3.691   0.869  16.799 -0.7606  1.2188 -1.0153
 2229TIP3    H228103   3.656   0.730  16.749  1.9838  0.8617 -2.0090
 2230TIP3   OH228104   2.759   1.326  16.411 -0.8193  0.3020 -0.0570
 2230TIP3    H128105   2.785   1.234  16.398  0.0222  0.3544  1.1478
 2230TIP3    H228106   2.810   1.374  16.346 -0.1857  0.0746  0.2713
 2231TIP3   OH228107   3.591   6.000  11.216  0.5299  0.5338  0.3273
 2231TIP3    H128108   3.535   6.058  11.164 -1.6855 -0.9391  0.9778
 2231TIP3    H228109   3.601   5.922  11.161  0.5858  0.1285  0.9167
 2232TIP3   OH228110   6.658   0.847   4.553 -0.4123  0.0516 -0.2627
 2232TIP3    H128111   6.749   0.844   4.526  0.5365  0.2235  2.8013
 2232TIP3    H228112   6.609   0.837   4.471  2.3163 -0.0517 -1.9478
 2233TIP3   OH228113   4.897   1.837   2.040  0.3936 -0.0048 -0.0319
 2233TIP3    H128114   4.961   1.885   1.988 -0.4882  1.1594 -0.0540
 2233TIP3    H228115   4.832   1.902   2.065  0.3089 -0.7486  1.7484
 2234TIP3   OH228116   3.164   1.859  13.059 -0.2205 -0.5464 -0.2776
 2234TIP3    H128117   3.252   1.879  13.028  0.2004  0.7147  1.6483
 2234TIP3    H228118   3.173   1.775  13.104 -0.1896 -0.8093 -0.7621
 2235TIP3   OH228119   4.109   6.670  15.317  0.4845 -0.1774  0.1403
 2235TIP3    H128120   4.149   6.589  15.349 -0.1988  0.3017  2.3020
 2235TIP3    H228121   4.161   6.740  15.357 -2.2436  0.4637  2.8510
 2236TIP3   OH228122   2.395   1.439  13.352  0.0859 -0.8059 -0.4757
 2236TIP3    H128123   2.368   1.465  13.439 -1.0059 -1.3079 -0.6530
 2236TIP3    H228124   2.365   1.510  13.295  2.0191  0.1957 -0.2938
 2237TIP3   OH228125   6.647   1.856   0.089  0.1374 -0.2708  0.0278
 2237TIP3    H128126   6.674   1.778   0.039  0.9587 -0.4966  0.8075
 2237TIP3    H228127   6.582   1.822   0.152 -0.6849 -0.0377 -0.6893
 2238TIP3   OH228128   3.807   2.041  15.528  0.8777 -0.1026 -0.5584
 2238TIP3    H128129   3.824   2.101  15.455  0.3713 -0.8393 -1.2927
 2238TIP3    H228130   3.747   2.090  15.585  3.4068  1.5304  0.7746
 2239TIP3   OH228131   6.426   5.774  15.789 -0.0915 -0.5781  0.5322
 2239TIP3    H128132   6.395   5.847  15.736  0.1412 -0.4285  0.6025
 2239TIP3    H228133   6.415   5.803  15.879  2.4892  0.4321  0.5564
 2240TIP3   OH228134   6.562   4.053   6.059  0.7374  0.3754 -0.0680
 2240TIP3    H128135   6.609   3.970   6.060 -0.8252 -0.5211  0.3395
 2240TIP3    H228136   6.472   4.030   6.082  0.4817  2.3058  0.9410
 2241TIP3   OH228137   1.985   1.269  13.634 -0.2954  0.3186 -0.1109
 2241TIP3    H128138   1.971   1.189  13.582 -1.5119  0.4505 -0.0125
 2241TIP3    H228139   2.069   1.255  13.677 -0.4584 -0.8900 -0.1525
 2242TIP3   OH228140   6.693   5.740   1.749  0.0868 -0.3428  0.0211
 2242TIP3    H128141   6.770   5.720   1.801 -0.1236 -1.9019 -0.2461
 2242TIP3    H228142   6.650   5.655   1.736 -1.9954  0.5839  0.6739
 2243TIP3   OH228143   0.326   0.093   1.164  0.1893 -0.3289  0.3969
 2243TIP3    H128144   0.267   0.023   1.192 -1.2372 -0.3420 -2.4569
 2243TIP3    H228145   0.279   0.174   1.185  0.4224 -0.2905  0.7669
 2244TIP3   OH228146   0.912   5.743  11.657  0.6045  0.5414 -0.0294
 2244TIP3    H128147   0.892   5.713  11.568  0.9370 -0.2999  0.1736
 2244TIP3    H228148   0.957   5.827  11.644 -1.2621  1.4997 -0.5606
 2245TIP3   OH228149   2.084   1.235  14.731  0.1316 -0.5217  0.4175
 2245TIP3    H128150   2.041   1.276  14.806  0.1294  0.8812 -0.3320
 2245TIP3    H228151   2.077   1.141  14.747 -1.7230 -0.2761  1.1462
 2246TIP3   OH228152   2.403   0.130   4.905  0.6550 -0.9810  0.3441
 2246TIP3    H128153   2.465   0.147   4.834  0.7038  0.1509  0.6366
 2246TIP3    H228154   2.317   0.129   4.863  0.9082 -3.2302 -0.1695
 2247TIP3   OH228155   0.365   4.181  15.764  0.7779  0.1808  0.5972
 2247TIP3    H128156   0.367   4.136  15.848  0.4457 -0.0778  0.4700
 2247TIP3    H228157   0.432   4.249  15.771  3.0560 -1.9264 -0.1030
 2248TIP3   OH228158   5.269   3.138   5.286  0.2577 -0.2417 -0.2388
 2248TIP3    H128159   5.243   3.117   5.375  0.4151  0.3791 -0.0457
 2248TIP3    H228160   5.228   3.223   5.268  1.3971  0.3130 -0.2498
 2249TIP3   OH228161   4.781   4.516   4.684  0.1592 -0.3850  0.0497
 2249TIP3    H128162   4.716   4.446   4.698  0.8506 -0.8554  0.9917
 2249TIP3    H228163   4.730   4.591   4.654 -0.7913 -0.8183  0.5711
 2250TIP3   OH228164   5.087   1.379   2.184 -0.2281 -0.2390  0.2651
 2250TIP3    H128165   5.027   1.304   2.184 -1.0612  0.3851 -2.0324
 2250TIP3    H228166   5.157   1.354   2.124  0.1382  0.3611  0.4372
 2251TIP3   OH228167   6.454   2.302   4.608 -0.1694 -0.4105  0.1721
 2251TIP3    H128168   6.518   2.351   4.556 -2.2063 -0.0281 -2.0866
 2251TIP3    H228169   6.451   2.215   4.567 -0.3415 -0.7435  0.8881
 2252TIP3   OH228170   0.965   1.563   0.838  0.3286  0.0389 -0.3992
 2252TIP3    H128171   0.894   1.620   0.869 -0.8415 -1.1816 -0.7588
 2252TIP3    H228172   1.044   1.601   0.875 -0.5195  1.3920  0.0876
 2253TIP3   OH228173   6.535   3.896  16.982 -0.2345 -0.7108 -0.3437
 2253TIP3    H128174   6.451   3.860  17.013  0.0832 -0.1420  1.2399
 2253TIP3    H228175   6.575   3.933  17.061  1.3654 -0.6943 -1.1530
 2254TIP3   OH228176   0.339   2.454  11.887  0.2914  0.1706  0.5588
 2254TIP3    H128177   0.361   2.380  11.943  2.7038  0.4379  0.0291
 2254TIP3    H228178   0.420   2.506  11.883 -1.2926  2.7371  0.7625
 2255TIP3   OH228179   2.229   0.776  16.174 -0.1093 -0.2807 -0.1163
 2255TIP3    H128180   2.249   0.826  16.094 -0.3305  1.7487  1.0431
 2255TIP3    H228181   2.186   0.840  16.231 -0.4106 -1.8413  1.4239
 2256TIP3   OH228182   5.801   3.202   3.714  0.1132  0.6503 -0.3074
 2256TIP3    H128183   5.732   3.157   3.763  0.5156  1.7503  1.3402
 2256TIP3    H228184   5.882   3.176   3.758  0.6476  0.2441 -1.5242
 2257TIP3   OH228185   4.814   1.231  13.553 -0.1418  0.3156  0.8212
 2257TIP3    H128186   4.851   1.192  13.632 -1.0429 -0.2694  0.9557
 2257TIP3    H228187   4.724   1.253  13.576 -0.8982 -1.2696 -0.5132
 2258TIP3   OH228188   6.306   6.771   0.775  0.3541 -0.5487  0.3043
 2258TIP3    H128189   6.395   6.760   0.744  0.4258 -0.0699  0.3338
 2258TIP3    H228190   6.295   6.704   0.842 -0.0643 -2.0928 -1.2863
 2259TIP3   OH228191   4.574   4.108  11.427  0.1500 -0.2443 -0.6531
 2259TIP3    H128192   4.610   4.174  11.487 -0.5187  0.1985 -0.7284
 2259TIP3    H228193   4.578   4.149  11.341  1.1897 -0.9153 -0.9296
 2260TIP3   OH228194   1.983   4.677  16.652  0.0201 -0.0200  0.0449
 2260TIP3    H128195   1.951   4.697  16.564  0.8484 -1.7774 -0.6601
 2260TIP3    H228196   1.924   4.726  16.710 -0.4115  1.3085 -1.4772
 2261TIP3   OH228197   2.927   5.286  16.141  0.9399  0.5666 -0.9020
 2261TIP3    H128198   2.986   5.286  16.216 -1.2854  0.5833  0.9343
 2261TIP3    H228199   2.905   5.194  16.127 -0.2168  0.7195 -0.2015
 2262TIP3   OH228200   6.053   1.062   4.914 -0.1892  0.2279 -0.7433
 2262TIP3    H128201   6.017   1.072   4.826 -0.8523  0.4018 -0.4576
 2262TIP3    H228202   6.013   1.133   4.965  2.5480  2.0440 -1.0142
 2263TIP3   OH228203   5.322   4.952  11.890  0.1718 -0.1501  0.4898
 2263TIP3    H128204   5.235   4.993  11.891 -0.3218 -1.2046  0.9694
 2263TIP3    H228205   5.383   5.026  11.883 -0.6871  0.7121  1.8007
 2264TIP3   OH228206   1.941   2.094  11.000 -0.4855  0.0801 -0.4447
 2264TIP3    H128207   2.009   2.139  10.949  0.0233  0.2598  0.3940
 2264TIP3    H228208   1.884   2.164  11.031  0.0824  0.1230  0.5259
 2265TIP3   OH228209   3.649   3.953   2.644  0.1903 -0.2020 -0.1165
 2265TIP3    H128210   3.720   3.937   2.581  0.2177 -1.1863  0.1484
 2265TIP3    H228211   3.569   3.931   2.596  0.1548 -0.2572 -0.0305
 2266TIP3   OH228212   3.667   0.228   2.087 -0.0548  0.6610 -0.1664
 2266TIP3    H128213   3.720   0.306   2.070  1.2052 -0.3889 -1.1258
 2266TIP3    H228214   3.724   0.170   2.138 -1.4732  0.9283  1.7927
 2267TIP3   OH228215   6.173   1.277   1.304 -0.2886  0.0181 -0.3280
 2267TIP3    H128216   6.257   1.243   1.272  0.5656  2.0116 -0.2480
 2267TIP3    H228217   6.189   1.298   1.396 -1.6267 -1.9947  0.3868
 2268TIP3   OH228218   1.606   2.935   1.178  0.0044 -0.5217  0.2716
 2268TIP3    H128219   1.537   2.878   1.143 -1.5949  1.8946 -0.7495
 2268TIP3    H228220   1.567   2.974   1.256 -0.0804  1.3327 -0.6561
 2269TIP3   OH228221   5.814   5.899   2.507 -0.2209 -0.3660 -0.3006
 2269TIP3    H128222   5.904   5.867   2.501  0.6221  1.8791 -0.2058
 2269TIP3    H228223   5.770   5.836   2.564  1.3692 -1.3362 -0.1163
 2270TIP3   OH228224   4.855   1.319   3.461 -0.7583  1.1081 -0.2901
 2270TIP3    H128225   4.868   1.232   3.500 -0.3438  0.3070 -2.1044
 2270TIP3    H228226   4.857   1.380   3.534  0.9711 -0.2336  0.8049
 2271TIP3   OH228227   1.622   6.143   1.511 -0.2258  0.1835  0.2414
 2271TIP3    H128228   1.557   6.198   1.554 -0.4897  0.9510 -1.1080
 2271TIP3    H228229   1.578   6.058   1.499  0.4624 -0.5998  3.0518
 2272TIP3   OH228230   0.024   2.807  12.510  0.1505  0.1047 -0.1578
 2272TIP3    H128231  -0.012   2.764  12.587 -1.1268  0.2539 -0.6675
 2272TIP3    H228232  -0.044   2.867  12.481  1.8686  2.3915  0.4382
 2273TIP3   OH228233   2.652   5.208  11.883 -0.7902 -0.2636 -0.3994
 2273TIP3    H128234   2.565   5.245  11.871 -1.8060 -2.4468 -0.0302
 2273TIP3    H228235   2.674   5.226  11.974 -1.4543 -0.9125 -0.1063
 2274TIP3   OH228236   5.998   3.566  11.718 -0.0992 -0.3189 -0.5634
 2274TIP3    H128237   5.953   3.650  11.730 -1.0058 -0.8217 -0.3712
 2274TIP3    H228238   6.056   3.580  11.643 -1.0424  0.1551 -1.2158
 2275TIP3   OH228239   6.340   5.826   1.854 -0.2474  0.4548 -0.8230
 2275TIP3    H128240   6.285   5.751   1.873 -1.0500  1.2958  0.2143
 2275TIP3    H228241   6.409   5.823   1.920  0.6657 -0.2979 -1.7966
 2276TIP3   OH228242   3.986   5.460   0.717 -0.0331  0.1491  0.0690
 2276TIP3    H128243   3.970   5.366   0.718 -2.0872  0.4711 -0.7400
 2276TIP3    H228244   3.963   5.490   0.805 -0.0549 -0.0016  0.1144
 2277TIP3   OH228245   1.057   5.910  16.612  0.5702 -0.0250 -0.0493
 2277TIP3    H128246   1.021   5.930  16.698  0.3816  2.2467 -0.6200
 2277TIP3    H228247   1.152   5.916  16.624  0.7104 -2.9625  0.7278
 2278TIP3   OH228248   6.697   0.822  11.747  0.0522  0.4426  0.3456
 2278TIP3    H128249   6.661   0.752  11.693 -0.1236  1.2636 -0.6161
 2278TIP3    H228250   6.689   0.901  11.693  2.0461  0.8729  0.6376
 2279TIP3   OH228251   3.717   1.991   4.871  0.4758 -0.2163  0.1988
 2279TIP3    H128252   3.721   1.897   4.886 -0.8111 -0.2682  0.1978
 2279TIP3    H228253   3.643   2.021   4.923  1.7636  1.0336  1.3836
 2280TIP3   OH228254   1.558   0.012   0.685  0.2894  0.6088 -0.1126
 2280TIP3    H128255   1.569  -0.055   0.753 -1.1287 -1.1957 -1.5964
 2280TIP3    H228256   1.464   0.029   0.683  0.2822  0.4544 -1.7577
 2281TIP3   OH228257   4.758   2.522   1.618  0.5023 -0.1246 -0.3773
 2281TIP3    H128258   4.735   2.610   1.647  1.6822 -0.2189  0.8912
 2281TIP3    H228259   4.833   2.535   1.560 -0.0882 -0.1990 -1.1707
 2282TIP3   OH228260   4.019   0.713   1.511  0.3973  0.1721 -0.4420
 2282TIP3    H128261   4.107   0.741   1.487  1.2389 -1.0899  1.0544
 2282TIP3    H228262   4.015   0.725   1.606 -0.8716 -0.2648 -0.4248
 2283TIP3   OH228263   4.420   4.481   5.707 -0.1657  0.2528  0.2191
 2283TIP3    H128264   4.483   4.435   5.762 -2.5361 -1.9813  1.1785
 2283TIP3    H228265   4.426   4.573   5.734  2.6408  0.0881  0.2500
 2284TIP3   OH228266   5.632   1.731  12.097  0.1855  0.5098 -0.6971
 2284TIP3    H128267   5.718   1.767  12.078  0.9290 -0.0735  1.5157
 2284TIP3    H228268   5.649   1.653  12.150 -1.7441  1.1332  0.8995
 2285TIP3   OH228269   2.990   0.671  16.318  0.1725 -0.0724 -0.3954
 2285TIP3    H128270   2.924   0.704  16.257  0.9353  1.7680 -0.2406
 2285TIP3    H228271   3.074   0.695  16.278  0.7169 -0.6695  0.3708
 2286TIP3   OH228272   6.045   0.757   2.853 -0.2844 -0.2641 -0.4644
 2286TIP3    H128273   5.969   0.742   2.796  0.4318 -0.1027 -1.4892
 2286TIP3    H228274   6.088   0.672   2.859 -0.7544 -0.4400  0.4255
 2287TIP3   OH228275   0.114   4.624   2.567  0.1599 -0.0762 -0.1411
 2287TIP3    H128276   0.093   4.577   2.648  2.5641 -1.6296 -0.3923
 2287TIP3    H228277   0.125   4.715   2.595  0.6789 -0.5449  1.2312
 2288TIP3   OH228278   6.523   5.916  16.410  0.0623 -0.2332 -0.9352
 2288TIP3    H128279   6.556   5.895  16.323  2.2275 -0.1615 -0.1451
 2288TIP3    H228280   6.540   5.838  16.462 -2.1630 -0.6614 -0.7952
 2289TIP3   OH228281   3.637   3.217  15.454 -0.3388  0.3560 -0.4813
 2289TIP3    H128282   3.633   3.312  15.441 -0.9906  0.7999  2.5863
 2289TIP3    H228283   3.573   3.182  15.392  0.2162  1.8722 -1.9381
 2290TIP3   OH228284   2.640   1.690  14.512  0.3016 -0.8694  0.4004
 2290TIP3    H128285   2.608   1.661  14.598 -1.1297  0.2219  0.2534
 2290TIP3    H228286   2.734   1.701  14.524 -0.0161  0.1856  2.0889
 2291TIP3   OH228287   5.939   2.231  13.510  0.0801  0.0536 -0.0821
 2291TIP3    H128288   5.923   2.270  13.424  1.3949  2.0607  0.5361
 2291TIP3    H228289   5.923   2.302  13.572 -0.1461 -1.1653  1.2888
 2292TIP3   OH228290   2.812   5.872  12.028  0.5125  0.6920 -0.3465
 2292TIP3    H128291   2.777   5.903  11.944  0.0795  0.2281 -0.3374
 2292TIP3    H228292   2.873   5.941  12.055  2.5533 -0.3106 -2.2475
 2293TIP3   OH228293   3.462   3.315  13.893 -0.8787 -0.4697  0.1484
 2293TIP3    H128294   3.438   3.386  13.834 -0.7633  1.3040  2.1863
 2293TIP3    H228295   3.488   3.243  13.835 -0.9929  1.1425 -1.9411
 2294TIP3   OH228296   5.550   0.353   1.301 -0.0515 -0.4092  0.1173
 2294TIP3    H128297   5.582   0.290   1.235  2.2923  1.7640 -0.9093
 2294TIP3    H228298   5.457   0.363   1.281 -0.4809 -3.4741  0.2673
 2295TIP3   OH228299   3.749   2.951   0.155 -0.7601 -0.1518 -0.0166
 2295TIP3    H128300   3.725   2.946   0.062 -1.0900 -0.5519  0.0888
 2295TIP3    H228301   3.790   2.866   0.173  1.3282  0.7480 -0.3637
 2296TIP3   OH228302   6.351   4.917   3.376 -0.0392  0.7717 -0.6000
 2296TIP3    H128303   6.259   4.925   3.351 -0.3639 -0.6029  0.0782
 2296TIP3    H228304   6.396   4.895   3.294 -0.3772  0.9951 -0.8498
 2297TIP3   OH228305   1.725   0.237  14.293 -0.4351 -0.9988  0.3497
 2297TIP3    H128306   1.762   0.209  14.377  0.7973  0.2838  0.2520
 2297TIP3    H228307   1.684   0.321  14.312  1.4494  0.1933 -0.7015
 2298TIP3   OH228308   4.534   4.695  14.368 -0.1805 -0.1147  0.5347
 2298TIP3    H128309   4.503   4.774  14.412  0.5075  0.6092 -0.2536
 2298TIP3    H228310   4.467   4.675  14.303 -0.4667 -0.3147  0.8892
 2299TIP3   OH228311   0.465   5.367  17.140 -0.5357  0.4603  0.0589
 2299TIP3    H128312   0.420   5.415  17.209  0.2800  0.9695  0.2429
 2299TIP3    H228313   0.483   5.281  17.178 -0.8389  0.4511  0.1821
 2300TIP3   OH228314   0.407   4.239   2.111  0.3692  0.6956  0.2597
 2300TIP3    H128315   0.411   4.148   2.142 -1.0976  0.2413 -0.8626
 2300TIP3    H228316   0.459   4.238   2.030 -0.1124  0.7417 -0.0470
 2301TIP3   OH228317   1.794   4.070  13.051  0.1835 -0.2130 -0.3079
 2301TIP3    H128318   1.764   3.984  13.021  0.5465 -0.9959  1.4799
 2301TIP3    H228319   1.725   4.130  13.025 -0.2280 -1.0920 -1.2998
 2302TIP3   OH228320   4.526   6.172   5.507 -0.3860  0.3576  0.4169
 2302TIP3    H128321   4.608   6.165   5.556 -1.4601 -1.4258  2.0190
 2302TIP3    H228322   4.511   6.085   5.471 -1.4820  0.7017  0.0129
 2303TIP3   OH228323   5.277   5.393   5.786  0.2663  0.3752 -0.2162
 2303TIP3    H128324   5.229   5.361   5.862  0.5146 -0.4186 -0.3946
 2303TIP3    H228325   5.285   5.488   5.801 -0.2171  0.3140  0.4409
 2304TIP3   OH228326   1.706   6.123   4.069 -1.1470  0.3164 -0.5658
 2304TIP3    H128327   1.685   6.129   3.976 -0.2097 -1.9165 -0.9519
 2304TIP3    H228328   1.689   6.032   4.092  1.7509  0.0262  0.6411
 2305TIP3   OH228329   6.269   5.927  16.326  0.0822  0.0788  0.5902
 2305TIP3    H128330   6.363   5.944  16.333  0.2752 -0.1361 -1.2569
 2305TIP3    H228331   6.256   5.847  16.377  1.0920 -0.5079 -0.0497
 2306TIP3   OH228332   3.131   5.586  15.376  0.6526  0.0600 -0.0970
 2306TIP3    H128333   3.129   5.680  15.395  0.6887  0.1146 -0.3562
 2306TIP3    H228334   3.067   5.547  15.436  0.5149  0.2722 -0.1065
 2307TIP3   OH228335   0.918   4.159  12.965 -0.7640  0.1564 -0.2828
 2307TIP3    H128336   0.957   4.213  12.897 -0.1383  0.1106  0.0316
 2307TIP3    H228337   0.949   4.198  13.047 -1.7623  0.4009 -0.0144
 2308TIP3   OH228338   1.812   3.683  12.780  0.1969  0.6735 -0.2326
 2308TIP3    H128339   1.814   3.734  12.860  1.0221 -0.4331  0.4684
 2308TIP3    H228340   1.898   3.642  12.775 -0.4584 -0.6747 -0.7405
 2309TIP3   OH228341   3.636   3.345  12.290 -0.0016  0.1484  0.5741
 2309TIP3    H128342   3.566   3.349  12.356 -2.5754  0.7008 -2.0368
 2309TIP3    H228343   3.590   3.356  12.207  2.9037 -2.3870 -1.4720
 2310TIP3   OH228344   6.300   3.958  11.654 -0.4197 -0.5672 -0.2019
 2310TIP3    H128345   6.293   3.938  11.560  1.5793 -2.0034 -0.0821
 2310TIP3    H228346   6.363   3.894  11.687  0.5340  1.2868  1.7007
 2311TIP3   OH228347   5.685   2.240  16.631 -0.9623 -0.4114 -0.0380
 2311TIP3    H128348   5.701   2.181  16.705  0.4607  0.6840  0.5582
 2311TIP3    H228349   5.740   2.205  16.560 -1.1242 -0.5608 -0.0901
 2312TIP3   OH228350   6.501   6.011  12.093 -0.1279  0.0608 -0.1002
 2312TIP3    H128351   6.529   5.958  12.018  0.9499  1.8820 -1.0032
 2312TIP3    H228352   6.405   6.007  12.090 -0.0902 -0.3086 -1.2704
 2313TIP3   OH228353   4.384   1.547   4.705  0.1601 -0.4381 -0.4405
 2313TIP3    H128354   4.406   1.454   4.702 -0.5736 -0.6069 -0.7515
 2313TIP3    H228355   4.290   1.549   4.723  0.3291  0.2603  0.4378
 2314TIP3   OH228356   3.418   3.487  14.748  0.1464 -0.3766  0.0230
 2314TIP3    H128357   3.467   3.434  14.811  0.3695 -1.6175 -1.1520
 2314TIP3    H228358   3.348   3.527  14.799  0.5252 -1.0840  1.1160
 2315TIP3   OH228359   3.312   0.949  16.421  0.6212 -0.0476 -0.4496
 2315TIP3    H128360   3.331   1.012  16.352  0.0963  0.4595 -0.1331
 2315TIP3    H228361   3.308   0.865  16.376  0.7858  0.2144 -0.9549
 2316TIP3   OH228362   3.071   4.426  11.440 -0.1091 -0.0632 -0.2713
 2316TIP3    H128363   3.157   4.411  11.401  0.5394  0.5974  0.8723
 2316TIP3    H228364   3.055   4.520  11.427 -0.6553 -0.1795 -0.4618
 2317TIP3   OH228365   2.593   3.404   5.063  0.4581 -0.0435 -0.3283
 2317TIP3    H128366   2.567   3.418   4.972 -1.8499 -0.9394  0.1397
 2317TIP3    H228367   2.564   3.315   5.083  0.6418  0.2501  1.3701
 2318TIP3   OH228368   0.941   0.288  15.033 -0.1060  0.2081 -0.1834
 2318TIP3    H128369   0.941   0.287  15.129  0.9857  0.3021 -0.1828
 2318TIP3    H228370   0.989   0.367  15.010  3.0301 -1.8037 -0.8153
 2319TIP3   OH228371   6.380   3.238   4.574  0.4315  0.0465 -0.2616
 2319TIP3    H128372   6.360   3.299   4.504  0.1601  0.3404  0.0698
 2319TIP3    H228373   6.374   3.152   4.534 -2.5395  0.0465  0.0558
 2320TIP3   OH228374   0.126   5.521  11.494 -0.1090  0.0229  0.2427
 2320TIP3    H128375   0.045   5.537  11.543  0.8027  0.5232  1.6035
 2320TIP3    H228376   0.183   5.475  11.555  0.1173 -1.6434 -1.1912
 2321TIP3   OH228377   2.539   5.982   4.387  0.2620  0.0472 -0.2096
 2321TIP3    H128378   2.493   5.951   4.309  1.2062 -3.2193  0.4914
 2321TIP3    H228379   2.549   6.076   4.371 -3.7435  0.3329 -1.8350
 2322TIP3   OH228380   1.216   2.984  13.752 -0.3932  0.0166  0.5687
 2322TIP3    H128381   1.213   3.072  13.713  1.7163 -0.1337 -0.0064
 2322TIP3    H228382   1.241   2.999  13.843 -1.2350  0.0704  0.8015
 2323TIP3   OH228383   1.180   3.217  13.612  0.1202 -0.2165 -0.1373
 2323TIP3    H128384   1.123   3.293  13.614  0.1419 -0.2210  0.6877
 2323TIP3    H228385   1.240   3.234  13.539 -0.5366  0.0649 -0.6190
 2324TIP3   OH228386   2.332   5.882  11.905  0.4901 -0.2992  0.0501
 2324TIP3    H128387   2.382   5.936  11.965  0.3774  0.0612 -0.1830
 2324TIP3    H228388   2.331   5.931  11.823  0.6240 -0.7782 -0.2387
 2325TIP3   OH228389   5.256   0.771   5.215  0.6154  0.2022  0.1892
 2325TIP3    H128390   5.208   0.849   5.243  2.5597  0.6736  2.3886
 2325TIP3    H228391   5.348   0.798   5.216  1.2574 -1.8859  0.2481
 2326TIP3   OH228392   4.205   4.337  16.359 -0.9681 -0.0359 -0.3150
 2326TIP3    H128393   4.186   4.257  16.408  0.4517 -0.2757 -0.1273
 2326TIP3    H228394   4.173   4.319  16.271 -3.2022  0.2598  0.4138
 2327TIP3   OH228395   4.485   3.140  16.183  0.4180  0.1209 -0.5311
 2327TIP3    H128396   4.474   3.059  16.134  2.4227 -0.5354  0.0195
 2327TIP3    H228397   4.482   3.112  16.275  1.3807  0.6052 -0.3415
 2328TIP3   OH228398   0.444   3.125   4.542 -0.1843 -0.3739 -0.1127
 2328TIP3    H128399   0.423   3.179   4.466 -0.2787  1.7130  1.3471
 2328TIP3    H228400   0.413   3.037   4.519 -1.0170  0.4262 -2.1148
 2329TIP3   OH228401   5.507   5.105  15.904 -1.0066  0.2359  0.1202
 2329TIP3    H128402   5.506   5.199  15.917  0.1747  0.0415  1.6725
 2329TIP3    H228403   5.479   5.068  15.988  1.3000 -0.8763  0.4262
 2330TIP3   OH228404   4.456   6.032  11.662 -0.0456 -0.1590 -0.0231
 2330TIP3    H128405   4.502   6.109  11.628 -1.4229  0.9801  0.6068
 2330TIP3    H228406   4.509   5.958  11.635  3.1429  1.1902  2.2652
 2331TIP3   OH228407   4.116   2.615  11.415  0.1796  0.2498  0.5301
 2331TIP3    H128408   4.194   2.560  11.408  0.2504  0.3590  0.4494
 2331TIP3    H228409   4.123   2.655  11.502  0.4321  0.5862  0.3550
 2332TIP3   OH228410   3.169   6.200   0.991  0.2713  0.5674 -0.2049
 2332TIP3    H128411   3.092   6.248   1.020  1.9521  2.5338  1.1797
 2332TIP3    H228412   3.198   6.152   1.069 -0.8390 -2.0081 -1.3193
 2333TIP3   OH228413   6.282   3.344  13.227  0.1276  0.0879  0.4284
 2333TIP3    H128414   6.277   3.256  13.190 -0.8946  0.0408  0.6803
 2333TIP3    H228415   6.306   3.400  13.153  0.0880 -0.2962  0.1257
 2334TIP3   OH228416   1.786   0.233  11.424 -0.3003  0.4788  0.1809
 2334TIP3    H128417   1.871   0.278  11.420  0.4505 -0.9590 -0.3655
 2334TIP3    H228418   1.758   0.244  11.515  0.8594  0.2827  0.5768
 2335TIP3   OH228419   6.451   1.057  16.036  0.6306 -0.0189  0.5382
 2335TIP3    H128420   6.474   1.072  15.944 -0.7956  2.6907  0.5517
 2335TIP3    H228421   6.514   1.108  16.085 -0.3667  0.8689  0.9160
 2336TIP3   OH228422   4.029   3.652  13.464  0.1807 -0.7411 -0.0631
 2336TIP3    H128423   4.122   3.648  13.486  0.1977 -2.0580 -0.3079
 2336TIP3    H228424   3.984   3.621  13.543  0.0042 -1.0795 -0.2946
 2337TIP3   OH228425   1.679   5.974  11.223 -0.0826  0.3071  0.3134
 2337TIP3    H128426   1.590   5.940  11.219  0.0764 -0.1024  0.2074
 2337TIP3    H228427   1.682   6.043  11.158  0.1916 -0.9037 -0.9806
 2338TIP3   OH228428   4.881   3.771  13.695  0.1550  0.5209  0.4053
 2338TIP3    H128429   4.889   3.706  13.625  1.1015  1.0281  0.0388
 2338TIP3    H228430   4.909   3.725  13.774 -1.7484 -0.3152  0.6152
 2339TIP3   OH228431   1.564   2.152   0.037  0.2947 -0.0750 -0.2635
 2339TIP3    H128432   1.528   2.224  -0.016  0.3095  0.6274  0.6796
 2339TIP3    H228433   1.513   2.075   0.010 -0.9006  0.6269 -0.0124
 2340TIP3   OH228434   6.469   5.046   5.683  0.4733  0.9195 -1.1773
 2340TIP3    H128435   6.487   5.133   5.647 -0.8633  1.5470 -0.3413
 2340TIP3    H228436   6.484   5.055   5.777 -2.4751  1.0095 -0.6892
 2341TIP3   OH228437   1.994   4.451  15.016 -0.1258  0.5351  0.0736
 2341TIP3    H128438   1.941   4.529  15.033  2.0672  1.8695  1.0679
 2341TIP3    H228439   2.041   4.436  15.098  2.1741  0.3307 -1.2355
 2342TIP3   OH228440   6.173   5.356   0.697  0.3495 -0.1003 -0.8265
 2342TIP3    H128441   6.126   5.435   0.669  1.0519  0.6516  0.0533
 2342TIP3    H228442   6.234   5.339   0.625 -0.7441 -0.6389 -1.6285
 2343TIP3   OH228443   3.003   1.350   4.659 -0.1653  0.6199  0.3004
 2343TIP3    H128444   2.984   1.440   4.632 -0.5679  0.2581 -0.6688
 2343TIP3    H228445   3.043   1.358   4.745 -1.2309  1.6586  0.7097
 2344TIP3   OH228446   0.823   1.991   4.526  0.4469  0.4521  0.4514
 2344TIP3    H128447   0.788   1.907   4.495 -2.4274  0.6671  2.8735
 2344TIP3    H228448   0.778   2.057   4.473  1.6514  0.5615 -0.4711
 2345TIP3   OH228449   1.556   1.105  15.081 -0.5788 -0.2900  0.4394
 2345TIP3    H128450   1.556   1.020  15.039  1.1473  0.3687 -0.9710
 2345TIP3    H228451   1.576   1.086  15.173 -0.4937 -1.4218  0.1944
 2346TIP3   OH228452   4.718   5.197  14.347 -0.7661  0.3233 -0.2373
 2346TIP3    H128453   4.701   5.115  14.299 -0.1295 -0.8072  1.4292
 2346TIP3    H228454   4.765   5.169  14.426  0.1115  2.3871 -0.0117
 2347TIP3   OH228455   1.450   0.584  17.181 -0.2163 -0.3361 -0.5928
 2347TIP3    H128456   1.444   0.580  17.277  0.1602  0.9687 -0.5152
 2347TIP3    H228457   1.362   0.609  17.152 -0.5549 -1.5479 -0.6478
 2348TIP3   OH228458   4.251   3.960   4.013 -0.3854 -0.6219 -1.0012
 2348TIP3    H128459   4.165   3.995   4.039 -0.2918 -0.7912 -0.4462
 2348TIP3    H228460   4.237   3.866   4.002 -0.1450 -0.7439 -0.3273
 2349TIP3   OH228461   4.015   1.598  12.708 -0.5267  0.2032 -0.1225
 2349TIP3    H128462   3.996   1.601  12.614  0.1988  1.0573 -0.2413
 2349TIP3    H228463   4.038   1.688  12.731 -1.5310  0.1796  1.0478
 2350TIP3   OH228464   0.687   0.658  13.042  0.6165  0.5419 -0.2791
 2350TIP3    H128465   0.721   0.594  12.980 -0.2463  0.7568 -0.9889
 2350TIP3    H228466   0.764   0.695  13.084  1.2574  1.1756 -1.9977
 2351TIP3   OH228467   5.446   5.004  16.155  0.2133 -0.1952  0.8134
 2351TIP3    H128468   5.364   4.976  16.196 -0.2802  0.7662  0.4763
 2351TIP3    H228469   5.514   4.960  16.207 -0.4875 -0.6150  1.3860
 2352TIP3   OH228470   3.601   2.929  11.455  0.2819 -0.3751  0.3562
 2352TIP3    H128471   3.670   2.864  11.464  0.9024  0.0837 -0.9309
 2352TIP3    H228472   3.613   2.987  11.531  2.3659  0.6601 -0.7054
 2353TIP3   OH228473   3.715   5.962  12.839  0.2247  0.5595  0.1009
 2353TIP3    H128474   3.723   5.972  12.934 -2.9259 -1.1579  0.6254
 2353TIP3    H228475   3.725   5.868  12.824  0.4052  0.7802 -1.2474
 2354TIP3   OH228476   6.418   6.786   2.422 -0.1424  0.2421  0.1319
 2354TIP3    H128477   6.338   6.767   2.374  1.0720 -0.6779 -1.5674
 2354TIP3    H228478   6.432   6.708   2.476  0.4888 -0.3177 -0.8209
 2355TIP3   OH228479   5.967   1.684   6.338 -0.8793  0.1945 -0.1984
 2355TIP3    H128480   5.949   1.648   6.425  1.3011  2.5257  1.3046
 2355TIP3    H228481   6.004   1.610   6.289 -0.0256 -0.5957  1.5778
 2356TIP3   OH228482   3.687   4.622  13.150 -0.4806 -0.0140  0.6585
 2356TIP3    H128483   3.777   4.594  13.168 -1.3253 -1.8622  2.2324
 2356TIP3    H228484   3.678   4.705  13.197  0.8201  0.9205 -0.7008
 2357TIP3   OH228485   4.522   3.819   4.336 -0.4872 -0.0924  0.1965
 2357TIP3    H128486   4.462   3.772   4.395  0.5404 -0.5758  0.8610
 2357TIP3    H228487   4.585   3.861   4.394 -1.2141  1.9070 -0.4053
 2358TIP3   OH228488   5.802   2.745   5.811  0.3317 -0.1097  0.1106
 2358TIP3    H128489   5.860   2.821   5.825 -1.2442  0.8516  1.6347
 2358TIP3    H228490   5.847   2.673   5.856  0.4307  0.6003  1.1820
 2359TIP3   OH228491   2.121   1.485   5.674  0.4834  0.3312  0.0391
 2359TIP3    H128492   2.158   1.397   5.674 -1.8737 -0.6751 -0.5564
 2359TIP3    H228493   2.116   1.509   5.767  0.6286 -0.3561  0.2236
 2360TIP3   OH228494   3.995   3.632  14.824  0.6448  0.0876  0.1630
 2360TIP3    H128495   3.904   3.607  14.841  0.5543  0.0863 -0.3148
 2360TIP3    H228496   4.046   3.555  14.849  0.5451  0.2117  0.7612
 2361TIP3   OH228497   2.624   3.333   5.897 -0.0530  0.4883  0.0168
 2361TIP3    H128498   2.549   3.333   5.838 -1.1746 -1.4141  1.3771
 2361TIP3    H228499   2.610   3.409   5.954 -0.0233  1.1325 -0.8149
 2362TIP3   OH228500   6.256   5.358  16.283 -0.6473  0.1543  0.1155
 2362TIP3    H128501   6.217   5.281  16.324 -3.6881  1.0417 -1.0226
 2362TIP3    H228502   6.215   5.363  16.197  1.5346  1.5079 -0.8763
 2363TIP3   OH228503   3.442   2.982   2.380 -0.1692  0.2604  0.1901
 2363TIP3    H128504   3.353   2.994   2.346 -0.3895 -0.1400  0.6160
 2363TIP3    H228505   3.431   2.981   2.475  0.1175 -1.0594  0.2278
 2364TIP3   OH228506   0.549   6.651  12.491  0.1197 -0.6466  0.2924
 2364TIP3    H128507   0.483   6.582  12.493  0.0294 -0.7978 -3.6433
 2364TIP3    H228508   0.622   6.613  12.442  1.1003  1.1518  0.3175
 2365TIP3   OH228509   2.034   4.346   1.898  0.1425  0.2793 -0.5653
 2365TIP3    H128510   1.956   4.345   1.953  1.4308 -0.7046  1.2929
 2365TIP3    H228511   2.104   4.374   1.957  1.4587 -0.2712 -1.8474
 2366TIP3   OH228512   4.515   6.003  14.013  0.2931  0.2672 -0.2986
 2366TIP3    H128513   4.564   5.942  13.958  0.4288  0.3653 -0.2873
 2366TIP3    H228514   4.432   5.959  14.030 -0.0370  0.5548 -1.1860
 2367TIP3   OH228515   5.462   1.160  16.290  0.6312 -0.8156 -0.5185
 2367TIP3    H128516   5.545   1.148  16.335  0.6420  0.2628 -0.2448
 2367TIP3    H228517   5.453   1.081  16.236  1.6980 -1.0578 -0.3569
 2368TIP3   OH228518   6.057   4.133   5.054  0.5404 -0.0911  0.9469
 2368TIP3    H128519   6.026   4.222   5.074 -0.0558 -0.7838  3.2394
 2368TIP3    H228520   6.068   4.092   5.140 -0.5642 -2.6961 -0.1183
 2369TIP3   OH228521   6.123   1.697  13.963 -0.1458  0.0816  0.5442
 2369TIP3    H128522   6.046   1.725  13.914 -1.0352 -1.6672  0.8796
 2369TIP3    H228523   6.150   1.774  14.011 -2.7498  0.2860  1.7763
 2370TIP3   OH228524   0.432   4.220  10.868  0.5554 -0.3579  0.6810
 2370TIP3    H128525   0.487   4.279  10.816  0.6936 -0.9606  0.1407
 2370TIP3    H228526   0.419   4.266  10.950  0.3037  0.6303  0.0976
 2371TIP3   OH228527   3.052   4.856  16.179 -0.2499  0.1700  0.1863
 2371TIP3    H128528   2.966   4.897  16.174 -0.8656 -1.1591 -0.3400
 2371TIP3    H228529   3.114   4.929  16.177 -1.3172  1.0625 -0.8301
 2372TIP3   OH228530   3.362   2.384   3.760  0.4052 -0.2354  0.0042
 2372TIP3    H128531   3.345   2.358   3.851  0.7456 -1.4035 -0.2582
 2372TIP3    H228532   3.457   2.374   3.750 -0.0935 -4.3118 -1.7100
 2373TIP3   OH228533   6.174   3.069  13.033 -0.1575  0.6745 -0.0808
 2373TIP3    H128534   6.109   3.132  13.065  0.1641  0.3616  1.2128
 2373TIP3    H228535   6.186   3.092  12.941 -0.1267  2.4457  0.3446
 2374TIP3   OH228536   6.158   0.679  13.131 -0.3839  0.0034 -0.5155
 2374TIP3    H128537   6.219   0.627  13.078 -1.1848 -1.5913  0.0994
 2374TIP3    H228538   6.170   0.769  13.100  4.2537  0.2217  1.4174
 2375TIP3   OH228539   2.610   5.352   0.780 -0.3646 -0.1825 -0.0045
 2375TIP3    H128540   2.611   5.257   0.793 -1.2991 -0.4789 -1.8254
 2375TIP3    H228541   2.524   5.379   0.813 -0.7541 -0.2241 -0.9635
 2376TIP3   OH228542   0.772   4.972  12.656 -0.6456  0.3754  0.0825
 2376TIP3    H128543   0.851   5.015  12.623 -1.5832  0.7337 -1.7894
 2376TIP3    H228544   0.739   4.922  12.581 -3.4014  2.0128  0.1042
 2377TIP3   OH228545   3.369   0.322  16.887 -0.0195  0.0263  0.0271
 2377TIP3    H128546   3.305   0.322  16.816  0.4080  1.4736 -0.3622
 2377TIP3    H228547   3.374   0.413  16.916  1.5112 -0.1446  0.3674
 2378TIP3   OH228548   3.766   6.656   0.698  0.1113  0.4382 -0.0174
 2378TIP3    H128549   3.846   6.625   0.739 -0.6087  0.6179  1.5363
 2378TIP3    H228550   3.696   6.618   0.750 -0.8031  1.1113 -0.7468
 2379TIP3   OH228551   6.170   5.747  12.105  0.4523 -0.0313  0.0373
 2379TIP3    H128552   6.129   5.829  12.077  0.9951 -0.2013 -1.3140
 2379TIP3    H228553   6.096   5.687  12.119  0.1090  0.4065  0.0971
 2380TIP3   OH228554   2.483   2.061  14.237 -0.8115  0.0197  0.5104
 2380TIP3    H128555   2.530   2.139  14.267 -1.6565  0.5628  0.4437
 2380TIP3    H228556   2.391   2.078  14.258 -1.2247 -0.2498 -0.9836
 2381TIP3   OH228557   4.235   5.808  10.955  0.4049  0.0793  0.5780
 2381TIP3    H128558   4.312   5.785  10.902  0.0846 -3.4886  1.5458
 2381TIP3    H228559   4.165   5.753  10.920 -1.4069  2.3110  0.6143
 2382TIP3   OH228560   4.837   3.993  14.358 -0.8245  0.4311  0.3035
 2382TIP3    H128561   4.914   4.034  14.397 -0.9010  0.3869  0.4998
 2382TIP3    H228562   4.872   3.917  14.312 -0.8874 -0.2251  1.3228
 2383TIP3   OH228563   0.596   2.793  11.281 -0.7026  0.0131 -0.4626
 2383TIP3    H128564   0.647   2.850  11.339 -0.7633 -0.2900 -0.1097
 2383TIP3    H228565   0.558   2.727  11.339 -3.5301  1.6719 -0.3330
 2384TIP3   OH228566   6.180   2.451   6.169 -0.1885 -0.0665 -0.3105
 2384TIP3    H128567   6.221   2.366   6.154 -1.1879 -0.5111 -0.5430
 2384TIP3    H228568   6.251   2.514   6.155  0.4180 -0.8250 -0.7085
 2385TIP3   OH228569   0.113   5.581  13.096  0.0405  0.0313 -0.2630
 2385TIP3    H128570   0.115   5.665  13.052  0.8030  0.9583  1.4755
 2385TIP3    H228571   0.034   5.584  13.150 -0.5015 -0.8030 -0.9907
 2386TIP3   OH228572   3.738   6.318   0.878  0.1459 -0.5046  0.5895
 2386TIP3    H128573   3.812   6.263   0.905  0.4671  0.5548  1.9744
 2386TIP3    H228574   3.756   6.340   0.787  1.9480  0.3090  1.1066
 2387TIP3   OH228575   5.672   3.693  14.828 -0.2781  0.0891  0.4833
 2387TIP3    H128576   5.642   3.625  14.768 -0.4573  0.1778  0.4689
 2387TIP3    H228577   5.702   3.646  14.905  1.3188 -0.1074 -0.2463
 2388TIP3   OH228578   1.367   2.768   1.162 -0.2592  0.0169  0.3270
 2388TIP3    H128579   1.276   2.761   1.193 -0.8711  3.1957 -0.6629
 2388TIP3    H228580   1.369   2.714   1.083 -1.8550  1.5999 -0.8252
 2389TIP3   OH228581   4.264   0.423  16.160  0.0197  0.4901  0.1548
 2389TIP3    H128582   4.345   0.468  16.139 -0.7140  1.2553 -1.1461
 2389TIP3    H228583   4.207   0.491  16.195 -0.2284  0.0666  0.5750
 2390TIP3   OH228584   3.172   5.478  17.100 -0.4302  0.2359  0.0095
 2390TIP3    H128585   3.161   5.525  17.017  3.6579  0.0711 -0.7578
 2390TIP3    H228586   3.175   5.548  17.166 -1.3383  0.5488 -0.2779
 2391TIP3   OH228587   3.218   5.211  12.071  0.4294  0.2707 -0.4012
 2391TIP3    H128588   3.170   5.189  12.151  0.3434  0.9432 -0.2681
 2391TIP3    H228589   3.150   5.240  12.009  0.5812  0.5010 -0.4597
 2392TIP3   OH228590   3.419   1.746   0.402  0.0967 -0.0017 -0.0024
 2392TIP3    H128591   3.452   1.794   0.326  1.2367 -0.4648  0.1803
 2392TIP3    H228592   3.338   1.705   0.371 -1.0553  2.2365 -0.0746
 2393TIP3   OH228593   4.829   5.127  14.583  1.3807  0.2966  0.6527
 2393TIP3    H128594   4.847   5.035  14.567  1.0276  0.3376 -0.0190
 2393TIP3    H228595   4.906   5.160  14.629  1.0437 -0.5865  1.8894
 2394TIP3   OH228596   0.162   2.279  16.197 -0.5393  0.2257 -0.7698
 2394TIP3    H128597   0.220   2.267  16.272 -0.4269 -0.3126 -0.9389
 2394TIP3    H228598   0.143   2.373  16.196 -0.2344  0.2954 -0.2986
 2395TIP3   OH228599   2.983   4.715   4.104 -0.1817 -0.6826 -0.1966
 2395TIP3    H128600   2.964   4.684   4.192  2.1659 -1.8473 -0.0630
 2395TIP3    H228601   3.013   4.638   4.057  1.0941  0.4285 -1.2623
 2396TIP3   OH228602   4.068   3.347   0.181  0.0369 -0.3788  0.0975
 2396TIP3    H128603   4.027   3.418   0.132  1.6717  0.7521  0.3217
 2396TIP3    H228604   4.002   3.277   0.182 -1.7803  1.2783  0.2450
 2397TIP3   OH228605   1.266   6.282   6.160  0.3762  0.0342 -0.7448
 2397TIP3    H128606   1.330   6.212   6.151  1.2294  0.6239  0.7001
 2397TIP3    H228607   1.283   6.340   6.086 -0.1276 -1.1022 -1.7685
 2398TIP3   OH228608   3.840   2.556  11.669 -0.1867 -0.6222 -0.4575
 2398TIP3    H128609   3.786   2.507  11.607 -2.8867  1.2164  0.3355
 2398TIP3    H228610   3.802   2.644  11.668  1.9462  0.3378  1.2094
 2399TIP3   OH228611   1.243   1.703   5.565 -0.4643  0.0771 -0.1910
 2399TIP3    H128612   1.298   1.741   5.496  1.1924  0.0395  1.0567
 2399TIP3    H228613   1.303   1.693   5.639 -1.5354 -2.3992  0.3934
 2400TIP3   OH228614   6.506   5.935   4.739 -0.0624 -0.3514 -0.4757
 2400TIP3    H128615   6.525   6.009   4.797 -0.1160 -1.2321  0.7032
 2400TIP3    H228616   6.590   5.916   4.697  0.4832 -0.9913  0.8662
 2401TIP3   OH228617   0.604   1.807  12.963 -0.7874  0.7785 -0.5089
 2401TIP3    H128618   0.546   1.843  12.897 -0.6056  1.1176 -0.4841
 2401TIP3    H228619   0.655   1.740  12.917 -1.2129  0.4680 -0.5245
 2402TIP3   OH228620   0.907   5.832   5.808  0.1823 -0.1375 -0.0153
 2402TIP3    H128621   0.880   5.889   5.736 -1.1242  0.3957  0.8704
 2402TIP3    H228622   1.001   5.845   5.816  0.3430 -0.2207 -1.6372
 2403TIP3   OH228623   5.373   2.192   2.323 -0.1183 -0.3985  0.1568
 2403TIP3    H128624   5.327   2.116   2.288 -0.3576 -0.5232  0.7232
 2403TIP3    H228625   5.461   2.160   2.343 -0.1340 -0.4581  0.1294
 2404TIP3   OH228626   5.229   0.102  16.910  0.1638  0.5362 -0.3821
 2404TIP3    H128627   5.282   0.132  16.837  0.3859  0.8179 -0.1073
 2404TIP3    H228628   5.260   0.153  16.985  0.0864  0.0930 -0.0441
 2405TIP3   OH228629   1.072   1.201   0.409 -0.5876 -0.3384  0.7368
 2405TIP3    H128630   1.113   1.266   0.467  1.4192 -0.0019 -1.0203
 2405TIP3    H228631   1.070   1.121   0.461  0.8231  0.0651  1.4353
 2406TIP3   OH228632   1.371   5.330  14.606  0.3658  0.4913 -0.4624
 2406TIP3    H128633   1.444   5.268  14.606  0.2704  0.3425 -3.0386
 2406TIP3    H228634   1.293   5.275  14.603  0.0934  0.6453  2.5376
 2407TIP3   OH228635   2.078   6.316   0.988 -0.0508 -0.4448 -0.9422
 2407TIP3    H128636   2.009   6.379   0.970 -0.1167  0.0377  0.9006
 2407TIP3    H228637   2.132   6.316   0.909 -1.1187  0.5156 -1.6822
 2408TIP3   OH228638   6.518   6.513  13.915 -0.0917  0.0232 -0.9318
 2408TIP3    H128639   6.460   6.463  13.973  3.7324 -1.0862  2.1601
 2408TIP3    H228640   6.577   6.447  13.878 -0.1210  1.2467 -3.2597
 2409TIP3   OH228641   1.463   3.745   5.287  0.1117 -0.1087 -0.0464
 2409TIP3    H128642   1.445   3.761   5.195 -1.4149  0.8484  0.3936
 2409TIP3    H228643   1.556   3.765   5.298  0.3347 -0.3855 -1.4054
 2410TIP3   OH228644   2.161   5.603   2.677 -0.1563  0.1421 -0.1228
 2410TIP3    H128645   2.198   5.515   2.681  0.0699  0.2023 -0.6960
 2410TIP3    H228646   2.143   5.626   2.768 -0.9551 -0.8015 -0.0380
 2411TIP3   OH228647   1.859   6.275   3.335  0.4507 -0.2371  0.0310
 2411TIP3    H128648   1.930   6.271   3.271 -0.0776  2.0459 -0.7235
 2411TIP3    H228649   1.784   6.236   3.289  0.4656  0.0066 -0.2022
 2412TIP3   OH228650   2.713   3.597   3.593  0.1073  0.4841  0.6011
 2412TIP3    H128651   2.801   3.561   3.579 -0.1307 -0.3029  1.0810
 2412TIP3    H228652   2.706   3.668   3.530  0.4893 -0.4876 -0.5638
 2413TIP3   OH228653   5.846   6.260  13.403  0.1201  0.2529  0.7044
 2413TIP3    H128654   5.835   6.333  13.464  1.9629 -0.0970  1.4955
 2413TIP3    H228655   5.932   6.275  13.363  0.1899 -1.0867  0.3350
 2414TIP3   OH228656   6.143   4.197   0.277  0.0043 -0.1701  0.6380
 2414TIP3    H128657   6.222   4.176   0.327 -0.2699  1.3073  1.7323
 2414TIP3    H228658   6.161   4.163   0.189  1.3302 -0.9848  1.1987
 2415TIP3   OH228659   3.087   0.029  10.524  0.0725  0.3295  0.0704
 2415TIP3    H128660   3.021   0.009  10.590 -0.4071 -0.7342 -0.7089
 2415TIP3    H228661   3.121   0.115  10.549 -0.1948  0.0070  1.6192
 2416TIP3   OH228662   5.744   2.629   4.114 -0.6925  0.0669 -0.5473
 2416TIP3    H128663   5.649   2.631   4.124 -0.5639 -0.5261  0.8209
 2416TIP3    H228664   5.762   2.696   4.049 -1.7883  2.2144  1.3041
 2417TIP3   OH228665   2.227   2.233  15.357 -0.5223  0.3846  0.0833
 2417TIP3    H128666   2.236   2.143  15.325 -0.5174 -0.0258  1.1998
 2417TIP3    H228667   2.189   2.281  15.284  0.7966 -0.2091 -1.0154
 2418TIP3   OH228668   6.380   2.037  14.228  0.0307  0.5191  0.3641
 2418TIP3    H128669   6.419   2.084  14.302  0.3159 -1.9002  1.8152
 2418TIP3    H228670   6.453   2.018  14.170 -0.1184  2.0079 -0.3352
 2419TIP3   OH228671   2.945   4.022  16.728  0.3038 -0.2597 -0.1774
 2419TIP3    H128672   2.994   4.070  16.661 -1.1028  0.5573 -0.6494
 2419TIP3    H228673   2.987   4.046  16.810  2.9579 -2.3771 -0.8375
 2420TIP3   OH228674   0.482   6.759   3.454 -0.0397  0.2342 -0.3093
 2420TIP3    H128675   0.570   6.781   3.425  0.5347 -1.1350  0.3357
 2420TIP3    H228676   0.490   6.751   3.549 -1.6139  3.4007  0.1639
 2421TIP3   OH228677   3.163   1.902   2.612 -0.1330 -0.4905 -0.1147
 2421TIP3    H128678   3.108   1.915   2.535  0.4278 -1.9003 -0.7503
 2421TIP3    H228679   3.252   1.903   2.579  0.1965  0.5010  0.7476
 2422TIP3   OH228680   4.293   0.739  12.806 -0.5061 -0.1181  0.2807
 2422TIP3    H128681   4.200   0.717  12.807 -0.7658  0.9474 -0.0027
 2422TIP3    H228682   4.336   0.657  12.783 -1.3628 -0.6658  0.6108
 2423TIP3   OH228683   5.913   1.941  12.622 -0.2904 -0.4056  0.3933
 2423TIP3    H128684   5.980   1.895  12.673  1.2333  3.0100  1.6583
 2423TIP3    H228685   5.928   1.914  12.532  2.8534  0.2420  0.6582
 2424TIP3   OH228686   1.785   5.200  16.439  0.4276 -0.2929 -0.0554
 2424TIP3    H128687   1.785   5.105  16.434  1.7510 -0.4072  1.5853
 2424TIP3    H228688   1.827   5.220  16.523  2.6361  1.7683 -1.5539
 2425TIP3   OH228689   5.932   5.960  15.469  0.6797  0.3293 -0.1773
 2425TIP3    H128690   5.971   5.882  15.430  1.8719  0.6070  0.4481
 2425TIP3    H228691   5.980   6.033  15.432  1.5309  0.6158  1.4487
 2426TIP3   OH228692   3.072   4.160   3.825  0.2984  0.1044  0.4492
 2426TIP3    H128693   2.987   4.181   3.863 -0.8644  0.5196 -2.2288
 2426TIP3    H228694   3.132   4.155   3.899 -1.7538  1.3336  2.2317
 2427TIP3   OH228695   5.395   2.995   2.904  0.2701 -0.0381  0.2469
 2427TIP3    H128696   5.364   3.085   2.915 -1.2707 -0.2055 -2.2088
 2427TIP3    H228697   5.345   2.944   2.967  0.0634  0.6286  0.6189
 2428TIP3   OH228698   0.261   2.733   6.475  0.3489  0.3163 -0.3386
 2428TIP3    H128699   0.242   2.803   6.412 -0.2648 -0.1908 -0.7376
 2428TIP3    H228700   0.191   2.669   6.460 -0.1995  0.4986  1.3389
 2429TIP3   OH228701   2.221   5.787  14.375 -0.7128  0.0149  0.0568
 2429TIP3    H128702   2.222   5.818  14.465 -0.6662 -1.6006  0.6248
 2429TIP3    H228703   2.281   5.845  14.328 -1.0534  1.1173  0.9692
 2430TIP3   OH228704   1.003   3.237   3.852  0.0530  0.1083  0.4913
 2430TIP3    H128705   1.061   3.162   3.843 -0.3490 -0.1174 -0.2243
 2430TIP3    H228706   0.926   3.214   3.800  1.3368  2.4698 -2.5189
 2431TIP3   OH228707   1.089   3.490   1.303  0.4310 -0.0327 -0.1885
 2431TIP3    H128708   1.071   3.401   1.272 -0.9969  0.0789  0.2860
 2431TIP3    H228709   1.111   3.538   1.224 -0.0043 -0.5274 -0.6229
 2432TIP3   OH228710   1.735   0.896   4.532  0.0369  0.0371  0.0918
 2432TIP3    H128711   1.740   0.912   4.626  0.8770  1.6277 -0.2159
 2432TIP3    H228712   1.804   0.951   4.495 -0.1487 -0.7507 -1.4324
 2433TIP3   OH228713   6.543   6.461   0.708  0.7815 -0.4048 -0.0163
 2433TIP3    H128714   6.480   6.450   0.779  0.9397 -1.8471 -0.0789
 2433TIP3    H228715   6.516   6.398   0.641  1.8575 -0.5332 -0.3524
 2434TIP3   OH228716   6.188   3.709  10.793 -0.6924 -0.0965  0.2911
 2434TIP3    H128717   6.234   3.714  10.876  1.5810 -0.5423 -0.8996
 2434TIP3    H228718   6.238   3.645  10.742 -2.7033 -0.6762 -1.0112
 2435TIP3   OH228719   5.516   2.210   3.162 -0.3527  0.5632 -0.1568
 2435TIP3    H128720   5.496   2.231   3.254 -0.0008 -0.0894  0.0736
 2435TIP3    H228721   5.535   2.295   3.122 -2.3751  1.0661 -0.0931
 2436TIP3   OH228722   4.837   5.499   3.131  0.0262 -0.4288 -0.6387
 2436TIP3    H128723   4.818   5.409   3.159 -2.0838  0.1412 -0.1363
 2436TIP3    H228724   4.846   5.548   3.212  2.3543 -0.3897 -0.8963
 2437TIP3   OH228725   6.367   0.015  13.472  0.2946  0.0791 -0.1984
 2437TIP3    H128726   6.390   0.101  13.507  1.1986 -0.3666  0.3206
 2437TIP3    H228727   6.394   0.018  13.380 -0.5965  0.6869 -0.4524
 2438TIP3   OH228728   1.320   6.472  16.941 -0.4686 -0.4371 -0.5092
 2438TIP3    H128729   1.387   6.485  16.874  0.4844  0.1005  0.5248
 2438TIP3    H228730   1.259   6.545  16.928  0.6849  0.7003  0.3339
 2439TIP3   OH228731   1.398   5.451   1.061 -0.1452  0.4617  0.0568
 2439TIP3    H128732   1.320   5.487   1.105  1.6538  2.8695  1.3872
 2439TIP3    H228733   1.384   5.472   0.969 -0.6236  1.8295  0.4139
 2440TIP3   OH228734   0.202   6.730   1.370  0.0309 -0.4324  0.3961
 2440TIP3    H128735   0.210   6.825   1.373  1.6246 -0.4895 -1.5153
 2440TIP3    H228736   0.274   6.698   1.424  1.0052 -0.5819 -0.9687
 2441TIP3   OH228737   2.476   3.034  14.872  0.7747 -0.3524 -0.0509
 2441TIP3    H128738   2.497   3.081  14.953 -1.8227 -0.3314  0.6562
 2441TIP3    H228739   2.429   2.956  14.902  0.7458 -0.8958 -1.4933
 2442TIP3   OH228740   5.950   4.338   2.588  0.1454  0.1393  0.5070
 2442TIP3    H128741   5.858   4.323   2.563 -0.5819  2.4568  1.6587
 2442TIP3    H228742   5.995   4.356   2.506 -0.5634 -0.3910  0.0011
 2443TIP3   OH228743   4.846   4.794  12.174  0.6089  0.3250 -0.2071
 2443TIP3    H128744   4.824   4.732  12.105  0.9850  1.1781 -1.1059
 2443TIP3    H228745   4.894   4.742  12.239 -0.1220 -0.5676 -0.3763
 2444TIP3   OH228746   1.723   0.559   0.439 -0.3400  0.0835 -0.1326
 2444TIP3    H128747   1.815   0.557   0.412 -0.0139  0.3217  0.9410
 2444TIP3    H228748   1.723   0.606   0.523 -1.2745 -1.0586  0.5195
 2445TIP3   OH228749   3.196   0.545   0.505  0.0415 -0.4448 -0.1256
 2445TIP3    H128750   3.106   0.538   0.537  0.5214 -0.1370  1.3354
 2445TIP3    H228751   3.191   0.607   0.432 -1.1055 -1.2907 -0.7834
 2446TIP3   OH228752   3.619   6.484   5.118 -0.1577 -0.2244 -0.0616
 2446TIP3    H128753   3.711   6.459   5.110 -0.2488 -2.1388  3.5664
 2446TIP3    H228754   3.621   6.574   5.150  0.3608  0.8018 -2.8835
 2447TIP3   OH228755   5.925   5.304   4.555 -0.0134 -0.3836 -0.1866
 2447TIP3    H128756   5.998   5.244   4.573  0.7156  0.4927 -0.1509
 2447TIP3    H228757   5.899   5.283   4.465 -1.1860 -2.2026  0.5635
 2448TIP3   OH228758   5.092   1.811   1.804  0.3339  0.3863 -0.4332
 2448TIP3    H128759   5.097   1.805   1.899 -3.6842  1.0276 -0.1010
 2448TIP3    H228760   5.167   1.866   1.779  0.7686  1.1669  2.4422
 2449TIP3   OH228761   2.975   6.354  10.461 -0.3349  0.7768  0.1454
 2449TIP3    H128762   3.022   6.437  10.453 -1.5256  1.5882  1.4459
 2449TIP3    H228763   3.044   6.290  10.483  0.4597  1.5664 -0.0160
 2450TIP3   OH228764   6.396   3.378  12.656  0.1115 -0.6926 -0.1459
 2450TIP3    H128765   6.455   3.326  12.709  1.8120 -1.0534 -2.3220
 2450TIP3    H228766   6.436   3.465  12.654  0.3976 -0.8433 -1.3241
 2451TIP3   OH228767   4.667   4.864   0.459 -0.0534 -0.8742 -0.3138
 2451TIP3    H128768   4.589   4.888   0.409 -1.3567 -2.1790  1.0607
 2451TIP3    H228769   4.662   4.768   0.468  0.7702 -0.7854  1.3192
 2452TIP3   OH228770   5.609   1.836   5.470 -0.0728  0.0727  0.4738
 2452TIP3    H128771   5.559   1.886   5.406 -0.6405 -0.2736  0.6442
 2452TIP3    H228772   5.660   1.774   5.418  0.6751  0.8403  0.2560
 2453TIP3   OH228773   6.731   5.441  15.168  0.3040 -0.3227  0.3451
 2453TIP3    H128774   6.711   5.512  15.107  1.4461 -1.0413 -0.8670
 2453TIP3    H228775   6.824   5.423  15.154  0.0517 -1.9607  0.7637
 2454TIP3   OH228776   4.028   6.745   1.367  0.0469  0.4108  0.4048
 2454TIP3    H128777   3.968   6.679   1.331 -1.2689  1.7539  0.1023
 2454TIP3    H228778   3.999   6.757   1.457  0.4714  0.3676  0.5470
 2455TIP3   OH228779   3.031   6.304   4.089  0.7664 -0.5116  0.7230
 2455TIP3    H128780   2.945   6.346   4.084 -0.3340 -2.7700  0.0972
 2455TIP3    H228781   3.090   6.375   4.115 -0.7222  1.8369 -1.9553
 2456TIP3   OH228782   0.728   3.639  11.819 -0.0226 -0.5291 -0.3602
 2456TIP3    H128783   0.765   3.686  11.744 -0.8315  2.6135  1.1501
 2456TIP3    H228784   0.803   3.620  11.875  0.4679 -2.1744 -1.5099
 2457TIP3   OH228785   4.084   0.324   6.074 -0.4041 -0.0043 -0.1041
 2457TIP3    H128786   4.086   0.314   6.169  0.0778  0.4798 -0.0597
 2457TIP3    H228787   4.059   0.237   6.041 -1.3869  0.0509  0.4960
 2458TIP3   OH228788   5.488   1.456  16.944 -0.0033  0.0338 -0.2186
 2458TIP3    H128789   5.417   1.451  17.009 -0.5332 -1.9093 -0.9033
 2458TIP3    H228790   5.533   1.538  16.963 -1.5776  0.5967  1.1350
 2459TIP3   OH228791   1.593   5.314   1.213 -0.3309  0.5659 -0.0913
 2459TIP3    H128792   1.549   5.386   1.168  0.0865 -0.4862 -2.2460
 2459TIP3    H228793   1.524   5.249   1.227  0.4269 -1.0411 -3.3810
 2460TIP3   OH228794   3.778   2.964   6.917  0.2221 -0.3467 -0.5073
 2460TIP3    H128795   3.816   2.915   6.845  1.7437  0.9167 -0.5844
 2460TIP3    H228796   3.702   3.008   6.879  1.5676  1.0904 -1.6108
 2461TIP3   OH228797   0.522   4.884   0.732 -0.4342 -0.1080  0.0746
 2461TIP3    H128798   0.446   4.895   0.675 -1.1230  1.1648  1.1814
 2461TIP3    H228799   0.515   4.794   0.764 -1.9693  0.2418  0.8083
 2462TIP3   OH228800   5.027   0.960   2.046 -0.4975 -0.6698  0.2318
 2462TIP3    H128801   4.995   0.902   2.115  0.1198 -1.4578 -0.1351
 2462TIP3    H228802   4.989   1.045   2.067  0.3905 -0.6858  2.0462
 2463TIP3   OH228803   2.544   6.249   1.801 -0.5585 -0.0959  0.0082
 2463TIP3    H128804   2.627   6.286   1.832 -0.4865 -1.4308  1.4394
 2463TIP3    H228805   2.478   6.309   1.833 -0.4746 -1.3661  2.7126
 2464TIP3   OH228806   5.866   6.553   1.375 -0.1420  0.6974  0.0982
 2464TIP3    H128807   5.915   6.632   1.397  0.9883 -0.2920  1.2103
 2464TIP3    H228808   5.907   6.484   1.427 -0.5002 -0.8100 -1.5785
 2465TIP3   OH228809   2.390   5.359  11.797  0.2866 -0.0386 -0.0036
 2465TIP3    H128810   2.382   5.401  11.882  2.2347  1.2855 -0.4273
 2465TIP3    H228811   2.373   5.428  11.734  0.3077 -0.6479 -0.6847
 2466TIP3   OH228812   0.330   2.920  15.372  0.3074  0.2182  0.1299
 2466TIP3    H128813   0.404   2.919  15.434  0.5593 -0.7782 -0.1643
 2466TIP3    H228814   0.343   2.999  15.320  0.1216  1.0414  1.3217
 2467TIP3   OH228815   2.074   3.568   5.968 -0.2125  0.2230 -0.5441
 2467TIP3    H128816   2.133   3.605   5.902  0.0590  0.9479  0.0976
 2467TIP3    H228817   2.034   3.492   5.925  1.0549 -0.1707 -1.0597
 2468TIP3   OH228818   3.625   0.792  14.308  0.1558 -0.0581 -0.2716
 2468TIP3    H128819   3.718   0.815  14.301  0.1624 -0.3072 -1.0155
 2468TIP3    H228820   3.580   0.856  14.253 -0.0847 -0.1378 -0.1686
 2469TIP3   OH228821   2.708   6.240  15.797 -0.2580  0.1438 -0.0162
 2469TIP3    H128822   2.643   6.204  15.858  0.7491 -2.1488 -0.2576
 2469TIP3    H228823   2.713   6.333  15.820 -0.7224 -0.4419  2.6438
 2470TIP3   OH228824   1.190   5.622  15.350 -0.6343  1.1013 -0.1593
 2470TIP3    H128825   1.229   5.540  15.379  0.6235  1.5960 -0.3964
 2470TIP3    H228826   1.230   5.640  15.265 -0.0953  2.4765  0.3631
 2471TIP3   OH228827   2.619   4.205  10.963 -0.1031 -0.4032 -0.6220
 2471TIP3    H128828   2.612   4.235  10.873 -0.3106 -1.4868 -0.9800
 2471TIP3    H228829   2.540   4.152  10.977 -0.7183  0.7839  0.6060
 2472TIP3   OH228830   4.364   1.782   2.066  0.3834 -0.4677  0.4611
 2472TIP3    H128831   4.414   1.769   1.986  1.0397  0.1917  0.7603
 2472TIP3    H228832   4.362   1.695   2.107  1.0050 -0.5639  0.2895
 2473TIP3   OH228833   3.326   3.276  12.751 -0.0552  0.3834  0.4793
 2473TIP3    H128834   3.339   3.295  12.844 -1.5326  2.7233  0.2486
 2473TIP3    H228835   3.231   3.274  12.740  0.0874 -1.9233 -0.6194
 2474TIP3   OH228836   5.922   2.183   1.329  0.1695  0.0305  0.0028
 2474TIP3    H128837   5.942   2.237   1.406  1.3954 -1.4816  0.7745
 2474TIP3    H228838   5.828   2.166   1.335  0.0949  0.6510  0.6756
 2475TIP3   OH228839   1.975   1.614   0.122  0.2815 -0.1283 -0.0973
 2475TIP3    H128840   1.956   1.690   0.067 -0.5146 -1.1494 -1.2541
 2475TIP3    H228841   2.067   1.595   0.105 -0.2864 -1.2232 -2.0920
 2476TIP3   OH228842   3.091   3.491  15.746 -0.1147  0.4649 -0.4675
 2476TIP3    H128843   3.076   3.538  15.828 -0.5873 -0.2950 -0.1164
 2476TIP3    H228844   3.163   3.539  15.704 -0.6159  1.5240 -0.1374
 2477TIP3   OH228845   5.014   4.204   2.273  0.2553 -0.2741  0.4465
 2477TIP3    H128846   5.076   4.196   2.200 -0.2367  2.3401 -0.3046
 2477TIP3    H228847   5.056   4.265   2.334 -1.0182  0.5831  0.4932
 2478TIP3   OH228848   0.844   2.214  17.085  0.0149 -0.6274  0.5713
 2478TIP3    H128849   0.898   2.179  17.014 -1.6602 -0.3042 -0.8790
 2478TIP3    H228850   0.808   2.296  17.051 -1.4490 -0.8729  1.4809
 2479TIP3   OH228851   4.035   3.684   4.085 -0.2846  0.6370  0.1086
 2479TIP3    H128852   4.127   3.659   4.095  0.3771  3.0801  0.5346
 2479TIP3    H228853   4.000   3.684   4.174 -0.2530  1.2845  0.1236
 2480TIP3   OH228854   6.491   2.538  13.068 -0.1601 -0.3426 -0.0518
 2480TIP3    H128855   6.481   2.542  12.973  0.5521  0.6099 -0.0821
 2480TIP3    H228856   6.523   2.449  13.085 -0.4592 -0.5715 -0.6781
 2481TIP3   OH228857   5.883   0.288  14.517 -0.4802 -0.3585  0.2256
 2481TIP3    H128858   5.928   0.238  14.584  1.4498  2.2266  0.9558
 2481TIP3    H228859   5.874   0.227  14.444  1.2241 -1.9639  1.2958
 2482TIP3   OH228860   5.052   4.262   5.491  0.0530  0.5511  0.7263
 2482TIP3    H128861   5.074   4.343   5.538  0.5761  0.8183  0.0408
 2482TIP3    H228862   5.131   4.243   5.439 -1.2302  1.3550 -1.5692
 2483TIP3   OH228863   5.709   2.168  15.102 -0.7172 -0.0539  0.1852
 2483TIP3    H128864   5.640   2.120  15.057 -0.3638 -1.0725  0.7164
 2483TIP3    H228865   5.676   2.180  15.191 -0.0586 -0.8751  0.5453
 2484TIP3   OH228866   6.003   1.123  16.197  0.6202  0.7829 -0.8243
 2484TIP3    H128867   5.949   1.172  16.135  0.6901  1.7151 -0.1484
 2484TIP3    H228868   6.072   1.184  16.223  0.9250  0.2075 -0.2629
 2485TIP3   OH228869   1.427   3.974   3.289 -0.8419  0.2739  0.2540
 2485TIP3    H128870   1.450   3.887   3.258 -0.3180  1.0940 -1.7299
 2485TIP3    H228871   1.395   3.960   3.378 -0.8737 -1.9474 -0.0785
 2486TIP3   OH228872   1.588   6.772  11.020 -0.4996 -0.6929  0.1967
 2486TIP3    H128873   1.578   6.836  10.950  0.6257 -1.8239 -1.0310
 2486TIP3    H228874   1.651   6.811  11.080  0.1112 -0.6012 -0.4965
 2487TIP3   OH228875   3.206   3.026  11.722 -0.4843 -0.7906 -0.9495
 2487TIP3    H128876   3.163   3.102  11.762  0.0532 -0.6666 -0.6098
 2487TIP3    H228877   3.280   3.007  11.779 -0.0747 -0.9965 -1.5451
 2488TIP3   OH228878   0.939   0.517  14.186  0.2000 -0.0002  0.0433
 2488TIP3    H128879   0.901   0.541  14.271  0.0588  0.7430 -0.2248
 2488TIP3    H228880   0.863   0.496  14.132  0.3420 -1.7491  0.4614
 2489TIP3   OH228881   2.251   3.300   0.545 -0.9213  0.1642  0.1426
 2489TIP3    H128882   2.187   3.302   0.617 -2.4377  1.0271 -1.2037
 2489TIP3    H228883   2.230   3.376   0.491  1.3745  0.5645 -0.2472
 2490TIP3   OH228884   3.872   6.380   0.644  0.1471 -0.1249 -0.3699
 2490TIP3    H128885   3.875   6.344   0.555 -1.1467  1.3428 -1.0304
 2490TIP3    H228886   3.950   6.435   0.650  1.5221 -2.0952  0.2523
 2491TIP3   OH228887   6.702   3.693  11.974  0.2295 -0.0128  0.6989
 2491TIP3    H128888   6.665   3.750  12.042  0.7010 -0.6608  1.5106
 2491TIP3    H228889   6.770   3.746  11.933  0.2207  0.2399  1.0075
 2492TIP3   OH228890   0.764   3.692   0.365 -0.3406 -0.1527 -0.3630
 2492TIP3    H128891   0.735   3.681   0.274  0.3894  0.4797 -0.6758
 2492TIP3    H228892   0.710   3.763   0.398 -0.2212 -0.0088 -0.4751
 2493TIP3   OH228893   0.853   3.184  17.032  0.1063 -0.6580 -0.0317
 2493TIP3    H128894   0.897   3.122  16.973  2.4333  0.0490  0.8848
 2493TIP3    H228895   0.857   3.143  17.118  1.0665  0.4367  0.4643
 2494TIP3   OH228896   3.920   4.488   3.995 -0.8367 -0.1621 -0.3479
 2494TIP3    H128897   3.848   4.428   3.976 -0.5133 -0.0423 -2.0565
 2494TIP3    H228898   3.974   4.487   3.916 -0.5920  2.0355 -0.2581
 2495TIP3   OH228899   4.214   0.325  12.571  0.2864 -0.2352  0.2221
 2495TIP3    H128900   4.307   0.334  12.554  0.1808 -0.4137 -0.4729
 2495TIP3    H228901   4.189   0.407  12.615  0.5604  0.2490 -0.5176
 2496TIP3   OH228902   0.286   4.074   3.101 -0.2420 -0.5245  0.2140
 2496TIP3    H128903   0.344   4.079   3.025 -1.7992  0.6931 -0.9255
 2496TIP3    H228904   0.248   4.162   3.108  0.2385 -0.4691  2.7033
 2497TIP3   OH228905   0.561   3.269  13.492  0.0954  0.0432 -0.4324
 2497TIP3    H128906   0.599   3.346  13.450 -0.8440  0.3267 -0.7872
 2497TIP3    H228907   0.509   3.227  13.423  1.5742 -1.6037 -0.5945
 2498TIP3   OH228908   4.219   4.865  12.832 -1.1181  0.0668  0.4371
 2498TIP3    H128909   4.246   4.957  12.828 -1.2154  0.2459  3.1624
 2498TIP3    H228910   4.124   4.868  12.839 -1.2296 -0.3076 -0.7680
 2499TIP3   OH228911   2.403   2.463   5.614 -0.3882  0.2847  0.2488
 2499TIP3    H128912   2.466   2.535   5.610  0.7024 -0.7188 -1.0441
 2499TIP3    H228913   2.427   2.414   5.693  0.5479 -0.1492 -0.2898
 2500TIP3   OH228914   3.587   1.055   5.768  0.0789 -1.1889  0.1239
 2500TIP3    H128915   3.507   1.018   5.805 -0.2077 -1.3837 -0.6798
 2500TIP3    H228916   3.569   1.148   5.757 -0.0921 -1.2538 -0.1723
 2501TIP3   OH228917   5.922   3.613   2.340  0.4092 -0.1029 -0.4593
 2501TIP3    H128918   6.000   3.559   2.353  0.5677  0.2439  0.0310
 2501TIP3    H228919   5.928   3.642   2.249 -0.3275 -1.9451 -1.1226
 2502TIP3   OH228920   1.623   0.940  16.684 -0.2352  0.1369 -0.3054
 2502TIP3    H128921   1.673   0.975  16.610  0.4770  0.1974  0.2038
 2502TIP3    H228922   1.659   0.853  16.699 -0.2411  0.2021  0.0986
 2503TIP3   OH228923   3.171   0.237  17.233  0.4289  0.5201  0.0817
 2503TIP3    H128924   3.173   0.179  17.157 -2.8139  1.6239 -0.9283
 2503TIP3    H228925   3.235   0.306  17.213 -0.3717  0.7737 -1.6480
 2504TIP3   OH228926   2.565   0.108  16.619  0.5622 -0.2501  0.0590
 2504TIP3    H128927   2.490   0.054  16.593  1.0277 -0.2958 -1.2037
 2504TIP3    H228928   2.628   0.097  16.549  1.5025  0.3150  0.8034
 2505TIP3   OH228929   5.347   4.329  12.060  0.1631 -0.2607  0.0893
 2505TIP3    H128930   5.377   4.393  12.126 -1.3733  0.4491  0.1171
 2505TIP3    H228931   5.255   4.315  12.081  0.5072 -2.6163  0.1520
 2506TIP3   OH228932   2.659   5.517   1.528  0.2298  0.0581 -0.0551
 2506TIP3    H128933   2.651   5.611   1.515 -0.4341 -0.1617 -1.3174
 2506TIP3    H228934   2.627   5.502   1.618  0.8759  1.0945  0.3473
 2507TIP3   OH228935   1.167   2.709  16.392 -1.2164 -0.5732  0.0181
 2507TIP3    H128936   1.234   2.773  16.368 -0.6873 -1.9954 -2.4307
 2507TIP3    H228937   1.091   2.762  16.416  0.3040  1.0247  1.4379
 2508TIP3   OH228938   3.960   3.149   5.599 -0.1455  0.1812  0.0717
 2508TIP3    H128939   4.050   3.176   5.616 -0.5745  0.6505  1.7962
 2508TIP3    H228940   3.963   3.054   5.600  0.0842  0.1856  1.7085
 2509TIP3   OH228941   1.749   6.294   2.167 -0.3894 -0.7232 -0.3193
 2509TIP3    H128942   1.839   6.326   2.166 -0.9457  0.8535 -1.1838
 2509TIP3    H228943   1.758   6.198   2.165  1.2667 -0.5960  0.5706
 2510TIP3   OH228944   2.747   5.600   2.271 -0.0383 -0.1560  0.5202
 2510TIP3    H128945   2.663   5.645   2.282 -0.4569 -0.2375 -1.9971
 2510TIP3    H228946   2.723   5.514   2.234  1.2378  0.5467 -2.0380
 2511TIP3   OH228947   2.055   6.771   0.532  0.0199  0.5835 -0.1959
 2511TIP3    H128948   2.122   6.705   0.512  0.6800  1.9237 -2.6573
 2511TIP3    H228949   1.981   6.747   0.477  0.7978  2.6717 -2.2451
 2512TIP3   OH228950   4.412   6.311  11.486  0.6195 -0.5870  0.2685
 2512TIP3    H128951   4.420   6.389  11.431  0.4198 -1.1980 -0.6531
 2512TIP3    H228952   4.494   6.264  11.471  1.1347 -0.1091  1.5394
 2513TIP3   OH228953   4.193   5.412  15.889  0.4731  0.7018 -0.2841
 2513TIP3    H128954   4.128   5.469  15.847 -0.0116  0.0509 -0.4259
 2513TIP3    H228955   4.184   5.328  15.845 -0.4580 -0.1651  1.4965
 2514TIP3   OH228956   2.199   5.364   2.386 -0.0920 -0.0143  0.0996
 2514TIP3    H128957   2.180   5.344   2.478 -0.4891  0.6253  0.1638
 2514TIP3    H228958   2.218   5.279   2.346  3.4387  0.0652  1.5154
 2515TIP3   OH228959   6.549   0.661  15.255 -0.8542 -0.1520  0.0716
 2515TIP3    H128960   6.557   0.576  15.212  0.2137  1.2152 -2.6175
 2515TIP3    H228961   6.634   0.703  15.242 -0.9959  0.9272  2.2923
 2516TIP3   OH228962   5.631   0.091   0.645 -0.1031  0.0812  0.1779
 2516TIP3    H128963   5.622   0.117   0.737  0.3730 -1.2283  0.6007
 2516TIP3    H228964   5.721   0.114   0.622 -0.3773  0.8773 -0.1169
 2517TIP3   OH228965   2.403   4.412  10.803  0.0612 -0.5436 -0.6957
 2517TIP3    H128966   2.343   4.421  10.729 -1.6573  1.1506  0.8413
 2517TIP3    H228967   2.472   4.354  10.771 -2.2282 -2.3246 -2.6069
 2518TIP3   OH228968   5.482   3.054  11.913 -0.7585 -0.3342 -0.2045
 2518TIP3    H128969   5.507   2.980  11.857 -0.2550 -0.5505  0.2911
 2518TIP3    H228970   5.485   3.018  12.002  0.9416  0.6434  0.1687
 2519TIP3   OH228971   3.644   5.619   2.777  0.9388  0.2267 -0.0774
 2519TIP3    H128972   3.656   5.525   2.794 -2.7053 -0.7562 -2.4045
 2519TIP3    H228973   3.578   5.647   2.840 -0.1049  0.5310 -1.2982
 2520TIP3   OH228974   5.534   6.219   6.432  0.0420  0.5868  0.0034
 2520TIP3    H128975   5.444   6.192   6.453 -0.2809  1.7092  0.0958
 2520TIP3    H228976   5.550   6.294   6.489  1.4641 -0.3222  0.8252
 2521TIP3   OH228977   0.537   3.278  16.010  0.2859  0.2191  0.3650
 2521TIP3    H128978   0.629   3.268  15.986  0.5174 -0.7658  1.6113
 2521TIP3    H228979   0.495   3.197  15.980  0.2567 -0.2864  1.7263
 2522TIP3   OH228980   2.379   1.888  13.990 -0.2347  0.2730 -0.4468
 2522TIP3    H128981   2.414   1.799  13.996  0.7645  0.6117 -1.1925
 2522TIP3    H228982   2.420   1.936  14.062 -0.7581  0.1458 -0.0572
 2523TIP3   OH228983   4.086   4.398   4.470  0.1068  0.1290 -0.4358
 2523TIP3    H128984   4.004   4.416   4.424  1.1301  0.6066 -2.1584
 2523TIP3    H228985   4.104   4.306   4.452 -0.0792  0.0114 -0.0172
 2524TIP3   OH228986   2.073   3.732   2.852 -0.2803  0.2491 -0.0188
 2524TIP3    H128987   2.128   3.707   2.926  0.3746  0.4700 -0.4259
 2524TIP3    H228988   2.048   3.822   2.870  0.0988  0.3912 -0.1945
 2525TIP3   OH228989   1.429   0.026   0.424 -0.0129 -0.2586  0.2180
 2525TIP3    H128990   1.373   0.018   0.501 -0.3353 -0.6910 -0.0561
 2525TIP3    H228991   1.402   0.109   0.383 -1.2435 -1.0129 -0.5280
 2526TIP3   OH228992   0.775   4.490  15.965  0.2715 -0.0578  0.0129
 2526TIP3    H128993   0.739   4.500  16.053  1.5465 -3.5509  1.0167
 2526TIP3    H228994   0.699   4.492  15.908 -0.7532  0.4152  1.3610
 2527TIP3   OH228995   4.845   4.331   2.966 -0.0350 -0.1778 -0.2727
 2527TIP3    H128996   4.785   4.366   3.032 -1.9105 -0.1019 -1.9830
 2527TIP3    H228997   4.860   4.240   2.992 -1.6390 -0.4699 -0.3514
 2528TIP3   OH228998   5.713   4.738   1.787 -0.4269 -0.8000 -0.0166
 2528TIP3    H128999   5.627   4.751   1.829 -0.2679 -1.3156  0.4625
 2528TIP3    H229000   5.692   4.699   1.703 -0.8083  1.0144 -0.7925
 2529TIP3   OH229001   2.397   6.658  16.100 -0.1379 -0.2307  0.2041
 2529TIP3    H129002   2.486   6.646  16.069  0.1407 -1.0628  1.2772
 2529TIP3    H229003   2.358   6.721  16.040  0.9596 -0.3894 -0.6795
 2530TIP3   OH229004   1.851   6.250  11.194 -0.1181 -0.3081 -0.4393
 2530TIP3    H129005   1.827   6.313  11.126  1.1152  0.2035 -0.4077
 2530TIP3    H229006   1.800   6.278  11.270 -0.5491 -0.1241 -0.7935
 2531TIP3   OH229007   0.509   5.632   4.720 -0.1321 -0.5309 -0.0605
 2531TIP3    H129008   0.540   5.561   4.664  1.0195 -1.0000  1.1326
 2531TIP3    H229009   0.533   5.712   4.673  3.6143 -0.8704  1.1256
 2532TIP3   OH229010   3.939   1.286   2.636 -0.6780  0.2040  0.0044
 2532TIP3    H129011   3.984   1.368   2.657  0.4167  0.2671 -2.3264
 2532TIP3    H229012   4.001   1.239   2.579 -1.4051 -2.1226  1.0501
 2533TIP3   OH229013   2.642   5.671  13.510 -0.2351 -0.5158  0.3106
 2533TIP3    H129014   2.681   5.746  13.464 -1.6306  0.7352  1.1129
 2533TIP3    H229015   2.690   5.666  13.593 -0.5795 -0.1054  0.5341
 2534TIP3   OH229016   2.881   5.070  11.014 -0.0728  0.1848 -0.1168
 2534TIP3    H129017   2.970   5.095  10.987 -0.3538  1.9569  0.5197
 2534TIP3    H229018   2.824   5.128  10.963 -0.7809  0.4477  0.9701
 2535TIP3   OH229019   4.387   6.692   3.165 -0.5608 -0.0633  0.7872
 2535TIP3    H129020   4.428   6.778   3.153 -1.3460  0.5909  2.5308
 2535TIP3    H229021   4.448   6.643   3.220  0.9657 -1.4642 -2.1081
 2536TIP3   OH229022   0.416   3.211   5.329 -0.0859  0.5256  0.4971
 2536TIP3    H129023   0.452   3.252   5.407 -0.1439 -0.1728  0.9004
 2536TIP3    H229024   0.323   3.234   5.331  0.0228  0.9829  0.3258
 2537TIP3   OH229025   4.187   5.799  13.683 -0.0626  0.4665 -1.1629
 2537TIP3    H129026   4.157   5.836  13.765 -0.2430 -0.3405 -0.8549
 2537TIP3    H229027   4.167   5.866  13.617  1.1344  1.5937 -0.3943
 2538TIP3   OH229028   6.404   4.156   0.421  0.0282  0.2042  0.2312
 2538TIP3    H129029   6.383   4.249   0.415 -0.0907  0.2078  0.7337
 2538TIP3    H229030   6.444   4.135   0.336 -1.3357  0.3579 -0.4562
 2539TIP3   OH229031   1.718   1.588  12.099  0.3545  0.0308 -0.5933
 2539TIP3    H129032   1.653   1.619  12.037  0.2483 -0.3703 -0.6864
 2539TIP3    H229033   1.799   1.632  12.074  0.0114  0.9102 -0.1637
 2540TIP3   OH229034   0.263   0.869   5.980  0.2863 -0.0801 -0.1073
 2540TIP3    H129035   0.286   0.957   6.008  0.3735  0.1950 -1.0435
 2540TIP3    H229036   0.168   0.864   5.992  0.4865 -0.4208  1.5000
 2541TIP3   OH229037   6.640   1.735  14.920 -0.0095 -0.0529  0.3046
 2541TIP3    H129038   6.692   1.679  14.978 -0.2417 -0.1414  0.4285
 2541TIP3    H229039   6.617   1.679  14.846 -0.5721 -0.2382  0.6178
 2542TIP3   OH229040   3.366   3.168   3.190 -0.6620  0.6294 -0.0940
 2542TIP3    H129041   3.320   3.237   3.237  1.5277  2.4754 -0.5684
 2542TIP3    H229042   3.393   3.106   3.258 -1.2815  1.0532  0.5380
 2543TIP3   OH229043   0.898   1.934  13.419 -0.0492  0.1959 -0.7287
 2543TIP3    H129044   0.965   1.933  13.350  1.4146  1.1608  0.6429
 2543TIP3    H229045   0.823   1.977  13.378  0.8486  0.8971 -1.6818
 2544TIP3   OH229046   2.933   6.615   1.956 -0.3078  0.0217  0.0636
 2544TIP3    H129047   2.948   6.546   1.891  0.6380 -0.2330  0.5351
 2544TIP3    H229048   2.951   6.696   1.909  0.8790 -0.1872  0.1291
 2545TIP3   OH229049   1.151   4.899  12.424  0.0339  0.0092  0.5322
 2545TIP3    H129050   1.234   4.876  12.466  1.5822  1.4287 -1.6043
 2545TIP3    H229051   1.084   4.882  12.490  1.9614 -1.7878  2.0854
 2546TIP3   OH229052   2.456   3.301  14.946 -0.1252  0.1762 -0.3272
 2546TIP3    H129053   2.376   3.251  14.930 -1.0209  1.5080 -0.0891
 2546TIP3    H229054   2.426   3.385  14.980  1.2467  1.4698 -2.1421
 2547TIP3   OH229055   0.453   1.024  11.157  0.0325  0.0320  0.1007
 2547TIP3    H129056   0.483   1.074  11.233  0.3373  2.7253 -1.7198
 2547TIP3    H229057   0.531   0.976  11.128  0.5725  0.8987  0.0726
 2548TIP3   OH229058   6.374   1.064  16.414 -0.1021 -0.3391  0.0361
 2548TIP3    H129059   6.408   1.152  16.397  0.0517 -1.0147 -3.7236
 2548TIP3    H229060   6.285   1.065  16.377 -0.4325 -1.4910  0.7642
 2549TIP3   OH229061   0.420   1.479   4.620 -0.5705 -0.7932 -0.0943
 2549TIP3    H129062   0.381   1.439   4.698  1.8380 -1.0525  1.0027
 2549TIP3    H229063   0.388   1.570   4.621 -2.3945 -1.4111 -0.1079
 2550TIP3   OH229064   2.927   3.867  15.882  0.1789 -0.4167  0.1354
 2550TIP3    H129065   2.856   3.817  15.922  0.4336 -0.8344  0.0666
 2550TIP3    H229066   2.883   3.944  15.845 -0.0645 -0.0747  1.1324
 2551TIP3   OH229067   0.420   6.721   2.928 -0.2733  0.2811  0.6571
 2551TIP3    H129068   0.390   6.659   2.861 -2.0915  0.7259  1.0240
 2551TIP3    H229069   0.451   6.666   3.000 -1.5431 -0.2216  0.8318
 2552TIP3   OH229070   3.047   5.977  12.760  0.4978  0.5573 -0.8432
 2552TIP3    H129071   3.066   5.883  12.756  3.1163  0.9714  1.1595
 2552TIP3    H229072   3.035   5.995  12.853 -0.0169  2.2426 -1.2232
 2553TIP3   OH229073   0.891   3.559   2.988 -0.5249  0.4157  0.2600
 2553TIP3    H129074   0.837   3.552   3.067 -3.0170 -1.0681 -1.5162
 2553TIP3    H229075   0.970   3.508   3.009  0.2298  2.5070  2.8333
 2554TIP3   OH229076   2.260   1.517  13.610 -0.0676 -0.3499 -0.0193
 2554TIP3    H129077   2.189   1.453  13.608  1.2251 -1.7789 -1.2711
 2554TIP3    H229078   2.242   1.570  13.688 -2.4120 -0.7748 -0.2347
 2555TIP3   OH229079   2.685   5.269  14.490  0.6407  0.0655  0.1637
 2555TIP3    H129080   2.603   5.279  14.442  1.6500 -0.1326 -1.6614
 2555TIP3    H229081   2.678   5.184  14.533 -0.6578  0.6570  1.1400
 2556TIP3   OH229082   6.246   3.861  17.066  0.2238  0.1528  0.4028
 2556TIP3    H129083   6.230   3.766  17.067 -1.4635  0.4269  1.5467
 2556TIP3    H229084   6.234   3.888  17.157 -0.2508  1.6281 -0.0829
 2557TIP3   OH229085   0.855   1.533  14.947 -0.2393 -0.2167  0.4044
 2557TIP3    H129086   0.781   1.532  14.886  0.9342 -0.9842 -1.0336
 2557TIP3    H229087   0.858   1.444  14.982  2.4225 -1.4209 -2.5857
 2558TIP3   OH229088   1.311   3.586  15.235  0.0843 -0.8429 -0.2263
 2558TIP3    H129089   1.341   3.615  15.149 -0.1701  0.2093  0.0313
 2558TIP3    H229090   1.265   3.662  15.271 -0.3128 -1.4704  0.5970
 2559TIP3   OH229091   0.504   0.669  16.203  0.6047 -0.1254 -0.4916
 2559TIP3    H129092   0.451   0.742  16.170 -0.3216 -1.0729 -1.1374
 2559TIP3    H229093   0.440   0.607  16.238  1.3720 -0.7515 -0.1812
 2560TIP3   OH229094   4.590   0.747   6.030  0.1008  0.4941 -0.2073
 2560TIP3    H129095   4.564   0.720   6.118  4.4326  1.8981  1.6832
 2560TIP3    H229096   4.563   0.676   5.973 -0.0544 -1.9041  2.7479
 2561TIP3   OH229097   0.568   5.380  16.603  0.3059 -0.3199  0.0028
 2561TIP3    H129098   0.567   5.390  16.698  0.4913  2.2555 -0.2364
 2561TIP3    H229099   0.657   5.403  16.577 -0.3187  1.0718 -0.9734
 2562TIP3   OH229100   6.334   5.450  14.324 -0.1649  0.3707 -0.5918
 2562TIP3    H129101   6.367   5.535  14.350 -0.1961  1.2045 -3.0920
 2562TIP3    H229102   6.248   5.443  14.367  0.3768  1.0434  0.6127
 2563TIP3   OH229103   1.744   4.252   2.670 -0.8682  0.1078 -0.3008
 2563TIP3    H129104   1.739   4.217   2.581 -1.2420  0.0451 -0.2571
 2563TIP3    H229105   1.658   4.292   2.685 -0.0040  2.2726 -0.8511
 2564TIP3   OH229106   0.429   2.327  14.345 -0.2159  0.0822 -0.0617
 2564TIP3    H129107   0.504   2.381  14.322 -0.2688  0.1696 -0.0295
 2564TIP3    H229108   0.361   2.389  14.372 -0.4953  0.0423 -0.6589
 2565TIP3   OH229109   5.621   3.254  16.647  0.1954  0.2402 -0.3719
 2565TIP3    H129110   5.568   3.308  16.706  0.2491 -1.5595  1.3327
 2565TIP3    H229111   5.681   3.317  16.606 -0.0524  1.5604  1.2241
 2566TIP3   OH229112   1.895   3.729   5.546 -0.0608  0.0043 -0.7623
 2566TIP3    H129113   1.953   3.762   5.614 -0.7164  1.4061 -0.8532
 2566TIP3    H229114   1.871   3.807   5.495 -2.4760 -0.4423 -0.3695
 2567TIP3   OH229115   4.212   2.765  16.650  0.1142 -0.2470  0.2902
 2567TIP3    H129116   4.119   2.786  16.651  0.0313 -0.5503  3.2846
 2567TIP3    H229117   4.215   2.671  16.630 -0.1168  0.1081 -1.4690
 2568TIP3   OH229118   4.185   2.370  13.559 -0.4676  0.0695  0.0473
 2568TIP3    H129119   4.239   2.413  13.493 -1.2039  1.2816  0.2220
 2568TIP3    H229120   4.207   2.416  13.641  0.8563 -1.7785  0.7672
 2569TIP3   OH229121   3.279   4.010  11.695  0.0014 -0.5010 -0.2187
 2569TIP3    H129122   3.256   3.983  11.783  0.2919 -0.4355 -0.1220
 2569TIP3    H229123   3.195   4.017  11.649 -0.0185 -2.4075 -0.5061
 2570TIP3   OH229124   4.505   5.703   5.392  0.4224 -0.0244 -0.3542
 2570TIP3    H129125   4.515   5.637   5.323  1.0949  0.1069 -0.3896
 2570TIP3    H229126   4.430   5.674   5.443  3.2566 -3.1472  2.2270
 2571TIP3   OH229127   1.388   0.705  13.306 -0.1253 -0.4273 -0.1381
 2571TIP3    H129128   1.325   0.682  13.238 -1.3270 -1.1200  1.1865
 2571TIP3    H229129   1.438   0.625  13.320  1.8667  0.4363 -1.9901
 2572TIP3   OH229130   6.280   5.282   4.105  0.1525  0.3348 -0.2930
 2572TIP3    H129131   6.315   5.351   4.048  2.7140 -1.2411 -0.7088
 2572TIP3    H229132   6.269   5.324   4.190 -0.0550  1.7338 -0.9950
 2573TIP3   OH229133   5.925   2.369   4.325  0.6881 -0.4405 -0.3785
 2573TIP3    H129134   5.848   2.356   4.270 -0.4395  0.4342  0.9601
 2573TIP3    H229135   5.990   2.408   4.266  0.0406 -0.9947 -1.4697
 2574TIP3   OH229136   1.499   6.635  12.712 -0.0585 -0.1961 -0.1475
 2574TIP3    H129137   1.512   6.728  12.695  0.6191 -0.0063  1.3337
 2574TIP3    H229138   1.405   6.627  12.727 -0.5805 -0.2645 -3.1841
 2575TIP3   OH229139   3.107   4.710  11.113  0.0391 -0.3806 -0.3153
 2575TIP3    H129140   3.113   4.628  11.065 -2.7926 -1.9195  1.8089
 2575TIP3    H229141   3.014   4.733  11.110  0.1024  0.4581  2.7074
 2576TIP3   OH229142   6.008   3.854  15.448 -0.1635 -0.1685  0.0365
 2576TIP3    H129143   5.946   3.809  15.505 -1.0822  0.1903 -0.6418
 2576TIP3    H229144   5.983   3.946  15.454  0.1630 -0.0486 -0.4146
 2577TIP3   OH229145   4.834   5.137  12.705 -0.2290  0.0268  0.6486
 2577TIP3    H129146   4.776   5.077  12.752 -1.0300  1.5399  1.6466
 2577TIP3    H229147   4.894   5.170  12.772 -0.2384  0.8364  0.2706
 2578TIP3   OH229148   6.443   5.296   5.231 -0.2164  0.8632 -0.0466
 2578TIP3    H129149   6.435   5.212   5.276 -2.3343  1.1404  0.1620
 2578TIP3    H229150   6.535   5.302   5.207  0.2781 -0.8059  1.3172
 2579TIP3   OH229151   0.233   6.128  13.692 -0.4051 -0.0305  0.4539
 2579TIP3    H129152   0.278   6.044  13.698 -2.3336 -1.2229 -1.3910
 2579TIP3    H229153   0.165   6.124  13.760 -0.7081 -0.0974  0.1472
 2580TIP3   OH229154   5.376   4.180   4.562 -0.3921 -0.7105  0.1927
 2580TIP3    H129155   5.311   4.199   4.494 -1.5582 -1.2920  1.1113
 2580TIP3    H229156   5.342   4.102   4.606  0.1856 -0.1633  1.6274
 2581TIP3   OH229157   3.989   3.894   4.971 -0.6976  0.2798  0.1458
 2581TIP3    H129158   3.925   3.822   4.975 -0.6472 -0.0620 -3.9119
 2581TIP3    H229159   4.071   3.854   5.001 -1.0526 -0.9283 -0.4386
 2582TIP3   OH229160   2.742   2.579   4.081 -0.0503 -0.0596  0.2453
 2582TIP3    H129161   2.785   2.566   3.996  0.2559 -2.0677  0.6944
 2582TIP3    H229162   2.649   2.585   4.061  0.1448  1.1401 -0.3882
 2583TIP3   OH229163   0.663   1.975   5.983 -0.6835  0.5373 -0.5553
 2583TIP3    H129164   0.727   1.966   6.054  0.9185 -1.6450 -2.2079
 2583TIP3    H229165   0.579   1.958   6.024  0.1938 -0.4509  0.8792
 2584TIP3   OH229166   4.718   3.975  11.833  0.3072  0.0233 -0.4395
 2584TIP3    H129167   4.691   3.928  11.754 -2.1115  0.4661  0.0924
 2584TIP3    H229168   4.794   3.926  11.866  1.0059 -0.4749 -2.7131
 2585TIP3   OH229169   6.685   4.695   5.617 -0.4992 -0.7280 -0.2145
 2585TIP3    H129170   6.779   4.703   5.632 -0.5644 -0.2091 -0.0893
 2585TIP3    H229171   6.674   4.606   5.583  0.0952 -0.6299 -0.6808
 2586TIP3   OH229172   0.364   2.550   4.963 -0.3516 -0.6824  0.1342
 2586TIP3    H129173   0.417   2.538   4.884 -1.5238 -1.1400 -0.5992
 2586TIP3    H229174   0.370   2.466   5.008 -0.0175 -0.5576  0.3222
 2587TIP3   OH229175   3.477   2.231   3.562  0.0689 -0.3164 -0.3949
 2587TIP3    H129176   3.394   2.263   3.596 -0.0485 -1.3350  0.2821
 2587TIP3    H229177   3.505   2.164   3.625  1.4330  0.0736 -0.5665
 2588TIP3   OH229178   6.006   5.069   6.213  0.2951  0.1075 -0.5297
 2588TIP3    H129179   5.983   5.050   6.304  0.7427  3.0783  0.2540
 2588TIP3    H229180   5.931   5.118   6.180 -1.2678 -3.5891 -2.7867
 2589TIP3   OH229181   3.943   1.646  11.229  0.3009 -0.1707  0.5163
 2589TIP3    H129182   3.907   1.672  11.144  0.2426 -0.4132  0.4662
 2589TIP3    H229183   3.949   1.728  11.279 -1.1902 -0.2473  0.8558
 2590TIP3   OH229184   5.633   5.091  14.152 -0.1257  0.0845  0.3277
 2590TIP3    H129185   5.694   5.145  14.102 -1.8516  0.6861 -1.1689
 2590TIP3    H229186   5.625   5.010  14.102 -0.6847  0.0832  0.4150
 2591TIP3   OH229187   5.693   0.015   1.953  0.1732 -0.1730  0.1110
 2591TIP3    H129188   5.754   0.087   1.936 -0.4058  0.3250  0.1453
 2591TIP3    H229189   5.749  -0.063   1.957  0.8740  0.3512  0.6897
 2592TIP3   OH229190   1.553   1.389  15.150 -0.5605 -0.3173  0.1122
 2592TIP3    H129191   1.581   1.304  15.117  1.1769 -0.5073  1.9451
 2592TIP3    H229192   1.585   1.452  15.085 -1.3575 -1.0046 -0.9620
 2593TIP3   OH229193   6.497   4.622   5.924  0.0368 -0.2139 -0.2738
 2593TIP3    H129194   6.584   4.616   5.964  0.2659 -1.4433 -0.9441
 2593TIP3    H229195   6.507   4.581   5.838 -2.1838 -4.0887  1.2186
 2594TIP3   OH229196   5.419   4.374  16.890  1.0783 -0.6904 -0.1632
 2594TIP3    H129197   5.401   4.282  16.906  1.4284 -0.6784  0.3115
 2594TIP3    H229198   5.343   4.420  16.928  1.3692 -0.7299  0.4817
 2595TIP3   OH229199   2.018   0.749   2.440 -0.0451 -0.8053  0.2912
 2595TIP3    H129200   2.064   0.744   2.356 -1.9436 -1.0982 -0.7453
 2595TIP3    H229201   2.068   0.814   2.490 -0.5182  1.5001 -2.1134
 2596TIP3   OH229202   1.115   1.854   3.081 -0.3231 -0.6652  0.0780
 2596TIP3    H129203   1.209   1.858   3.061 -0.7335 -1.4115 -2.1528
 2596TIP3    H229204   1.078   1.800   3.011 -2.2738 -1.1962  1.4920
 2597TIP3   OH229205   2.719   2.418   6.540  0.0914 -0.1268 -0.0118
 2597TIP3    H129206   2.811   2.408   6.520  0.4532  0.7556  1.1323
 2597TIP3    H229207   2.681   2.455   6.460  1.0126  0.9256  0.0252
 2598TIP3   OH229208   2.281   6.291   0.707 -0.7624 -0.2775  0.2350
 2598TIP3    H129209   2.349   6.261   0.767 -0.0879  0.5877 -0.0873
 2598TIP3    H229210   2.325   6.297   0.622 -1.6438 -1.2500 -0.3103
 2599TIP3   OH229211   1.080   2.421   0.480 -0.0980  0.4803  0.1058
 2599TIP3    H129212   1.176   2.410   0.480 -0.3253 -2.2508  2.5928
 2599TIP3    H229213   1.046   2.336   0.452 -1.8123  1.6549 -1.4535
 2600TIP3   OH229214   3.282   3.248   4.886 -0.2664 -0.4019  0.2587
 2600TIP3    H129215   3.377   3.233   4.889 -0.0423  0.8426 -0.2352
 2600TIP3    H229216   3.272   3.331   4.839 -1.7547 -1.8822 -2.1997
 2601TIP3   OH229217   0.989   6.239   4.066 -0.2848  0.2475 -0.1506
 2601TIP3    H129218   1.068   6.283   4.037  0.0550  0.3572  0.9524
 2601TIP3    H229219   1.020   6.163   4.116 -0.8770  1.0559  1.4580
 2602TIP3   OH229220   0.270   5.846  10.661  0.4448 -0.0670 -0.0087
 2602TIP3    H129221   0.326   5.904  10.610 -0.6748  1.0501  0.0146
 2602TIP3    H229222   0.303   5.853  10.750  0.2113  0.6635  0.0238
 2603TIP3   OH229223   0.106   1.644  13.016 -0.0368  0.2221 -0.2525
 2603TIP3    H129224   0.011   1.630  13.009 -0.0412  0.0430  0.1066
 2603TIP3    H229225   0.136   1.573  13.073  0.7054 -1.2404 -2.4211
 2604TIP3   OH229226   4.189   5.549   3.094 -0.1783 -0.7156  0.1401
 2604TIP3    H129227   4.244   5.534   3.171  2.5341 -0.6612 -1.7056
 2604TIP3    H229228   4.157   5.639   3.105  2.9393  0.5198 -0.4006
 2605TIP3   OH229229   2.518   1.438   2.879  0.2525 -0.4321  0.4424
 2605TIP3    H129230   2.475   1.485   2.951  2.3844 -0.4697  1.7758
 2605TIP3    H229231   2.518   1.347   2.906 -1.7865 -0.9496 -1.1044
 2606TIP3   OH229232   0.864   3.622   5.923 -0.4075 -0.7952  0.1885
 2606TIP3    H129233   0.804   3.550   5.902 -1.1816  0.8252 -3.6967
 2606TIP3    H229234   0.906   3.643   5.839  0.4162  2.7177  1.3907
 2607TIP3   OH229235   5.620   5.822  13.052  0.2743 -0.3353  0.1199
 2607TIP3    H129236   5.537   5.779  13.072 -0.1466  0.6289  0.4991
 2607TIP3    H229237   5.635   5.805  12.959 -0.1370 -0.8658  0.1543
 2608TIP3   OH229238   1.345   5.334  12.179  0.2078 -0.3576  0.1669
 2608TIP3    H129239   1.314   5.381  12.101 -1.6608 -0.6395  0.7129
 2608TIP3    H229240   1.354   5.401  12.246  2.2113 -0.0477 -0.3595
 2609TIP3   OH229241   2.454   3.292  11.600 -0.1445 -0.6180 -0.4144
 2609TIP3    H129242   2.382   3.340  11.642  0.8975  0.3669  0.3067
 2609TIP3    H229243   2.487   3.233  11.668  1.1593  0.5482  0.0071
 2610TIP3   OH229244   6.147   1.566  14.551 -0.4023 -0.0270 -0.0768
 2610TIP3    H129245   6.128   1.491  14.607 -0.7684 -0.9853 -1.4716
 2610TIP3    H229246   6.070   1.623  14.560 -0.9585 -0.7139 -0.4883
 2611TIP3   OH229247   0.230   0.573   2.588 -0.5369 -0.1336 -0.4701
 2611TIP3    H129248   0.228   0.579   2.493  0.7121  0.5115 -0.4756
 2611TIP3    H229249   0.322   0.588   2.611 -0.1365 -3.8465  0.6127
 2612TIP3   OH229250   5.334   0.435   5.614 -0.0951 -0.3527  0.0135
 2612TIP3    H129251   5.320   0.487   5.693 -0.1909 -3.7703  2.3252
 2612TIP3    H229252   5.248   0.395   5.597  0.5164 -1.4496 -0.4978
 2613TIP3   OH229253   3.473   2.101  14.816  0.0176 -0.5328  0.7042
 2613TIP3    H129254   3.493   2.185  14.858  0.6431  0.1343 -0.8454
 2613TIP3    H229255   3.391   2.117  14.769 -0.5888 -1.2083  1.5406
 2614TIP3   OH229256   2.524   0.611  15.930 -0.3374 -0.3127  0.0192
 2614TIP3    H129257   2.601   0.618  15.987  1.2531 -0.3197 -2.0593
 2614TIP3    H229258   2.538   0.530  15.882 -0.5453  0.7681 -1.9105
 2615TIP3   OH229259   2.596   0.120   6.107 -0.8464 -0.0212  0.1214
 2615TIP3    H129260   2.646   0.198   6.130  0.0592 -0.2631 -0.9467
 2615TIP3    H229261   2.504   0.148   6.109 -0.6956  0.3969  2.2360
 2616TIP3   OH229262   3.653   3.381   1.400 -1.0740  0.1924 -0.1293
 2616TIP3    H129263   3.726   3.442   1.406 -1.7220  0.9617  0.0262
 2616TIP3    H229264   3.576   3.433   1.422 -1.4513 -1.0863  1.6658
 2617TIP3   OH229265   5.008   2.455   4.162 -0.0147  0.1872 -0.7441
 2617TIP3    H129266   5.066   2.397   4.114  2.4718  1.7187  0.3045
 2617TIP3    H229267   4.992   2.410   4.245  2.2471  1.1251  0.2364
 2618TIP3   OH229268   5.254   0.110  12.044  0.6169 -0.1139 -0.2644
 2618TIP3    H129269   5.311   0.095  11.969 -1.4165 -1.3965 -1.5874
 2618TIP3    H229270   5.297   0.064  12.116  0.7951 -1.8530 -1.4594
 2619TIP3   OH229271   4.096   1.634  10.542 -0.1308  0.1933  0.4882
 2619TIP3    H129272   4.114   1.569  10.475  0.0655 -0.1292  0.8501
 2619TIP3    H229273   4.053   1.585  10.612 -0.9444  0.6540  0.3189
 2620TIP3   OH229274   5.636   2.069  11.519 -0.1854  0.5480 -0.6880
 2620TIP3    H129275   5.673   2.123  11.589  1.7109 -0.1105 -1.1480
 2620TIP3    H229276   5.547   2.050  11.548  0.0405  1.5993  0.7889
 2621TIP3   OH229277   0.734   2.909  11.477  0.4013  0.4388 -0.6123
 2621TIP3    H129278   0.800   2.965  11.517 -0.0788  0.6026 -0.0303
 2621TIP3    H229279   0.699   2.857  11.550 -0.9357  1.2011 -0.6952
 2622TIP3   OH229280   0.011   1.678  15.374 -0.5122  0.1610  0.0110
 2622TIP3    H129281   0.004   1.766  15.336  0.0421 -0.5846 -1.8669
 2622TIP3    H229282  -0.036   1.684  15.458  1.4016  2.8343  0.9715
 2623TIP3   OH229283   6.229   3.845  12.919  0.1065 -0.2438 -0.0697
 2623TIP3    H129284   6.219   3.916  12.982  1.7942  1.0202 -1.2068
 2623TIP3    H229285   6.317   3.810  12.936 -0.9450 -2.5557  0.9501
 2624TIP3   OH229286   5.226   6.084   4.566  0.0896 -0.3520  0.1192
 2624TIP3    H129287   5.308   6.132   4.567  0.5129 -1.0923  0.6623
 2624TIP3    H229288   5.242   6.005   4.618 -1.0306 -0.3852  0.4411
 2625TIP3   OH229289   2.591   6.512  15.042 -0.0610  0.5008 -0.5618
 2625TIP3    H129290   2.685   6.515  15.023  0.1050 -1.4074 -0.1008
 2625TIP3    H229291   2.568   6.420  15.033 -1.4763  0.6617  1.3244
 2626TIP3   OH229292   3.929   6.742  15.139  0.2407  0.2918  0.2324
 2626TIP3    H129293   4.003   6.714  15.193  0.0414 -0.7465 -0.0137
 2626TIP3    H229294   3.968   6.797  15.071  1.1158 -1.9891 -1.1756
 2627TIP3   OH229295   3.020   1.556  13.680 -0.4265 -0.3242  0.3244
 2627TIP3    H129296   2.925   1.566  13.671 -0.2734  0.9092  0.0304
 2627TIP3    H229297   3.057   1.625  13.625  0.6489 -0.7860  0.4547
 2628TIP3   OH229298   0.106   0.326  14.933 -0.1019  0.3691 -0.2278
 2628TIP3    H129299   0.088   0.233  14.947  1.7167  0.3488  2.1181
 2628TIP3    H229300   0.192   0.328  14.892 -0.3165  1.0289 -0.6674
 2629TIP3   OH229301   5.520   3.791  12.576 -0.3762 -0.4681  0.3668
 2629TIP3    H129302   5.475   3.875  12.571  0.4456  0.0402  1.4087
 2629TIP3    H229303   5.551   3.785  12.666  0.7982 -1.2446 -0.0697
 2630TIP3   OH229304   0.040   3.329  14.275  0.3588 -0.3325  0.1442
 2630TIP3    H129305  -0.044   3.351  14.235 -0.2926 -1.8336  0.6347
 2630TIP3    H229306   0.017   3.291  14.360  1.4587 -1.7396 -0.1599
 2631TIP3   OH229307   1.152   5.549  13.060  0.0646  0.2218  0.6257
 2631TIP3    H129308   1.246   5.560  13.071  0.2702  1.5092 -2.0366
 2631TIP3    H229309   1.114   5.589  13.138  1.6030  2.6893  0.1457
 2632TIP3   OH229310   0.640   4.944   2.594 -0.2002  0.6883  0.2428
 2632TIP3    H129311   0.695   4.866   2.586 -0.9034  0.1393  0.8086
 2632TIP3    H229312   0.554   4.917   2.563 -0.9564  0.6773  2.2789
 2633TIP3   OH229313   5.292   4.781  15.942  0.1187 -0.1496  0.3424
 2633TIP3    H129314   5.211   4.817  15.978  0.1352 -0.3033  0.5343
 2633TIP3    H229315   5.279   4.782  15.848  1.3321  3.3353  0.1383
 2634TIP3   OH229316   0.723   2.648   4.279 -0.0559  0.3301 -0.0311
 2634TIP3    H129317   0.670   2.715   4.324 -0.4015 -0.9726  1.5266
 2634TIP3    H229318   0.807   2.691   4.263  0.2816  0.6468  2.4111
 2635TIP3   OH229319   2.762   2.557   4.360  0.0631  0.0939 -0.7967
 2635TIP3    H129320   2.736   2.548   4.268 -1.2112 -0.3934 -0.3957
 2635TIP3    H229321   2.830   2.491   4.372 -1.8885 -1.9559 -0.6264
 2636TIP3   OH229322   1.025   5.791  15.507 -0.2795  0.5536 -0.9868
 2636TIP3    H129323   1.039   5.704  15.472  0.0855  1.4997 -3.2905
 2636TIP3    H229324   0.933   5.811  15.487 -0.8749  0.0357  1.1041
 2637TIP3   OH229325   6.414   1.821  12.654  0.1002 -0.2647 -0.7368
 2637TIP3    H129326   6.407   1.779  12.569 -1.2218 -0.5001 -0.5265
 2637TIP3    H229327   6.487   1.776  12.697 -0.6663 -1.6936 -0.8937
 2638TIP3   OH229328   4.459   6.159   3.117 -0.0558  0.4445 -0.1655
 2638TIP3    H129329   4.477   6.193   3.030 -1.4677 -0.4974 -0.8414
 2638TIP3    H229330   4.538   6.111   3.141 -0.4665 -1.1456 -1.8562
 2639TIP3   OH229331   3.650   5.698  11.596  0.2290  0.0691  0.0969
 2639TIP3    H129332   3.576   5.749  11.564  0.5002 -0.9886 -2.3393
 2639TIP3    H229333   3.727   5.751  11.576  0.1718  1.1784  2.6472
 2640TIP3   OH229334   0.787   1.680   5.981 -0.1138 -0.4663  1.1194
 2640TIP3    H129335   0.842   1.758   5.980 -0.4838 -0.2024  0.4746
 2640TIP3    H229336   0.794   1.645   6.070  1.7571 -0.9185  0.8045
 2641TIP3   OH229337   2.107   0.159   3.794 -0.3065 -0.3347 -0.4265
 2641TIP3    H129338   2.088   0.085   3.851  3.2024 -1.2028 -0.2985
 2641TIP3    H229339   2.125   0.232   3.853 -2.3208  0.2772 -0.5371
 2642TIP3   OH229340   4.969   4.710  16.591 -0.3562 -0.1462  0.4942
 2642TIP3    H129341   5.056   4.735  16.621 -0.7530 -0.4092  1.9145
 2642TIP3    H229342   4.957   4.758  16.509  1.0317  0.0568  0.3976
 2643TIP3   OH229343   3.962   5.291  12.064  0.0530 -0.3306 -0.1890
 2643TIP3    H129344   4.030   5.278  11.998  1.1231 -0.8055  0.9773
 2643TIP3    H229345   3.977   5.379  12.097 -1.6124  0.6025 -1.8119
 2644TIP3   OH229346   3.548   3.945  15.221 -0.5920  0.2063  0.3151
 2644TIP3    H129347   3.499   3.907  15.148 -0.5325  0.6901  0.0198
 2644TIP3    H229348   3.550   4.039  15.202 -0.6354  0.3445  0.9725
 2645TIP3   OH229349   6.303   5.389   0.437 -0.1495 -0.4601  0.8394
 2645TIP3    H129350   6.350   5.472   0.431  0.0077 -0.4667  1.9395
 2645TIP3    H229351   6.213   5.411   0.416  0.4424 -0.5880 -2.1245
 2646TIP3   OH229352   6.403   2.057  15.539 -0.0579 -0.1451  0.4757
 2646TIP3    H129353   6.456   2.121  15.587 -0.5378  0.3093  0.4018
 2646TIP3    H229354   6.461   2.025  15.470  1.5851 -2.7957  2.9538
 2647TIP3   OH229355   2.880   2.410   0.728  0.3477  0.8517 -0.0786
 2647TIP3    H129356   2.837   2.371   0.804  2.3418  1.4013  1.3728
 2647TIP3    H229357   2.810   2.452   0.679 -1.0305  0.1136  1.2272
 2648TIP3   OH229358   2.494   1.199  15.760 -0.5535  0.2052  0.0648
 2648TIP3    H129359   2.552   1.261  15.715  0.4056 -0.9275 -0.2705
 2648TIP3    H229360   2.429   1.255  15.803  0.0384  1.4285 -0.5928
 2649TIP3   OH229361   4.233   1.024  12.762 -0.2983 -0.0627 -0.4945
 2649TIP3    H129362   4.150   1.070  12.751 -0.4564 -0.1467  0.3056
 2649TIP3    H229363   4.208   0.932  12.772 -0.0564 -0.1834 -0.9838
 2650TIP3   OH229364   1.585   4.708  11.685 -0.5126  0.0087 -0.1295
 2650TIP3    H129365   1.655   4.765  11.716 -0.2285 -0.1975 -0.3858
 2650TIP3    H229366   1.510   4.767  11.673 -0.8310 -0.0306  1.5941
 2651TIP3   OH229367   0.458   2.242  14.914 -0.2383  0.4461  0.3640
 2651TIP3    H129368   0.435   2.174  14.851  3.8650 -2.0054  1.3006
 2651TIP3    H229369   0.395   2.230  14.986 -1.1766 -0.6414 -0.6090
 2652TIP3   OH229370   6.594   6.733   0.471 -0.8325 -0.3842 -0.0815
 2652TIP3    H129371   6.507   6.697   0.486 -0.7069 -0.6404  0.0359
 2652TIP3    H229372   6.593   6.818   0.514 -0.8724 -0.5855  0.3161
 2653TIP3   OH229373   0.145   0.370   4.836 -0.2830 -1.0916 -0.8539
 2653TIP3    H129374   0.057   0.373   4.872  0.2778  0.2641  0.4376
 2653TIP3    H229375   0.203   0.375   4.912  0.9195  2.0111 -1.9194
 2654TIP3   OH229376   0.324   1.506  10.966  0.2262 -0.1306  0.3596
 2654TIP3    H129377   0.366   1.546  10.890 -1.3528 -0.0285 -0.4850
 2654TIP3    H229378   0.311   1.414  10.941  2.9333 -0.9759  1.9086
 2655TIP3   OH229379   6.177   1.376  14.824 -0.0761  0.4110  0.0622
 2655TIP3    H129380   6.211   1.464  14.843  1.6056 -0.3811  0.8258
 2655TIP3    H229381   6.243   1.317  14.860 -1.8987 -1.1856  0.8351
 2656TIP3   OH229382   3.554   5.634   3.919  0.3074  0.0473 -0.8577
 2656TIP3    H129383   3.634   5.583   3.911  2.7842  3.4772  0.7981
 2656TIP3    H229384   3.558   5.696   3.846 -0.3300  0.8828 -0.1901
 2657TIP3   OH229385   3.256   6.360  16.790  0.4827 -0.1907  0.0622
 2657TIP3    H129386   3.249   6.321  16.703 -0.4188  0.3442 -0.1145
 2657TIP3    H229387   3.295   6.446  16.774 -1.1170  0.5418 -0.0068
 2658TIP3   OH229388   3.688   5.132  16.966  0.0681 -0.1034 -0.0405
 2658TIP3    H129389   3.675   5.039  16.946 -0.9474 -0.2732  1.2894
 2658TIP3    H229390   3.713   5.172  16.883 -1.2506 -1.2439 -1.0013
 2659TIP3   OH229391   1.209   5.057  16.412  0.0068 -1.0669  0.6177
 2659TIP3    H129392   1.170   4.989  16.468 -1.8366  0.1588  0.8550
 2659TIP3    H229393   1.154   5.058  16.334  0.1978 -0.0395  0.4880
 2660TIP3   OH229394   2.264   4.693  14.336 -0.2977 -0.4071  0.1825
 2660TIP3    H129395   2.248   4.623  14.272  0.7637 -0.6256  0.1348
 2660TIP3    H229396   2.325   4.654  14.398  0.4985  0.5597  0.0145
 2661TIP3   OH229397   3.304   3.246  15.919  0.3257 -0.0203  0.0112
 2661TIP3    H129398   3.239   3.285  15.978 -3.3041 -1.7041 -2.6220
 2661TIP3    H229399   3.347   3.321  15.878  0.4380  1.1481  2.1790
 2662TIP3   OH229400   6.030   2.379   0.369 -0.0043  0.0205 -0.1005
 2662TIP3    H129401   6.012   2.373   0.276  0.4466  0.3529 -0.2120
 2662TIP3    H229402   6.060   2.469   0.382  0.3961 -0.1669  0.2858
 2663TIP3   OH229403   2.799   6.133   0.174 -0.6720  0.3179  0.0841
 2663TIP3    H129404   2.728   6.176   0.126 -0.5337  0.4067 -0.0403
 2663TIP3    H229405   2.877   6.148   0.121 -0.7398 -0.6834 -0.3278
 2664TIP3   OH229406   1.408   4.610   1.115  0.1431  0.8569  0.1001
 2664TIP3    H129407   1.398   4.672   1.042  1.9774  1.6363  0.4649
 2664TIP3    H229408   1.380   4.526   1.080  0.4548  1.3419 -1.3463
 2665TIP3   OH229409   4.644   6.689   5.990 -0.1526  0.2368 -0.0469
 2665TIP3    H129410   4.705   6.667   5.918 -0.0733 -1.3912  0.4929
 2665TIP3    H229411   4.701   6.719   6.060 -0.1666  1.0099 -0.3580
 2666TIP3   OH229412   2.966   2.176   5.499 -0.0099  0.1697 -1.1170
 2666TIP3    H129413   2.950   2.159   5.406 -0.8511  1.0574 -1.1494
 2666TIP3    H229414   3.061   2.183   5.507  0.0616  0.1299 -1.9130
 2667TIP3   OH229415   2.700   2.766  14.889 -0.1597  0.4668  0.1678
 2667TIP3    H129416   2.698   2.839  14.950  1.2639  0.6823 -0.0298
 2667TIP3    H229417   2.793   2.747  14.876 -0.5045 -1.7783  0.6941
 2668TIP3   OH229418   2.424   6.629   0.316 -0.1583  0.1194  0.0299
 2668TIP3    H129419   2.516   6.619   0.341 -0.0502  1.4886  0.1812
 2668TIP3    H229420   2.427   6.677   0.233 -0.7369 -0.0269 -0.0751
 2669TIP3   OH229421   5.061   3.264   3.886  0.1883  0.1874 -0.4709
 2669TIP3    H129422   4.997   3.329   3.913  1.0543  1.6360 -1.8447
 2669TIP3    H229423   5.055   3.263   3.790  1.8373 -0.0645 -0.5844
 2670TIP3   OH229424   5.853   4.622   3.765  0.3753 -0.1745  0.2335
 2670TIP3    H129425   5.763   4.598   3.744  0.2928  1.5693 -1.4303
 2670TIP3    H229426   5.849   4.713   3.792  1.7463  0.1143 -0.4811
 2671TIP3   OH229427   6.070   2.229   2.243 -0.0947  0.7730  0.2202
 2671TIP3    H129428   6.024   2.273   2.315  0.9294  2.5435 -0.1836
 2671TIP3    H229429   6.162   2.254   2.255 -0.0232  1.7102 -2.1367
 2672TIP3   OH229430   2.089   3.552   5.396  0.2654 -0.1185  0.4400
 2672TIP3    H129431   2.043   3.631   5.425  1.4023  0.4535  0.7154
 2672TIP3    H229432   2.020   3.487   5.383 -0.4945  0.3523  2.0394
 2673TIP3   OH229433   4.145   1.638  13.028  0.0822  0.6011  0.2161
 2673TIP3    H129434   4.158   1.672  13.116 -4.3455 -0.8223  1.5430
 2673TIP3    H229435   4.109   1.713  12.979 -1.2193  0.3151  0.7207
 2674TIP3   OH229436   4.860   2.628  13.964  0.0385  0.2388 -0.1266
 2674TIP3    H129437   4.883   2.721  13.957 -1.7224  0.7889  0.9500
 2674TIP3    H229438   4.936   2.587  14.006 -0.1328  1.6389  1.5809
 2675TIP3   OH229439   5.402   1.198   5.032  0.1205  0.3100 -0.2218
 2675TIP3    H129440   5.416   1.282   5.076 -0.3497  1.0440 -1.4560
 2675TIP3    H229441   5.307   1.191   5.024  0.1755 -0.1528 -0.4854
 2676TIP3   OH229442   4.227   3.580   6.072  0.5897 -0.1985 -0.8725
 2676TIP3    H129443   4.297   3.514   6.074 -0.6781 -1.6069  2.5227
 2676TIP3    H229444   4.271   3.662   6.092  1.1191 -1.4060  3.5529
 2677TIP3   OH229445   6.065   0.725  12.140 -0.3653  0.4360 -0.6729
 2677TIP3    H129446   6.059   0.745  12.046 -0.1734 -1.4815 -1.1120
 2677TIP3    H229447   6.095   0.635  12.143  3.3550  1.6492  1.2772
 2678TIP3   OH229448   3.978   6.657   5.850 -0.4599  0.1302 -0.3806
 2678TIP3    H129449   3.956   6.687   5.938 -0.2065  1.0765 -0.6384
 2678TIP3    H229450   3.974   6.735   5.796  1.0785 -0.1328 -0.8975
 2679TIP3   OH229451   4.410   2.930  16.795  0.6400  0.6278 -0.0335
 2679TIP3    H129452   4.495   2.941  16.751  0.7508  0.5369  0.1588
 2679TIP3    H229453   4.350   2.903  16.725  0.9591 -0.1316 -0.0169
 2680TIP3   OH229454   0.966   6.307  13.708  0.1116 -0.2110 -0.1505
 2680TIP3    H129455   0.946   6.316  13.801  0.6637  1.7328 -0.2020
 2680TIP3    H229456   0.882   6.293  13.666 -0.2728  0.1281  0.5033
 2681TIP3   OH229457   4.017   2.737  10.705  0.3698 -0.0315 -0.3304
 2681TIP3    H129458   3.965   2.816  10.721 -1.1881 -1.2402  0.7858
 2681TIP3    H229459   4.106   2.762  10.728 -0.6732  0.3766  3.6263
 2682TIP3   OH229460   1.220   3.826  11.123 -0.4092  0.0612  0.0578
 2682TIP3    H129461   1.260   3.899  11.075 -0.5735  1.0911  1.4643
 2682TIP3    H229462   1.129   3.826  11.095 -0.7134  1.2205  1.0220
 2683TIP3   OH229463   2.378   3.934   2.233  0.3410 -0.0208  0.2917
 2683TIP3    H129464   2.308   3.916   2.295 -0.2317  3.5292  0.7921
 2683TIP3    H229465   2.341   3.910   2.148 -1.0042  0.5597  0.7031
 2684TIP3   OH229466   6.554   1.331  15.134 -0.5248  0.0457  0.5036
 2684TIP3    H129467   6.599   1.328  15.219 -0.2140 -0.9839  0.3087
 2684TIP3    H229468   6.625   1.334  15.070 -0.7617  1.0015  0.2755
 2685TIP3   OH229469   1.026   6.421  15.933  0.0328 -0.0581  0.1494
 2685TIP3    H129470   1.073   6.438  15.852  0.7828  0.3507  0.6609
 2685TIP3    H229471   1.003   6.508  15.967  0.4696 -0.1938  0.8068
 2686TIP3   OH229472   5.808   5.715  14.765 -0.1373 -0.0692  0.1219
 2686TIP3    H129473   5.763   5.724  14.681  1.2061  1.4213 -0.4579
 2686TIP3    H229474   5.751   5.761  14.827 -0.8130 -0.6286 -0.0694
 2687TIP3   OH229475   4.663   4.996   1.137  0.7268  0.2813 -0.3650
 2687TIP3    H129476   4.608   4.983   1.214 -2.2775 -0.5692 -2.5741
 2687TIP3    H229477   4.696   4.908   1.116  2.6552  0.7143  0.6779
 2688TIP3   OH229478   6.636   2.159   2.451  0.5697  0.5096 -0.4222
 2688TIP3    H129479   6.676   2.104   2.518 -0.7704 -0.0344 -0.0601
 2688TIP3    H229480   6.676   2.130   2.369 -0.9365 -1.8000 -0.3862
 2689TIP3   OH229481   2.298   5.508   3.707 -0.0301  0.0262  0.3792
 2689TIP3    H129482   2.336   5.442   3.649 -1.1877 -0.5561  0.2751
 2689TIP3    H229483   2.373   5.543   3.755  0.5273 -1.8346  0.9203
 2690TIP3   OH229484   3.086   4.250   0.619  0.1274  0.1300 -0.2919
 2690TIP3    H129485   3.148   4.205   0.562  1.3168 -0.4320  1.3855
 2690TIP3    H229486   3.136   4.323   0.655 -0.6701  0.5999 -0.1323
 2691TIP3   OH229487   3.761   5.039  10.970  0.2700  0.3287 -0.0728
 2691TIP3    H129488   3.775   4.956  10.924 -1.2339 -0.3612  0.6814
 2691TIP3    H229489   3.697   5.085  10.916 -1.1664 -0.2954  1.0731
 2692TIP3   OH229490   4.964   2.641   0.601  0.2279  0.4212 -0.5116
 2692TIP3    H129491   4.961   2.591   0.520  1.2241  0.0331 -0.3057
 2692TIP3    H229492   4.873   2.668   0.615  0.3149  2.1015 -2.7527
 2693TIP3   OH229493   0.322   0.032   0.730  0.0987 -0.0532  0.0775
 2693TIP3    H129494   0.266   0.109   0.742  0.0344 -0.1539  0.4305
 2693TIP3    H229495   0.410   0.067   0.719  0.3697 -0.0057  2.1974
 2694TIP3   OH229496   5.159   4.030   2.918  0.2445 -0.5894  0.1697
 2694TIP3    H129497   5.253   4.047   2.908 -0.0853  0.0381 -2.4301
 2694TIP3    H229498   5.117   4.099   2.866 -1.6285 -1.2368  0.7826
 2695TIP3   OH229499   2.017   3.122  12.333  0.5905 -0.5033 -0.5172
 2695TIP3    H129500   2.080   3.073  12.386  0.2304 -0.7504 -0.3136
 2695TIP3    H229501   1.996   3.063  12.260 -0.8457 -1.1908  0.4385
 2696TIP3   OH229502   2.658   1.094   1.453 -0.2786  0.3168 -1.0024
 2696TIP3    H129503   2.700   1.120   1.535 -1.2189  3.9768 -1.5970
 2696TIP3    H229504   2.730   1.057   1.401  1.2571  2.0387 -0.1798
 2697TIP3   OH229505   1.855   6.356   0.610  0.0214 -0.1640 -0.0778
 2697TIP3    H129506   1.864   6.405   0.692 -1.0358 -0.4899  0.2435
 2697TIP3    H229507   1.829   6.268   0.637  0.7425 -0.5726 -0.7134
 2698TIP3   OH229508   4.446   3.379   1.350  0.2466 -0.1075  0.3537
 2698TIP3    H129509   4.439   3.320   1.275  0.2221  1.1785 -0.6706
 2698TIP3    H229510   4.536   3.370   1.379  0.2099 -0.7429  0.2840
 2699TIP3   OH229511   1.061   6.489  14.107 -0.4963  0.0497  0.7199
 2699TIP3    H129512   1.058   6.549  14.032  3.7507 -2.7494 -1.9106
 2699TIP3    H229513   0.979   6.440  14.102 -2.4220  3.1116  0.8378
 2700TIP3   OH229514   6.734   2.936   1.421  0.0832  0.1317 -0.4030
 2700TIP3    H129515   6.728   3.022   1.379 -0.8388  0.2818  0.0443
 2700TIP3    H229516   6.804   2.892   1.372  0.2333  0.9508 -0.9523
 2701TIP3   OH229517   5.979   6.581  11.933 -0.2074 -0.2359 -0.1013
 2701TIP3    H129518   5.955   6.538  11.851 -2.3871 -0.5332  0.6490
 2701TIP3    H229519   5.922   6.658  11.936  1.5436  1.0714  0.0007
 2702TIP3   OH229520   3.398   0.605  12.638  0.3332  0.2559  0.0715
 2702TIP3    H129521   3.337   0.670  12.602 -1.2590 -0.7591  0.8985
 2702TIP3    H229522   3.357   0.576  12.719  0.4991 -2.5360 -0.7857
 2703TIP3   OH229523   6.445   2.956  12.976  0.5209  0.6604 -0.2566
 2703TIP3    H129524   6.525   2.918  13.013 -0.0666  0.1692  0.5500
 2703TIP3    H229525   6.424   2.899  12.902  0.2716  0.0622  0.2606
 2704TIP3   OH229526   0.806   2.244   3.700 -0.4409  0.3649  0.3629
 2704TIP3    H129527   0.848   2.317   3.746  0.3182  1.1054 -1.4359
 2704TIP3    H229528   0.831   2.167   3.750  1.2061  1.0456  0.6301
 2705TIP3   OH229529   5.763   1.716   4.077 -0.7341  0.3459 -0.1979
 2705TIP3    H129530   5.823   1.653   4.118  0.7024  2.2051  0.6378
 2705TIP3    H229531   5.753   1.684   3.987  0.3524 -0.8039  0.0732
 2706TIP3   OH229532   5.084   1.394  12.908 -0.0211  0.1881  0.2153
 2706TIP3    H129533   5.040   1.392  12.823 -0.5689 -0.3389  0.5097
 2706TIP3    H229534   5.048   1.471  12.952 -1.3187 -0.7414  0.8078
 2707TIP3   OH229535   2.792   6.063   5.270 -0.2579 -0.3124 -0.5825
 2707TIP3    H129536   2.706   6.075   5.311  0.2008  1.3169 -0.0473
 2707TIP3    H229537   2.820   6.152   5.248  0.2182 -1.0290 -2.9993
 2708TIP3   OH229538   0.827   2.728   3.322  0.0906 -0.4974 -0.3747
 2708TIP3    H129539   0.831   2.768   3.409  0.1051 -3.1743  0.8846
 2708TIP3    H229540   0.918   2.725   3.292  0.0159  1.1000 -0.8504
 2709TIP3   OH229541   4.411   6.243  10.910  0.2669  0.0023  0.1133
 2709TIP3    H129542   4.486   6.242  10.970  0.7176  1.4187 -0.4049
 2709TIP3    H229543   4.367   6.326  10.928 -0.5583 -0.3316 -0.3496
 2710TIP3   OH229544   0.900   4.858   5.992  0.0347  0.1230  0.3083
 2710TIP3    H129545   0.947   4.811   6.061  0.0567 -1.0873 -0.5278
 2710TIP3    H229546   0.924   4.813   5.911 -0.6389  1.0260 -0.4015
 2711TIP3   OH229547   3.457   1.367  16.681 -0.5862 -0.2047  0.0862
 2711TIP3    H129548   3.542   1.323  16.684 -0.6064 -0.2611 -0.1679
 2711TIP3    H229549   3.418   1.338  16.599  0.7450  2.8043 -1.6730
 2712TIP3   OH229550   3.605   0.342   4.180  0.1620 -0.6024 -0.2592
 2712TIP3    H129551   3.528   0.396   4.199  1.2869  1.9472 -2.6061
 2712TIP3    H229552   3.669   0.366   4.247  0.0749 -0.2074 -0.3156
 2713TIP3   OH229553   2.267   3.251   1.433  0.0779 -0.4270  0.0272
 2713TIP3    H129554   2.207   3.321   1.407  0.4148 -0.3479 -0.5546
 2713TIP3    H229555   2.309   3.225   1.351 -0.5782 -1.8161  0.1139
 2714TIP3   OH229556   1.986   1.370   5.911  0.1778 -0.0821 -1.0293
 2714TIP3    H129557   1.970   1.310   5.984 -1.3688 -0.0654 -1.3373
 2714TIP3    H229558   2.006   1.312   5.837  2.4662 -0.0755 -0.4427
 2715TIP3   OH229559   0.613   4.160  16.289  0.2848 -0.5030 -0.0385
 2715TIP3    H129560   0.597   4.066  16.294 -0.1328 -0.3284  2.5408
 2715TIP3    H229561   0.708   4.168  16.279  0.8611 -1.1472  4.2574
 2716TIP3   OH229562   2.483   1.408  13.898  0.2484 -0.1642 -1.2510
 2716TIP3    H129563   2.543   1.418  13.971 -1.5938 -0.5557  0.3795
 2716TIP3    H229564   2.476   1.313  13.886 -0.0416 -0.1216 -1.4184
 2717TIP3   OH229565   0.463   2.283  11.571 -0.5124  0.0487  0.3729
 2717TIP3    H129566   0.409   2.356  11.540 -0.2234  0.9090  1.8611
 2717TIP3    H229567   0.552   2.317  11.567 -0.4287 -0.0095  1.6185
 2718TIP3   OH229568   0.998   2.091  12.741  0.1686  0.0493  0.4733
 2718TIP3    H129569   1.018   2.001  12.766 -3.1109 -1.1360 -0.8420
 2718TIP3    H229570   1.009   2.093  12.646  0.5296  1.1402  0.5229
 2719TIP3   OH229571   6.246   1.293   3.288  0.1680 -0.0716 -0.4099
 2719TIP3    H129572   6.286   1.331   3.366  1.5478 -0.2694 -1.0052
 2719TIP3    H229573   6.167   1.346   3.274  0.3418  0.4839  0.6384
 2720TIP3   OH229574   1.704   2.483   4.090  0.2404 -0.0720 -0.1527
 2720TIP3    H129575   1.750   2.471   4.173 -1.1296 -0.4031  0.5810
 2720TIP3    H229576   1.772   2.512   4.029  1.8762 -2.6944  0.3159
 2721TIP3   OH229577   0.520   6.498   6.156  0.1943  0.4089 -0.7476
 2721TIP3    H129578   0.443   6.478   6.102 -0.4399  0.4691  0.1277
 2721TIP3    H229579   0.559   6.412   6.174 -1.8815 -0.0266  2.0491
 2722TIP3   OH229580   1.056   4.440  16.203  0.0380 -0.1407  0.3607
 2722TIP3    H129581   1.002   4.487  16.140 -0.6980 -1.1656  0.2088
 2722TIP3    H229582   1.124   4.503  16.228  0.7192  0.0877 -1.9210
 2723TIP3   OH229583   4.542   3.110   5.250 -0.1094 -0.9077 -0.3847
 2723TIP3    H129584   4.487   3.189   5.261 -2.0373 -2.3818  0.9014
 2723TIP3    H229585   4.514   3.074   5.166  1.0603 -0.0150 -1.1656
 2724TIP3   OH229586   2.277   2.152   1.471  0.3111  0.1055 -0.0233
 2724TIP3    H129587   2.260   2.100   1.550 -0.3121  0.4783  0.0935
 2724TIP3    H229588   2.347   2.211   1.497 -1.0566  1.4081  0.8030
 2725TIP3   OH229589   4.461   5.486   1.727  0.4167  0.0064  0.4769
 2725TIP3    H129590   4.496   5.568   1.692  0.4281 -0.4252 -0.5259
 2725TIP3    H229591   4.535   5.447   1.774  0.5391  0.3482  0.5741
 2726TIP3   OH229592   2.359   4.402   2.276  0.3501  0.6237  0.4401
 2726TIP3    H129593   2.279   4.363   2.312 -0.5583  0.3581 -1.7627
 2726TIP3    H229594   2.426   4.384   2.341 -1.2754  0.3348  2.0630
 2727TIP3   OH229595   0.240   3.988  15.006  0.3135  0.6692 -0.2570
 2727TIP3    H129596   0.226   4.035  14.924  0.6111  0.6609 -0.3121
 2727TIP3    H229597   0.324   3.943  14.994  0.5448  0.9745  0.1959
 2728TIP3   OH229598   1.058   3.972   3.801  0.5896 -0.1870  0.0830
 2728TIP3    H129599   0.983   3.913   3.803  0.1540  0.3673  0.4679
 2728TIP3    H229600   1.071   3.992   3.709  0.1558 -0.1503  0.0303
 2729TIP3   OH229601   1.400   5.439   0.176 -0.1005  0.4733 -0.9203
 2729TIP3    H129602   1.412   5.524   0.134  1.1192  1.3212  1.0898
 2729TIP3    H229603   1.447   5.377   0.120  0.7568  1.4480 -1.2774
 2730TIP3   OH229604   0.987   0.565   1.526  0.3774  0.1752  0.0604
 2730TIP3    H129605   1.077   0.595   1.519 -0.0272  1.4895  0.4282
 2730TIP3    H229606   0.944   0.628   1.585 -1.2706  0.7167 -1.6715
 2731TIP3   OH229607   1.713   6.158   2.912  0.3663  0.1919  0.5140
 2731TIP3    H129608   1.647   6.148   2.844 -0.1861  2.4545  0.6842
 2731TIP3    H229609   1.780   6.093   2.890  0.4027  1.1695 -2.4309
 2732TIP3   OH229610   4.838   0.681   1.857  0.5052 -0.1769 -0.4077
 2732TIP3    H129611   4.843   0.662   1.763  0.0568 -1.4694 -0.1739
 2732TIP3    H229612   4.928   0.701   1.882  0.6939 -0.2527 -1.0251
 2733TIP3   OH229613   2.944   6.479  11.552 -0.2442  0.1041 -0.0064
 2733TIP3    H129614   2.914   6.390  11.570 -1.2215  0.4978  0.3538
 2733TIP3    H229615   2.879   6.535  11.594  0.6306  0.9846  0.1931
 2734TIP3   OH229616   3.208   6.741   1.487 -0.6617  0.1781  0.2603
 2734TIP3    H129617   3.218   6.750   1.581  0.3004 -0.3385  0.2124
 2734TIP3    H229618   3.286   6.783   1.450  0.7472 -2.6820 -0.1724
 2735TIP3   OH229619   0.740   4.543  11.123  0.0064  0.3043  0.4354
 2735TIP3    H129620   0.671   4.593  11.079  1.6358  1.5867 -0.7271
 2735TIP3    H229621   0.697   4.462  11.150 -1.4262  0.1223 -2.2372
 2736TIP3   OH229622   6.581   2.401  13.873 -0.5389  0.4424 -0.5958
 2736TIP3    H129623   6.634   2.463  13.923 -0.8271  0.2525 -0.0534
 2736TIP3    H229624   6.496   2.401  13.917 -1.2635  1.3706 -1.9512
 2737TIP3   OH229625   1.072   6.776   4.373 -0.3719  0.1380 -0.3984
 2737TIP3    H129626   1.158   6.781   4.333 -1.2403 -0.5829 -2.3994
 2737TIP3    H229627   1.083   6.715   4.446  0.9702  0.6079 -0.1920
 2738TIP3   OH229628   3.177   6.518  12.982 -0.0086 -0.0226  0.3300
 2738TIP3    H129629   3.215   6.482  12.902  0.0752  0.4836  0.1406
 2738TIP3    H229630   3.107   6.456  13.006  0.0460 -0.2364 -0.0629
 2739TIP3   OH229631   1.161   6.042   2.851 -0.1875  0.2060  0.2507
 2739TIP3    H129632   1.090   6.021   2.790 -0.0597 -1.3739  0.6250
 2739TIP3    H229633   1.121   6.102   2.914 -0.5728  1.1185 -0.8345
 2740TIP3   OH229634   3.273   1.445  11.063  0.0036  0.3496 -0.8458
 2740TIP3    H129635   3.185   1.431  11.028 -0.6651  1.8867  0.2411
 2740TIP3    H229636   3.292   1.365  11.112 -0.2286 -0.5594 -2.1952
 2741TIP3   OH229637   2.692   4.395  13.251 -0.6251 -1.1351  0.2746
 2741TIP3    H129638   2.627   4.400  13.181 -0.4461 -0.7732  0.1311
 2741TIP3    H229639   2.755   4.464  13.229 -0.3340 -1.3142  0.5534
 2742TIP3   OH229640   2.802   1.209  13.350 -0.4500 -0.3861 -0.2411
 2742TIP3    H129641   2.764   1.294  13.329  1.1170  0.1551 -0.9919
 2742TIP3    H229642   2.811   1.165  13.265 -2.6649 -1.9606  0.2673
 2743TIP3   OH229643   5.010   6.118  15.595 -0.1050 -0.3326  0.2056
 2743TIP3    H129644   4.947   6.087  15.531 -0.5147  0.8772  0.0166
 2743TIP3    H229645   5.091   6.071  15.574 -1.0535 -2.2467  0.7508
 2744TIP3   OH229646   2.118   3.232  11.553 -0.0493 -0.5386 -0.0587
 2744TIP3    H129647   2.121   3.203  11.462 -1.1778  1.1441 -0.6694
 2744TIP3    H229648   2.179   3.306  11.557 -1.7039  0.8399 -0.0084
 2745TIP3   OH229649   1.056   2.245  13.852  0.1230  0.7691  0.8444
 2745TIP3    H129650   1.147   2.260  13.876  0.6062  1.6863 -1.3938
 2745TIP3    H229651   1.058   2.168  13.794 -0.3675  1.3819 -0.0080
 2746TIP3   OH229652   1.916   5.583  11.150  0.1749  0.4297  0.3488
 2746TIP3    H129653   1.841   5.563  11.206  0.5680 -0.5395  0.5364
 2746TIP3    H229654   1.935   5.675  11.167 -0.7727  0.5949  0.5321
 2747TIP3   OH229655   1.285   3.348   6.018 -0.2159  0.7123 -0.5527
 2747TIP3    H129656   1.358   3.308   5.970  0.8980  0.4083  1.3253
 2747TIP3    H229657   1.240   3.402   5.953  0.4006 -0.7837 -2.2666
 2748TIP3   OH229658   0.648   0.797  16.963  0.0128  0.5463  0.4744
 2748TIP3    H129659   0.709   0.840  17.023  1.3858 -1.0338  0.2220
 2748TIP3    H229660   0.573   0.775  17.018  1.2008 -0.7647  1.6134
 2749TIP3   OH229661   4.520   3.175   3.032  0.4332 -0.0717 -0.3832
 2749TIP3    H129662   4.593   3.236   3.045  1.6007 -1.8713  1.7963
 2749TIP3    H229663   4.442   3.227   3.051  1.1619  1.6171 -1.8076
 2750TIP3   OH229664   4.087   2.925   0.435 -0.1895 -0.6565  0.8834
 2750TIP3    H129665   4.158   2.964   0.487  1.0078 -1.1325 -0.3758
 2750TIP3    H229666   4.127   2.850   0.392 -1.1947 -0.2946 -0.7150
 2751TIP3   OH229667   1.602   6.287   2.411 -0.0293  0.2558 -0.4459
 2751TIP3    H129668   1.658   6.324   2.479 -1.2510 -0.5050  1.0260
 2751TIP3    H229669   1.638   6.320   2.329 -0.2083  3.5272  0.7210
 2752TIP3   OH229670   0.523   5.712   3.291 -0.1657 -0.0588  0.7235
 2752TIP3    H129671   0.583   5.640   3.266 -2.2651 -1.2630 -1.0015
 2752TIP3    H229672   0.531   5.717   3.386  1.1626 -1.5673  0.7256
 2753TIP3   OH229673   5.370   2.076  11.570  0.3449 -0.4204 -0.0452
 2753TIP3    H129674   5.304   2.048  11.506  0.5247  0.4886 -0.6353
 2753TIP3    H229675   5.380   2.001  11.629  0.0389 -1.1940 -0.9707
 2754TIP3   OH229676   4.082   3.747  16.317  0.6744 -0.4572  0.0448
 2754TIP3    H129677   4.006   3.690  16.300 -0.0558 -0.2523  2.4419
 2754TIP3    H229678   4.048   3.815  16.375  2.7551 -0.5169  1.3716
 2755TIP3   OH229679   3.179   0.841   5.524  0.3510 -0.0129 -0.5481
 2755TIP3    H129680   3.271   0.856   5.546  0.7679  0.0501 -2.2469
 2755TIP3    H229681   3.155   0.914   5.467 -0.5691 -0.3685 -0.6378
 2756TIP3   OH229682   1.301   3.229   1.516 -0.0157 -0.1416  0.7074
 2756TIP3    H129683   1.355   3.308   1.511  0.4875 -0.6215 -3.0687
 2756TIP3    H229684   1.221   3.257   1.561  0.3935  2.3752 -0.0716
 2757TIP3   OH229685   6.034   1.523   2.140 -0.0336 -0.2756 -0.4072
 2757TIP3    H129686   6.129   1.519   2.131 -0.0213 -1.3284  0.1097
 2757TIP3    H229687   6.001   1.512   2.051  0.3077 -0.9285 -0.4561
 2758TIP3   OH229688   3.311   0.243   3.791  0.0633 -0.3269 -0.0168
 2758TIP3    H129689   3.245   0.279   3.732  0.3263  0.1391 -0.0357
 2758TIP3    H229690   3.393   0.284   3.762  0.1653  0.0458  0.7812
 2759TIP3   OH229691   3.881   0.019   2.722 -0.4729  0.4199  0.3042
 2759TIP3    H129692   3.826  -0.058   2.730  0.4627 -0.1127  1.7686
 2759TIP3    H229693   3.840   0.084   2.779 -1.1300  0.9638 -0.7506
 2760TIP3   OH229694   4.772   2.781  15.236  0.1138  0.5289 -0.6387
 2760TIP3    H129695   4.819   2.720  15.294 -0.9845  1.1052  0.9120
 2760TIP3    H229696   4.689   2.737  15.218 -0.2056  1.0613 -0.4613
 2761TIP3   OH229697   0.277   6.616  14.530  0.1616 -0.2202  1.1846
 2761TIP3    H129698   0.269   6.535  14.479 -0.3975 -0.0734  1.0319
 2761TIP3    H229699   0.235   6.682  14.475  0.3686  0.1189  1.4344
 2762TIP3   OH229700   6.273   0.821   0.391 -0.5156  0.4577  0.3271
 2762TIP3    H129701   6.314   0.897   0.350 -1.2133  0.4405 -0.4124
 2762TIP3    H229702   6.340   0.785   0.448  0.4222  0.5766 -0.6870
 2763TIP3   OH229703   5.500   4.587  14.873 -0.2426 -0.6139 -0.2711
 2763TIP3    H129704   5.439   4.652  14.906  0.0256 -0.8619  0.7252
 2763TIP3    H229705   5.477   4.506  14.919  1.2803 -0.5485  0.6508
 2764TIP3   OH229706   1.271   6.616  11.259 -0.3967 -0.5568  0.1332
 2764TIP3    H129707   1.308   6.563  11.330 -1.1161  0.3589  1.2126
 2764TIP3    H229708   1.187   6.574  11.239 -0.3397 -0.6297  0.0481
 2765TIP3   OH229709   4.851   5.197   5.781 -0.1285  0.1988 -0.4953
 2765TIP3    H129710   4.799   5.128   5.821 -0.3882  0.0111 -1.1601
 2765TIP3    H229711   4.858   5.172   5.689  0.6760  0.5038 -0.5215
 2766TIP3   OH229712   1.207   5.884   1.138  0.4994 -0.0460  0.2667
 2766TIP3    H129713   1.253   5.963   1.164 -0.0912  0.4044 -0.0417
 2766TIP3    H229714   1.208   5.887   1.042  1.3406 -0.9189  0.2365
 2767TIP3   OH229715   4.573   1.299  16.207 -0.1936 -0.0765 -0.4721
 2767TIP3    H129716   4.504   1.293  16.142 -0.7766 -1.3278  0.2481
 2767TIP3    H229717   4.619   1.381  16.186  0.0682 -0.7945 -2.8491
 2768TIP3   OH229718   0.667   5.439  16.315 -0.5648 -0.0297 -0.2843
 2768TIP3    H129719   0.634   5.529  16.316 -1.1310 -0.2303 -0.6090
 2768TIP3    H229720   0.742   5.441  16.373  0.7225  1.1497 -1.9330
 2769TIP3   OH229721   4.562   1.500  15.333 -0.1037  0.2346 -0.5306
 2769TIP3    H129722   4.532   1.488  15.243  1.4964 -1.3542 -0.8811
 2769TIP3    H229723   4.655   1.480  15.330 -0.6217 -3.0231  2.0802
 2770TIP3   OH229724   6.336   0.636   2.706 -0.0749 -0.0802 -0.8526
 2770TIP3    H129725   6.323   0.639   2.801  0.6184 -0.0587 -0.7569
 2770TIP3    H229726   6.313   0.724   2.676  2.3897  0.7695 -0.3489
 2771TIP3   OH229727   1.135   4.905  12.853 -0.6326  0.2110  0.3091
 2771TIP3    H129728   1.049   4.886  12.891 -1.1268  2.0922  0.1970
 2771TIP3    H229729   1.166   4.821  12.820 -2.0012 -0.6711  1.2231
 2772TIP3   OH229730   5.179   2.298   0.489 -0.0764  0.0124  0.0236
 2772TIP3    H129731   5.233   2.219   0.488 -1.1411 -0.7384  0.4118
 2772TIP3    H229732   5.133   2.294   0.573  0.3056  1.3614  0.3083
 2773TIP3   OH229733   1.248   0.618  15.391 -0.3273  0.0492  0.5643
 2773TIP3    H129734   1.325   0.561  15.393 -1.1554 -1.0813  0.9477
 2773TIP3    H229735   1.280   0.703  15.423  1.1686  0.1177 -1.0702
 2774TIP3   OH229736   1.657   0.360  11.073  0.3515 -0.1407 -0.1725
 2774TIP3    H129737   1.579   0.322  11.112  1.4969 -2.2401  0.1244
 2774TIP3    H229738   1.702   0.403  11.147 -1.1409  2.1922 -0.5836
 2775TIP3   OH229739   4.765   0.704  15.791 -0.1895  0.0959 -0.1896
 2775TIP3    H129740   4.758   0.611  15.772  0.6447  0.1200 -0.6485
 2775TIP3    H229741   4.820   0.739  15.721  1.6427  0.4672  1.3701
 2776TIP3   OH229742   4.243   5.080  15.149  0.0693  0.0378  0.1531
 2776TIP3    H129743   4.199   5.106  15.068 -3.0759  1.2127  2.1611
 2776TIP3    H229744   4.173   5.051  15.206  1.9852  1.0772  3.1573
 2777TIP3   OH229745   0.650   5.840  15.841 -0.1465  0.2222 -0.7005
 2777TIP3    H129746   0.573   5.784  15.830 -0.0530 -0.2171  0.7577
 2777TIP3    H229747   0.614   5.929  15.841 -0.6399  0.0277 -0.1903
 2778TIP3   OH229748   5.787   1.033   1.271 -0.0726  1.0121 -0.7794
 2778TIP3    H129749   5.854   0.976   1.310 -0.4344  0.4681 -0.9524
 2778TIP3    H229750   5.740   0.976   1.210  0.1612  1.7282 -1.6307
 2779TIP3   OH229751   0.628   5.910  11.391  0.0042  0.3287 -0.0029
 2779TIP3    H129752   0.659   5.856  11.318  0.4275  0.0314  0.3935
 2779TIP3    H229753   0.705   5.961  11.417  0.1604 -0.4035  0.9796
 2780TIP3   OH229754   5.539   0.006   3.680  0.2540 -0.0493  0.0320
 2780TIP3    H129755   5.494   0.070   3.735 -0.5401  0.1976 -0.8759
 2780TIP3    H229756   5.470  -0.057   3.656  0.7663 -0.5959 -0.0267
 2781TIP3   OH229757   2.788   1.218   1.662  0.3860 -0.0277 -0.0181
 2781TIP3    H129758   2.867   1.255   1.700 -0.2138 -0.0791  1.2970
 2781TIP3    H229759   2.732   1.197   1.737 -1.6773  1.7814 -0.9654
 2782TIP3   OH229760   4.877   4.694   5.722 -0.2702 -0.3766 -0.2199
 2782TIP3    H129761   4.857   4.775   5.675  0.3767  0.7787  1.4785
 2782TIP3    H229762   4.972   4.698   5.737 -0.0633 -1.9204 -0.9853
 2783TIP3   OH229763   0.791   6.673   6.049 -0.1927 -0.2544 -0.3247
 2783TIP3    H129764   0.709   6.626   6.034  0.0826 -0.2885 -1.8672
 2783TIP3    H229765   0.803   6.725   5.969  1.6416 -0.7997 -0.4280
 2784TIP3   OH229766   4.632   1.547  16.088  0.5030 -0.2841  0.1074
 2784TIP3    H129767   4.714   1.521  16.045  0.2120 -0.0294 -0.6251
 2784TIP3    H229768   4.642   1.641  16.103 -0.1726  0.0142 -1.1927
 2785TIP3   OH229769   1.899   4.929  12.570 -0.5322 -0.3690 -0.5474
 2785TIP3    H129770   1.886   4.881  12.488 -2.8684  0.1128 -0.4739
 2785TIP3    H229771   1.869   5.018  12.550  1.3524  0.4546  0.0858
 2786TIP3   OH229772   6.423   2.866   2.642 -0.1050 -0.0152 -0.4145
 2786TIP3    H129773   6.488   2.936   2.637  2.6950 -2.1428  3.1572
 2786TIP3    H229774   6.346   2.908   2.681  0.3846  1.7742 -1.3267
 2787TIP3   OH229775   3.885   4.663   4.434 -0.2774  0.2950  0.1001
 2787TIP3    H129776   3.905   4.653   4.341 -0.4652 -0.0566  0.0977
 2787TIP3    H229777   3.790   4.671   4.438 -0.3561 -0.7616  0.3602
 2788TIP3   OH229778   1.766   0.589  11.232  0.3900 -0.5838  0.6610
 2788TIP3    H129779   1.827   0.605  11.304 -1.3429 -0.0281  2.0387
 2788TIP3    H229780   1.735   0.677  11.207  1.5443 -0.7021 -1.2872
 2789TIP3   OH229781   2.463   6.548  13.496 -0.5900  0.0928 -0.1337
 2789TIP3    H129782   2.451   6.592  13.579  0.8029  0.7582 -0.2729
 2789TIP3    H229783   2.396   6.586  13.438 -0.4860  0.8118  0.2177
 2790TIP3   OH229784   3.491   2.669   3.868  0.1280 -0.2921  0.3501
 2790TIP3    H129785   3.505   2.574   3.870 -0.5758 -0.4608 -1.6021
 2790TIP3    H229786   3.401   2.679   3.836  0.9846  1.0647 -1.7959
 2791TIP3   OH229787   6.547   1.322  17.032  0.0179  0.1643 -0.5579
 2791TIP3    H129788   6.462   1.298  17.068 -0.1759 -1.0516 -1.8056
 2791TIP3    H229789   6.530   1.343  16.940  0.8949  0.9024 -0.5565
 2792TIP3   OH229790   3.148   0.236  12.173 -0.2321 -0.3952 -0.0601
 2792TIP3    H129791   3.122   0.221  12.083  2.1187 -0.5992 -0.7214
 2792TIP3    H229792   3.166   0.149  12.208 -2.4233 -0.4606  1.0675
 2793TIP3   OH229793   3.435   5.842   1.903  0.1770 -0.1830 -0.2026
 2793TIP3    H129794   3.525   5.817   1.922  0.2256 -2.2795 -2.8878
 2793TIP3    H229795   3.387   5.821   1.983  1.9576  0.4344  1.0528
 2794TIP3   OH229796   6.775   1.655  11.096 -0.0380 -0.7297  0.2739
 2794TIP3    H129797   6.724   1.637  11.175 -0.4165 -1.3316 -0.0992
 2794TIP3    H229798   6.756   1.581  11.038  0.6281 -0.5461 -0.1845
 2795TIP3   OH229799   6.172   5.901   2.493 -0.0515 -0.0861 -0.4227
 2795TIP3    H129800   6.160   5.996   2.484  1.1097  0.2386  1.2310
 2795TIP3    H229801   6.249   5.882   2.441  0.1769  0.0151 -0.1255
 2796TIP3   OH229802   2.148   3.021  14.654  0.1047 -0.4410 -0.2801
 2796TIP3    H129803   2.217   3.082  14.627  1.6817 -1.5449  1.1625
 2796TIP3    H229804   2.171   2.938  14.611 -0.2552 -0.8377  0.2804
 2797TIP3   OH229805   5.404   6.168   1.500 -0.2979  0.7879  0.2298
 2797TIP3    H129806   5.367   6.101   1.558  0.0420 -0.2469 -0.7359
 2797TIP3    H229807   5.476   6.205   1.550  2.0777 -2.3334 -0.7259
 2798TIP3   OH229808   5.973   2.351  12.445  0.3166  0.6817  0.2642
 2798TIP3    H129809   6.023   2.308  12.513  0.9250  0.2510 -0.4483
 2798TIP3    H229810   5.923   2.280  12.403  0.8954  0.7446 -0.5459
 2799TIP3   OH229811   2.786   4.211  15.058 -0.4470 -0.1941 -0.1131
 2799TIP3    H129812   2.707   4.263  15.073  0.6534  1.1649  1.1392
 2799TIP3    H229813   2.828   4.254  14.983  0.0654  0.2752  0.4335
 2800TIP3   OH229814   0.955   5.193   0.730  0.0769 -0.7210 -0.0251
 2800TIP3    H129815   0.986   5.284   0.724 -0.5885 -0.5628 -1.0585
 2800TIP3    H229816   0.952   5.176   0.824 -0.5504  0.5923  0.2109
 2801TIP3   OH229817   3.810   3.265  16.944  0.6491  0.2742  0.1452
 2801TIP3    H129818   3.811   3.187  17.000 -1.5747  0.2436  0.1562
 2801TIP3    H229819   3.793   3.337  17.003 -0.4168  0.3916 -0.2881
 2802TIP3   OH229820   4.497   6.479   5.504  0.1873  0.3530 -0.4662
 2802TIP3    H129821   4.511   6.390   5.473 -2.1458  0.0873 -0.8940
 2802TIP3    H229822   4.459   6.524   5.428 -2.9845  0.4355  1.0963
 2803TIP3   OH229823   0.918   2.380  13.435  0.2427 -0.5527  0.8057
 2803TIP3    H129824   0.849   2.433  13.476 -0.2906  1.3021 -2.3382
 2803TIP3    H229825   0.999   2.425  13.456  0.2254 -1.0255  1.9184
 2804TIP3   OH229826   3.334   6.578  15.013  0.2269  0.2590 -0.3359
 2804TIP3    H129827   3.369   6.582  15.103 -0.6880  2.0629 -0.0332
 2804TIP3    H229828   3.411   6.563  14.959  0.9658  0.3527  0.6626
 2805TIP3   OH229829   3.756   4.997   4.510 -0.0203  0.1229  0.1019
 2805TIP3    H129830   3.730   4.915   4.467 -1.2527  0.6457 -0.1721
 2805TIP3    H229831   3.679   5.021   4.562 -0.1385  1.7721 -0.8255
 2806TIP3   OH229832   4.659   2.182   5.498 -0.4204 -0.3260  0.0566
 2806TIP3    H129833   4.578   2.154   5.539 -1.0624  0.3939 -0.6988
 2806TIP3    H229834   4.678   2.267   5.539 -0.6020 -0.0139 -0.4982
 2807TIP3   OH229835   0.774   1.069   2.787 -0.2536 -0.3653 -0.4152
 2807TIP3    H129836   0.858   1.029   2.807  0.3606  0.7885 -0.6760
 2807TIP3    H229837   0.710   1.000   2.805  0.5918 -0.6553  1.5955
 2808TIP3   OH229838   5.509   6.018  12.628  0.3052  0.1493  0.0879
 2808TIP3    H129839   5.497   6.021  12.533  2.1214 -0.4707 -0.1730
 2808TIP3    H229840   5.482   5.930  12.653  1.1881 -0.1639 -0.0539
 2809TIP3   OH229841   0.435   0.472  11.091 -0.5775  0.2424  0.6056
 2809TIP3    H129842   0.488   0.534  11.141  2.0733  0.1283 -1.9655
 2809TIP3    H229843   0.347   0.510  11.093  1.0016  4.2671 -1.0936
 2810TIP3   OH229844   1.648   5.046  17.119 -0.2196 -0.1994  0.1864
 2810TIP3    H129845   1.673   4.984  17.188 -3.0899  0.8549  2.2852
 2810TIP3    H229846   1.592   4.996  17.060 -1.8725  0.1354  1.4330
 2811TIP3   OH229847   5.684   0.347  16.035 -0.0631  0.2312  0.3529
 2811TIP3    H129848   5.588   0.350  16.031 -0.1274 -1.2119  0.7751
 2811TIP3    H229849   5.703   0.292  16.111  1.0963 -1.0223 -0.8221
 2812TIP3   OH229850   4.108   3.850  14.936 -1.0263  0.4736 -0.3777
 2812TIP3    H129851   4.044   3.779  14.930  0.2860 -0.7578 -0.1939
 2812TIP3    H229852   4.056   3.928  14.956 -2.2121 -1.0422  2.8706
 2813TIP3   OH229853   1.050   3.331   0.975 -0.0090  0.1136 -0.0314
 2813TIP3    H129854   1.086   3.244   0.991  0.0675 -0.0240 -0.9215
 2813TIP3    H229855   1.127   3.384   0.951 -0.0139  0.4965  0.7761
 2814TIP3   OH229856   0.622   1.806   4.499  0.2372 -0.1978  0.4625
 2814TIP3    H129857   0.583   1.880   4.544 -2.6867 -2.3868  1.6855
 2814TIP3    H229858   0.655   1.749   4.569 -1.1476 -1.9240 -0.2399
 2815TIP3   OH229859   4.683   4.008  16.472  0.4338  0.1003  0.1187
 2815TIP3    H129860   4.714   4.083  16.422 -0.4532  0.1954 -0.3045
 2815TIP3    H229861   4.596   3.990  16.436 -0.3528  0.3704  1.8330
 2816TIP3   OH229862   2.453   2.579  16.938  0.3549 -0.0897  0.9656
 2816TIP3    H129863   2.401   2.518  16.990 -0.1023 -1.8030 -1.3761
 2816TIP3    H229864   2.389   2.634  16.894  0.5365 -1.0994 -0.6172
 2817TIP3   OH229865   5.148   1.090  12.681 -0.6269 -0.4620 -0.1182
 2817TIP3    H129866   5.070   1.144  12.696 -0.1990 -0.1021  0.8487
 2817TIP3    H229867   5.160   1.042  12.763 -1.2202 -2.3214 -1.1102
 2818TIP3   OH229868   1.015   2.728   3.984 -0.0923 -0.6555 -0.3111
 2818TIP3    H129869   1.014   2.632   3.986 -1.6947 -0.6849 -1.6707
 2818TIP3    H229870   0.997   2.753   4.075  2.4405 -1.5954  0.5162
 2819TIP3   OH229871   4.539   1.130  13.293 -0.3133  0.3551  0.4623
 2819TIP3    H129872   4.467   1.075  13.321  0.5636 -1.3776 -0.5906
 2819TIP3    H229873   4.541   1.121  13.198  1.8389 -0.3613  0.5407
 2820TIP3   OH229874   0.563   4.450   1.024  0.0189  0.3079  0.3751
 2820TIP3    H129875   0.566   4.508   0.948 -0.0484  0.9428  0.8535
 2820TIP3    H229876   0.507   4.377   0.996 -0.5460  0.8635  0.0454
 2821TIP3   OH229877   1.767   0.790  15.515 -0.1469  0.5253 -0.3395
 2821TIP3    H129878   1.844   0.745  15.549  0.5610  2.3333  0.5414
 2821TIP3    H229879   1.801   0.870  15.475 -1.6211  1.8181  0.8834
 2822TIP3   OH229880   6.696   4.312   2.986  0.4959 -1.0778  0.0499
 2822TIP3    H129881   6.676   4.366   3.063  0.1676 -3.0016  1.3492
 2822TIP3    H229882   6.611   4.278   2.958  0.5146  0.2753 -1.6819
 2823TIP3   OH229883   2.094   2.610  12.988  0.2768  0.2057 -0.3251
 2823TIP3    H129884   2.061   2.683  13.041  0.0049 -0.6391  0.6743
 2823TIP3    H229885   2.171   2.579  13.034 -1.1477 -1.8838  0.7431
 2824TIP3   OH229886   6.572   3.764   0.701 -0.1409 -0.0785  0.0488
 2824TIP3    H129887   6.580   3.792   0.610 -1.4847 -0.1060 -0.0757
 2824TIP3    H229888   6.479   3.749   0.714  0.3252 -2.5843  0.7018
 2825TIP3   OH229889   1.152   1.938  11.181 -0.2899 -0.3239  0.4289
 2825TIP3    H129890   1.216   1.880  11.139 -1.8542 -0.5303 -1.7584
 2825TIP3    H229891   1.203   2.013  11.210  1.4120 -1.7984  1.3403
 2826TIP3   OH229892   0.104   5.718   3.773 -0.0552  0.3042  0.4252
 2826TIP3    H129893   0.087   5.743   3.682  0.0918  0.4689  0.4414
 2826TIP3    H229894   0.182   5.768   3.797 -1.5147  2.2081  1.4212
 2827TIP3   OH229895   2.079   5.474  15.581 -0.9682  0.0024 -0.4145
 2827TIP3    H129896   2.071   5.460  15.487 -0.2371 -0.5610 -0.3993
 2827TIP3    H229897   2.004   5.428  15.619 -1.0805 -0.0489 -0.7049
 2828TIP3   OH229898   2.136   2.393   4.009 -0.1350  0.3699 -0.1667
 2828TIP3    H129899   2.084   2.420   4.084  2.2077  0.5136  1.4332
 2828TIP3    H229900   2.227   2.402   4.037  0.8021  0.7950 -3.1455
 2829TIP3   OH229901   0.454   5.446  12.134 -0.0711  0.3281  0.0417
 2829TIP3    H129902   0.375   5.486  12.098  0.2590  1.0338  0.0940
 2829TIP3    H229903   0.425   5.397  12.211 -0.8118 -1.2892 -1.2251
 2830TIP3   OH229904   2.118   2.696  16.473 -0.3289 -0.2341  0.5475
 2830TIP3    H129905   2.200   2.746  16.467 -1.1177  1.2578  1.8361
 2830TIP3    H229906   2.050   2.761  16.455 -1.2537 -1.4086 -0.2434
 2831TIP3   OH229907   2.966   1.928   1.151 -0.4301 -0.4264 -0.0120
 2831TIP3    H129908   3.019   1.998   1.189 -0.9233  0.9437 -1.7847
 2831TIP3    H229909   2.992   1.849   1.198  2.2163  0.4542  0.0445
 2832TIP3   OH229910   1.043   5.752   1.537 -0.4716  0.4155  1.0777
 2832TIP3    H129911   0.999   5.825   1.492 -2.1536 -1.4136 -0.3363
 2832TIP3    H229912   1.135   5.777   1.538 -0.9631  2.3982  0.2877
 2833TIP3   OH229913   3.995   1.813   5.610  0.1628  0.2626 -0.7729
 2833TIP3    H129914   3.964   1.835   5.522 -1.9678  0.3572 -0.0354
 2833TIP3    H229915   3.929   1.753   5.644  0.0394  1.5815  1.4049
 2834TIP3   OH229916   0.364   3.772   3.495  0.3596  0.5498  0.3093
 2834TIP3    H129917   0.355   3.860   3.458  0.4968  0.5577  0.2963
 2834TIP3    H229918   0.298   3.720   3.449  1.1722  0.3364 -0.6329
 2835TIP3   OH229919   0.453   5.727   0.327 -0.3702 -0.0558  0.7398
 2835TIP3    H129920   0.392   5.781   0.276 -0.1511  0.3782  0.9320
 2835TIP3    H229921   0.523   5.706   0.265  0.1679  0.9244  1.0075
 2836TIP3   OH229922   0.326   5.745   2.415  0.1448 -0.7389  0.9239
 2836TIP3    H129923   0.339   5.726   2.507 -0.5225 -0.6790  1.0330
 2836TIP3    H229924   0.407   5.789   2.387 -0.7826  1.9099  2.1906
 2837TIP3   OH229925   4.443   5.530  12.510 -0.7997 -0.0203  0.7839
 2837TIP3    H129926   4.453   5.621  12.482 -0.9204 -0.2607 -0.0663
 2837TIP3    H229927   4.521   5.486  12.476 -2.2747 -0.8895 -1.5950
 2838TIP3   OH229928   5.965   2.978  10.619 -0.1041  0.2503  0.2999
 2838TIP3    H129929   5.996   3.061  10.584 -2.8349  0.5766 -1.5106
 2838TIP3    H229930   6.021   2.960  10.694  1.7554  2.7577 -0.4612
 2839TIP3   OH229931   2.782   1.726  15.352  0.6776  1.0378  0.3679
 2839TIP3    H129932   2.850   1.666  15.382  0.3240  0.3944 -0.1038
 2839TIP3    H229933   2.781   1.796  15.417  0.3595 -0.0092  1.5073
 2840TIP3   OH229934   1.418   6.748   2.173  0.0224  0.0384  0.2105
 2840TIP3    H129935   1.407   6.778   2.083 -0.6118 -0.8855 -0.0312
 2840TIP3    H229936   1.513   6.746   2.186  0.1481 -0.8459 -0.7951
 2841TIP3   OH229937   2.981   2.692  14.572 -0.6084 -0.1939 -0.2036
 2841TIP3    H129938   2.932   2.759  14.525  0.8198 -0.0334 -1.5162
 2841TIP3    H229939   2.958   2.610  14.528 -2.1346 -0.5627  1.2203
 2842TIP3   OH229940   1.193   4.451  16.846  0.4693  0.4584 -0.0075
 2842TIP3    H129941   1.222   4.512  16.779 -0.7490 -0.0943 -1.0727
 2842TIP3    H229942   1.140   4.386  16.798  2.7960 -2.1865  0.8499
 2843TIP3   OH229943   5.739   5.510  14.265 -0.5050  0.2277 -0.3744
 2843TIP3    H129944   5.647   5.508  14.238 -0.1926  0.6186 -1.4687
 2843TIP3    H229945   5.786   5.467  14.194  0.0113 -1.2027  0.8196
 2844TIP3   OH229946   4.935   5.033  15.217 -0.1486  0.0638  0.2714
 2844TIP3    H129947   4.887   5.116  15.214 -0.1991  0.0049 -0.4791
 2844TIP3    H229948   4.871   4.968  15.188  0.1164 -0.1415  0.1571
 2845TIP3   OH229949   0.876   1.012   5.278  0.0109 -0.3931 -0.7426
 2845TIP3    H129950   0.870   1.009   5.374 -0.2145 -0.1071 -0.7480
 2845TIP3    H229951   0.886   1.105   5.257  0.5880 -0.5038 -0.9686
 2846TIP3   OH229952   2.342   2.967  13.598  0.3831  0.2455  0.0691
 2846TIP3    H129953   2.310   2.877  13.608  0.4396  0.4476  2.3311
 2846TIP3    H229954   2.343   2.982  13.504  0.0894 -2.0310 -0.3231
 2847TIP3   OH229955   1.525   3.548  15.970 -0.2563 -0.6624  0.6510
 2847TIP3    H129956   1.586   3.594  15.912  1.1834 -0.5861  2.1791
 2847TIP3    H229957   1.440   3.558  15.927  0.2667  2.0070  0.0931
 2848TIP3   OH229958   2.297   3.672  16.564 -0.5362  0.4453  0.0999
 2848TIP3    H129959   2.365   3.684  16.630 -0.0700 -0.8452 -0.1324
 2848TIP3    H229960   2.217   3.705  16.605  0.3197  2.4600  0.1774
 2849TIP3   OH229961   5.969   3.344  13.689 -0.2020  0.0654  0.3025
 2849TIP3    H129962   5.909   3.313  13.621  0.8783 -0.9172 -0.2182
 2849TIP3    H229963   5.914   3.351  13.768 -0.6096 -2.7690  0.3380
 2850TIP3   OH229964   0.377   5.770  12.354 -0.1487  0.1639  0.2187
 2850TIP3    H129965   0.373   5.850  12.407  1.8660  0.2007  0.3712
 2850TIP3    H229966   0.454   5.724  12.387 -0.6570 -1.3138 -0.6238
 2851TIP3   OH229967   3.049   2.442  13.475 -0.1024  0.1335  0.1854
 2851TIP3    H129968   3.064   2.497  13.399 -1.3233  0.9628  0.5278
 2851TIP3    H229969   3.004   2.364  13.441  0.7001 -0.1888 -0.1478
 2852TIP3   OH229970   4.122   1.160  11.927 -0.4097  0.5249 -0.0232
 2852TIP3    H129971   4.087   1.077  11.960 -0.2569  0.4851  0.0384
 2852TIP3    H229972   4.130   1.215  12.004 -0.5964  0.6288 -0.0769
 2853TIP3   OH229973   5.741   0.587  11.473  0.1631 -0.2151  0.3380
 2853TIP3    H129974   5.832   0.556  11.469  0.6304  1.3408 -1.9072
 2853TIP3    H229975   5.706   0.572  11.386 -1.5801 -0.2410  1.0241
 2854TIP3   OH229976   4.620   2.297   6.019 -0.6857 -0.3308 -0.4388
 2854TIP3    H129977   4.696   2.240   6.031 -0.5551 -0.8357 -3.4474
 2854TIP3    H229978   4.586   2.310   6.108  1.5568 -1.9286  0.7031
 2855TIP3   OH229979   1.652   4.285   2.286  0.1740 -0.1274  0.5791
 2855TIP3    H129980   1.561   4.314   2.273  0.8125  1.4575 -0.4986
 2855TIP3    H229981   1.653   4.196   2.253 -0.7449  0.2204 -0.4286
 2856TIP3   OH229982   4.168   2.501   6.467  0.4951 -0.0048 -0.4174
 2856TIP3    H129983   4.219   2.580   6.448  1.1018 -0.8283 -2.2500
 2856TIP3    H229984   4.233   2.436   6.494  0.0846 -0.1729  0.1950
 2857TIP3   OH229985   2.650   0.667  12.452 -0.8114  0.3455 -0.4582
 2857TIP3    H129986   2.657   0.634  12.363 -3.5976  0.0074 -0.6143
 2857TIP3    H229987   2.673   0.760  12.445 -0.8124  0.2752 -1.4907
 2858TIP3   OH229988   3.762   2.999  12.357  0.0063  0.0654  0.3304
 2858TIP3    H129989   3.848   2.977  12.392  0.4095  1.5406  0.2976
 2858TIP3    H229990   3.706   3.011  12.434  0.3990  1.3376  0.4277
 2859TIP3   OH229991   0.066   4.495   2.824  0.1954  0.0046 -0.3915
 2859TIP3    H129992   0.107   4.531   2.903 -0.3632  0.5893 -0.3635
 2859TIP3    H229993  -0.011   4.447   2.857  0.1042  0.0350 -0.5609
 2860TIP3   OH229994   6.642   1.988   3.069  0.4189  0.7343  0.3903
 2860TIP3    H129995   6.548   1.985   3.051  0.2965 -0.9791  1.2419
 2860TIP3    H229996   6.652   2.057   3.134 -0.3844  0.2116  1.0731
 2861TIP3   OH229997   3.909   4.771  12.580 -0.4419  0.4230 -0.1483
 2861TIP3    H129998   3.965   4.848  12.570 -2.0958  1.4387 -2.0631
 2861TIP3    H229999   3.931   4.716  12.505 -0.0079 -0.4787  0.6431
 2862TIP3   OH230000   0.234   5.528   3.563  0.3611 -0.4433 -0.1523
 2862TIP3    H130001   0.208   5.598   3.623 -0.1460 -1.4388  0.7975
 2862TIP3    H230002   0.191   5.450   3.597  0.7381 -1.1780 -1.3460
 2863TIP3   OH230003   0.060   6.422  13.973 -0.3566 -0.0516 -0.4900
 2863TIP3    H130004   0.030   6.331  13.961 -0.2170  0.0643 -1.7104
 2863TIP3    H230005   0.063   6.458  13.885  0.7790  0.7711 -0.1226
 2864TIP3   OH230006   1.945   0.878   1.235 -0.1690  0.0720  0.2037
 2864TIP3    H130007   1.970   0.953   1.288 -1.6045  0.7476 -0.0457
 2864TIP3    H230008   1.971   0.902   1.146  0.6382 -0.3229  0.3274
 2865TIP3   OH230009   5.186   4.060   1.853  0.3158 -0.1576 -0.1026
 2865TIP3    H130010   5.224   4.117   1.786  0.0545  1.1639  0.8543
 2865TIP3    H230011   5.110   4.021   1.811  0.2241  0.5635 -0.6194
 2866TIP3   OH230012   2.411   2.037   0.433 -0.2176 -0.3014 -0.0813
 2866TIP3    H130013   2.471   2.024   0.359  0.6310  1.9499  0.1622
 2866TIP3    H230014   2.456   1.995   0.507  0.2901 -0.0704 -0.2508
 2867TIP3   OH230015   3.579   5.063   2.771  0.1591 -0.2951  0.7221
 2867TIP3    H130016   3.625   5.041   2.690  0.9099  2.7379  0.2850
 2867TIP3    H230017   3.569   4.979   2.816  0.0024 -1.9905 -2.3470
 2868TIP3   OH230018   6.126   2.712  16.463  0.0270  0.2569 -0.3837
 2868TIP3    H130019   6.084   2.797  16.473 -0.7698  0.0277 -1.7947
 2868TIP3    H230020   6.055   2.648  16.467  0.7632 -0.4667  2.0951
 2869TIP3   OH230021   3.063   5.557   4.159  0.1375 -0.4775  0.0558
 2869TIP3    H130022   3.101   5.643   4.176  0.7375 -0.8933  0.8624
 2869TIP3    H230023   3.014   5.537   4.239 -1.4795 -0.1124 -0.8269
 2870TIP3   OH230024   5.334   4.568   3.291 -0.0087 -0.0379  0.7560
 2870TIP3    H130025   5.416   4.602   3.255  0.3319 -0.3310  1.2574
 2870TIP3    H230026   5.340   4.473   3.280 -1.0514  0.0551 -0.8273
 2871TIP3   OH230027   6.287   3.009  14.185 -0.1195 -0.2433 -0.0114
 2871TIP3    H130028   6.266   3.103  14.185 -3.0673 -0.8706  0.9228
 2871TIP3    H230029   6.243   2.975  14.263  0.6309 -2.4802 -0.5527
 2872TIP3   OH230030   3.307   6.615  16.303 -0.0418  0.1334  0.4152
 2872TIP3    H130031   3.322   6.619  16.209 -0.2427 -0.4056  0.3592
 2872TIP3    H230032   3.384   6.571  16.338  1.3387  2.7834  0.8283
 2873TIP3   OH230033   3.538   2.967   5.690 -0.2192 -0.3292 -0.0938
 2873TIP3    H130034   3.481   3.029   5.737 -0.1429 -0.0314 -0.3932
 2873TIP3    H230035   3.481   2.895   5.667  0.1532 -1.4140  2.1959
 2874TIP3   OH230036   3.140   1.433   2.153 -0.4519  0.7956 -0.3568
 2874TIP3    H130037   3.203   1.499   2.182  1.1107  0.0189 -1.8911
 2874TIP3    H230038   3.193   1.369   2.105 -2.6279  0.8916 -2.9785
 2875TIP3   OH230039   3.063   1.643  11.178 -0.4876  0.0185 -0.2255
 2875TIP3    H130040   2.987   1.627  11.123 -1.7080  0.3658  1.3340
 2875TIP3    H230041   3.070   1.738  11.182  0.0376 -0.0131 -0.3732
 2876TIP3   OH230042   3.043   3.636  14.202  0.1181 -0.4463  0.1764
 2876TIP3    H130043   3.056   3.676  14.289 -0.3507  1.2813 -0.5197
 2876TIP3    H230044   2.967   3.579  14.213  0.5893 -0.9071  1.1163
 2877TIP3   OH230045   1.172   2.448   4.868  0.0050  0.4292  0.3820
 2877TIP3    H130046   1.191   2.433   4.961 -0.3797 -0.7432  0.2784
 2877TIP3    H230047   1.121   2.371   4.841 -0.3428  1.0186 -0.6657
 2878TIP3   OH230048   0.744   5.073   1.537 -0.4919 -0.1082 -0.4730
 2878TIP3    H130049   0.772   5.125   1.462  0.0505 -0.6985 -0.6805
 2878TIP3    H230050   0.772   4.984   1.517 -3.4304 -0.9303 -1.1701
 2879TIP3   OH230051   1.571   3.476   4.965 -0.3772  0.6971  0.0319
 2879TIP3    H130052   1.478   3.483   4.985 -0.2307  0.7150  0.7301
 2879TIP3    H230053   1.585   3.538   4.893 -0.8218  0.9852  0.1908
 2880TIP3   OH230054   6.084   4.082   2.410 -0.3643 -0.9025 -0.4590
 2880TIP3    H130055   6.147   4.010   2.400 -0.2060 -1.1376  1.9789
 2880TIP3    H230056   6.130   4.147   2.463 -1.4779 -0.1652 -0.3861
 2881TIP3   OH230057   4.064   1.184  10.501 -0.2140 -0.7118 -0.2559
 2881TIP3    H130058   4.132   1.136  10.454  1.5094  0.1232  1.2909
 2881TIP3    H230059   4.080   1.276  10.480  0.0846 -0.3943  1.3150
 2882TIP3   OH230060   3.607   6.759   5.579 -0.2957 -0.0920 -0.1356
 2882TIP3    H130061   3.556   6.683   5.550  0.3585 -0.5109 -0.2010
 2882TIP3    H230062   3.542   6.827   5.593 -0.7305 -0.2164 -1.5150
 2883TIP3   OH230063   2.035   5.587   5.393 -0.3434  0.1845  1.0441
 2883TIP3    H130064   2.071   5.572   5.480  1.4487  2.5928  0.7525
 2883TIP3    H230065   1.966   5.651   5.406 -1.7334 -1.2706  1.0001
 2884TIP3   OH230066   4.990   6.248   2.591  0.5141 -0.2833 -0.1062
 2884TIP3    H130067   4.951   6.226   2.507 -0.5244  1.9825 -0.2555
 2884TIP3    H230068   4.978   6.170   2.645 -0.8136 -0.9475 -1.3451
 2885TIP3   OH230069   2.371   1.498   0.343  0.1090 -0.5210  0.2428
 2885TIP3    H130070   2.326   1.482   0.426  1.5016 -1.3587  0.8611
 2885TIP3    H230071   2.321   1.448   0.278 -0.7971 -0.1260  0.6278
 2886TIP3   OH230072   4.873   5.034   3.052 -0.3036 -0.0327 -0.1846
 2886TIP3    H130073   4.964   5.007   3.044 -0.3094  0.0770 -0.6671
 2886TIP3    H230074   4.864   5.063   3.142  0.1133 -0.1403 -0.1085
 2887TIP3   OH230075   1.238   0.488   0.318 -0.2141  0.0044  0.2278
 2887TIP3    H130076   1.285   0.571   0.312  0.8862 -0.6712 -0.9620
 2887TIP3    H230077   1.231   0.470   0.411 -0.9492  1.6940  0.5159
 2888TIP3   OH230078   6.664   5.226  15.029 -0.2780  0.0137  0.1043
 2888TIP3    H130079   6.716   5.281  14.971  1.5311 -1.2951  0.4282
 2888TIP3    H230080   6.653   5.279  15.109 -1.6709  1.2969 -0.8978
 2889TIP3   OH230081   2.205   6.196   1.187 -0.1922  0.0069  0.0735
 2889TIP3    H130082   2.152   6.211   1.108  0.9190  0.1974 -0.6411
 2889TIP3    H230083   2.185   6.271   1.243 -0.5309  0.1782 -0.2690
 2890TIP3   OH230084   3.132   0.448  16.487 -1.0367  0.3999 -0.1920
 2890TIP3    H130085   3.070   0.509  16.447 -0.4409  1.8799  1.0960
 2890TIP3    H230086   3.194   0.504  16.533  0.4855 -1.1176 -0.3429
 2891TIP3   OH230087   0.189   0.263   0.779 -0.0480  0.2025  0.4680
 2891TIP3    H130088   0.131   0.288   0.707  1.0249  1.6430  0.0915
 2891TIP3    H230089   0.270   0.310   0.762  1.0525 -1.3520  1.3044
 2892TIP3   OH230090   5.710   3.129   3.288 -0.7694  0.3385 -0.4337
 2892TIP3    H130091   5.715   3.094   3.377 -0.1473 -0.8101 -0.9130
 2892TIP3    H230092   5.618   3.117   3.263 -0.7992  0.0599 -0.1926
 2893TIP3   OH230093   5.732   1.324   1.992  0.0675  0.0852 -0.6716
 2893TIP3    H130094   5.712   1.255   1.928  1.2289  0.3355 -1.3277
 2893TIP3    H230095   5.744   1.277   2.075 -1.1259 -0.2774 -0.7003
 2894TIP3   OH230096   1.313   4.449   6.351 -0.0295  0.2514  0.3957
 2894TIP3    H130097   1.273   4.482   6.431 -1.3171  1.3906 -0.6814
 2894TIP3    H230098   1.403   4.426   6.376 -0.3478  0.8001  2.0919
 2895TIP3   OH230099   5.961   0.408   5.658 -0.3455 -0.0386 -0.0353
 2895TIP3    H130100   5.972   0.447   5.572  0.8672 -0.8804 -0.2782
 2895TIP3    H230101   5.909   0.329   5.643 -0.0657 -0.2282 -0.0066
 2896TIP3   OH230102   5.878   5.883  13.094 -0.2776  0.3440  0.2347
 2896TIP3    H130103   5.886   5.892  13.189  0.1704  4.3162 -0.0810
 2896TIP3    H230104   5.790   5.848  13.080 -0.1262 -0.8513  2.0956
 2897TIP3   OH230105   2.472   3.084  15.189 -0.2201 -0.2347 -0.3447
 2897TIP3    H130106   2.555   3.059  15.230 -0.0640 -0.2287 -0.6556
 2897TIP3    H230107   2.469   3.179  15.199 -0.4393 -0.2901  0.1335
 2898TIP3   OH230108   5.470   5.092   2.202 -0.3551  0.3875  0.2554
 2898TIP3    H130109   5.407   5.138   2.147  0.7340 -0.2116 -1.5245
 2898TIP3    H230110   5.441   5.001   2.199 -0.0317  0.2835  0.2964
 2899TIP3   OH230111   2.458   5.861   6.487  0.3108  0.1522 -0.1111
 2899TIP3    H130112   2.466   5.850   6.393  0.1034 -0.0373 -0.1062
 2899TIP3    H230113   2.449   5.956   6.499 -3.2687 -0.0511 -0.5799
 2900TIP3   OH230114   3.203   0.926   2.896  0.0079  0.5114  0.7706
 2900TIP3    H130115   3.163   0.951   2.813 -0.0075  1.3866  1.0368
 2900TIP3    H230116   3.165   0.986   2.960 -0.7782 -0.8650  1.5885
 2901TIP3   OH230117   4.126   6.424  11.834 -0.3175 -0.2697  0.4560
 2901TIP3    H130118   4.193   6.445  11.899  0.6358  0.3946 -0.7421
 2901TIP3    H230119   4.129   6.328  11.827 -0.8813 -0.4121  1.8476
 2902TIP3   OH230120   6.228   1.184   2.083 -0.1080  0.3304 -0.3455
 2902TIP3    H130121   6.140   1.154   2.105 -0.3270  1.2192  0.0307
 2902TIP3    H230122   6.239   1.160   1.992 -1.1513  1.1139 -0.7004
 2903TIP3   OH230123   2.665   6.534  12.907  0.2459  0.5791 -0.1851
 2903TIP3    H130124   2.706   6.489  12.980  1.1815  0.3793 -0.8232
 2903TIP3    H230125   2.658   6.625  12.936  2.4365  0.8962 -0.5921
 2904TIP3   OH230126   1.060   2.534  16.588  0.1941  0.5206 -0.2395
 2904TIP3    H130127   1.017   2.488  16.516 -0.7380  0.9755  0.0207
 2904TIP3    H230128   1.085   2.619  16.550  1.8798 -0.1616 -0.7090
 2905TIP3   OH230129   6.474   4.634  14.775 -0.2466 -0.5547 -0.4201
 2905TIP3    H130130   6.393   4.650  14.727 -0.3612 -1.0594 -0.3947
 2905TIP3    H230131   6.447   4.586  14.853 -0.0003 -0.1603 -0.0902
 2906TIP3   OH230132   5.987   5.928   6.903 -0.1634  0.0885 -0.4506
 2906TIP3    H130133   5.965   5.979   6.825 -0.1484  0.0802 -0.4600
 2906TIP3    H230134   5.965   5.838   6.880 -0.4945  0.1350 -0.3191
 2907TIP3   OH230135   6.355   1.226  14.954  0.7273 -0.0003  0.6037
 2907TIP3    H130136   6.373   1.145  14.907  0.9693  1.3602 -1.7393
 2907TIP3    H230137   6.428   1.234  15.016  0.4660 -1.7721  1.1590
 2908TIP3   OH230138   1.250   5.693  11.298  0.2841  0.4066  0.1971
 2908TIP3    H130139   1.214   5.654  11.378 -0.2360 -0.4210 -0.4363
 2908TIP3    H230140   1.174   5.722  11.249  0.4354 -1.4309 -1.1915
 2909TIP3   OH230141   2.158   2.084  15.734 -0.1456 -0.2304 -0.4255
 2909TIP3    H130142   2.105   2.008  15.759 -0.9790  0.6246  0.4281
 2909TIP3    H230143   2.179   2.069  15.642 -1.1813 -0.9804 -0.5510
 2910TIP3   OH230144   2.688   1.456  15.238  0.1582 -0.2380  0.0609
 2910TIP3    H130145   2.706   1.511  15.162 -0.3705 -0.4350 -0.2106
 2910TIP3    H230146   2.607   1.490  15.275  0.2604 -0.3233  0.3730
 2911TIP3   OH230147   4.955   6.028   1.551 -0.2393  0.1487 -0.0554
 2911TIP3    H130148   4.947   6.086   1.475 -2.4664  1.6204  1.2566
 2911TIP3    H230149   5.005   6.079   1.614 -3.2686  1.1643  1.5719
 2912TIP3   OH230150   1.513   1.472   0.438  0.4721 -0.0567  0.4456
 2912TIP3    H130151   1.499   1.531   0.363  1.7913 -0.0517  0.1953
 2912TIP3    H230152   1.549   1.528   0.506  1.1135 -0.4395  0.4255
 2913TIP3   OH230153   3.908   1.922  12.191 -0.3342 -0.0193 -0.1520
 2913TIP3    H130154   3.991   1.927  12.238  0.8382  0.2011 -2.1736
 2913TIP3    H230155   3.899   2.007  12.149 -1.1199 -0.3590 -0.6797
 2914TIP3   OH230156   3.317   0.016  15.759  0.3676 -0.0580  0.2729
 2914TIP3    H130157   3.306  -0.058  15.700  1.1410  0.2538 -0.2746
 2914TIP3    H230158   3.368   0.079  15.709  0.0653  0.6721  0.8823
 2915TIP3   OH230159   5.181   1.213   0.980 -0.5125 -0.5844 -0.0939
 2915TIP3    H130160   5.156   1.289   0.929  3.4211  0.6744 -0.2793
 2915TIP3    H230161   5.163   1.239   1.071 -1.5387 -0.4368 -0.3261
 2916TIP3   OH230162   2.275   0.222  13.677 -0.1612 -0.2694  0.2370
 2916TIP3    H130163   2.231   0.208  13.593  1.1338 -0.6536 -0.4033
 2916TIP3    H230164   2.211   0.196  13.743 -1.9114  1.8771 -0.5277
 2917TIP3   OH230165   4.391   0.372   5.210 -0.3891  0.0964  0.3093
 2917TIP3    H130166   4.340   0.380   5.291 -2.1480 -0.3520 -0.7044
 2917TIP3    H230167   4.331   0.327   5.150  0.9824  0.2088 -1.1487
 2918TIP3   OH230168   0.653   4.807  15.432  0.1350 -0.3716 -0.3874
 2918TIP3    H130169   0.718   4.833  15.367 -2.3356 -1.8108 -3.5752
 2918TIP3    H230170   0.649   4.712  15.426 -0.7742 -0.4629  1.2913
 2919TIP3   OH230171   3.543   4.215   1.863 -0.2657 -0.0443  0.5015
 2919TIP3    H130172   3.552   4.147   1.796  2.1880  0.9631 -0.2459
 2919TIP3    H230173   3.462   4.193   1.909 -0.4390 -2.4411 -0.8775
 2920TIP3   OH230174   2.566   5.781   1.500  0.4209 -0.4284 -0.1079
 2920TIP3    H130175   2.590   5.843   1.431  1.0921  0.4722  0.9367
 2920TIP3    H230176   2.536   5.836   1.572 -1.8144 -1.4171 -0.2377
 2921TIP3   OH230177   2.214   0.761  15.726 -0.2629 -0.0204  0.0053
 2921TIP3    H130178   2.268   0.810  15.789  0.0003  1.9479 -1.6885
 2921TIP3    H230179   2.273   0.697  15.688  0.4131  0.8773 -0.4814
 2922TIP3   OH230180   1.908   1.572   0.388 -0.0149 -0.6770 -0.6408
 2922TIP3    H130181   1.927   1.663   0.410  0.1638 -0.5976 -1.1148
 2922TIP3    H230182   1.895   1.573   0.293 -0.4006 -1.0755 -0.5933
 2923TIP3   OH230183   0.452   3.520   1.884  0.0458 -0.4257  0.0338
 2923TIP3    H130184   0.362   3.522   1.918 -0.4960 -0.4492 -1.3647
 2923TIP3    H230185   0.458   3.598   1.829  1.2641  0.2026  1.0163
 2924TIP3   OH230186   6.580   3.792  14.038 -0.0253 -0.0048 -0.2096
 2924TIP3    H130187   6.656   3.827  14.084  1.8239 -2.5583 -1.2110
 2924TIP3    H230188   6.590   3.825  13.948  0.9500 -1.8607 -0.8015
 2925TIP3   OH230189   4.209   4.238   3.051 -0.2273  0.2907  0.1907
 2925TIP3    H130190   4.221   4.317   3.103 -0.4175  0.9757 -0.8096
 2925TIP3    H230191   4.231   4.167   3.112  1.4901  1.1724  0.6411
 2926TIP3   OH230192   2.620   2.625   5.087  0.0323  0.0453 -0.2179
 2926TIP3    H130193   2.682   2.562   5.123 -0.4493 -1.3641 -1.7882
 2926TIP3    H230194   2.556   2.572   5.040 -1.7121  1.5528  0.3658
 2927TIP3   OH230195   1.883   3.683  17.024  0.1927 -0.3165 -0.3531
 2927TIP3    H130196   1.790   3.680  17.006  0.1695  0.9524 -0.4771
 2927TIP3    H230197   1.911   3.771  16.997  1.6116 -1.0154 -1.2423
 2928TIP3   OH230198   1.617   0.691  16.004 -0.6218 -0.4882 -0.3441
 2928TIP3    H130199   1.669   0.763  15.968 -1.3766 -0.0968 -0.6609
 2928TIP3    H230200   1.627   0.699  16.098  0.9750 -1.2250 -0.4288
 2929TIP3   OH230201   6.613   0.253  16.165 -0.1647  0.0068 -0.1833
 2929TIP3    H130202   6.594   0.162  16.144 -3.0555  0.8873 -1.6349
 2929TIP3    H230203   6.643   0.292  16.083  3.4549 -0.1305  0.9587
 2930TIP3   OH230204   2.764   1.994   3.596 -0.0046  0.0318  0.7742
 2930TIP3    H130205   2.812   1.976   3.515 -1.7952  1.0299 -0.5415
 2930TIP3    H230206   2.794   1.927   3.657  1.7570 -0.4256 -0.5502
 2931TIP3   OH230207   1.427   6.286   4.067  0.4702 -0.0450 -0.0412
 2931TIP3    H130208   1.389   6.241   3.992 -0.3079 -0.2708  0.4942
 2931TIP3    H230209   1.505   6.329   4.031 -0.6446  0.9953 -1.2920
 2932TIP3   OH230210   0.022   3.797   1.766  0.1055  0.2474  0.0245
 2932TIP3    H130211   0.028   3.859   1.693  1.5970  0.4481  0.2837
 2932TIP3    H230212   0.038   3.711   1.725 -0.2036  0.2367 -0.0701
 2933TIP3   OH230213   6.424   1.852   2.647  0.6544 -0.0930 -0.4265
 2933TIP3    H130214   6.494   1.854   2.581  1.0594  1.9917  0.0064
 2933TIP3    H230215   6.406   1.759   2.661  2.5170 -0.6261 -1.4154
 2934TIP3   OH230216   2.016   2.947   2.670 -0.0608  0.0243 -0.3362
 2934TIP3    H130217   1.930   2.984   2.653 -0.4318 -1.3647 -1.6079
 2934TIP3    H230218   2.002   2.885   2.741 -0.0243  0.0717 -0.2872
 2935TIP3   OH230219   5.085   6.725  12.980 -0.6584 -0.0436 -0.1683
 2935TIP3    H130220   5.101   6.650  12.923 -0.0069  1.6855 -2.3520
 2935TIP3    H230221   5.125   6.702  13.064 -0.5464 -2.1386 -0.7819
 2936TIP3   OH230222   5.735   5.205  16.935 -0.0830 -0.0274 -0.7697
 2936TIP3    H130223   5.643   5.187  16.914 -0.6176  0.4887  1.0133
 2936TIP3    H230224   5.767   5.125  16.977  1.4078 -1.6031 -4.7012
 2937TIP3   OH230225   0.283   6.152   0.150 -0.2721 -0.0868  0.0741
 2937TIP3    H130226   0.352   6.162   0.085 -0.0552 -3.8398 -0.4175
 2937TIP3    H230227   0.320   6.093   0.215 -1.8153  0.6406  1.6469
 2938TIP3   OH230228   6.338   3.782  16.624 -0.2601  0.2130  0.0640
 2938TIP3    H130229   6.384   3.856  16.584  1.2477 -0.2376  0.9249
 2938TIP3    H230230   6.261   3.821  16.665  1.5164  1.6326  2.1784
 2939TIP3   OH230231   2.288   5.958  10.999 -0.7735  0.4912 -0.4787
 2939TIP3    H130232   2.211   6.009  11.025 -0.3940  0.8140  0.0245
 2939TIP3    H230233   2.253   5.885  10.949 -1.3812  0.8515 -0.5898
 2940TIP3   OH230234   6.456   5.968   3.789 -0.3663  0.0528 -0.1790
 2940TIP3    H130235   6.481   6.006   3.873  0.0760  0.0264 -0.2973
 2940TIP3    H230236   6.411   5.887   3.812  1.6096 -1.0313 -0.0183
 2941TIP3   OH230237   5.691   0.794   0.575  0.4425  0.0418 -0.0364
 2941TIP3    H130238   5.701   0.889   0.570  2.9238 -0.2991 -3.0881
 2941TIP3    H230239   5.763   0.759   0.523 -0.2492 -3.5481  1.2426
 2942TIP3   OH230240   3.544   1.875   1.182 -0.3130  0.3404 -0.0114
 2942TIP3    H130241   3.581   1.963   1.187 -0.9881  0.5709  1.1063
 2942TIP3    H230242   3.620   1.817   1.183  0.0961  0.8728  0.5149
 2943TIP3   OH230243   2.853   6.015   4.765 -0.3274 -0.5172 -0.1342
 2943TIP3    H130244   2.792   5.948   4.795 -1.6046  0.9816  0.7170
 2943TIP3    H230245   2.803   6.068   4.703  0.0236  0.8458  0.7172
 2944TIP3   OH230246   6.029   3.237   1.183 -0.6059  0.0045  0.6552
 2944TIP3    H130247   6.063   3.220   1.271  0.6456 -0.3227  0.1181
 2944TIP3    H230248   5.971   3.163   1.165 -0.3762 -0.2545  0.9671
 2945TIP3   OH230249   5.666   0.840  16.569  0.5973 -0.4007 -0.4629
 2945TIP3    H130250   5.589   0.892  16.546  0.3997  0.1051  1.2814
 2945TIP3    H230251   5.631   0.768  16.621  1.2231 -0.5543 -0.2512
 2946TIP3   OH230252   2.108   2.657   1.113 -0.4878 -0.2445  0.3510
 2946TIP3    H130253   2.037   2.719   1.097  1.6754  2.1186 -0.5741
 2946TIP3    H230254   2.070   2.571   1.095 -3.2920  0.8834  0.6126
 2947TIP3   OH230255   3.452   1.167   5.403  0.0984  0.0207 -0.6899
 2947TIP3    H130256   3.459   1.230   5.475  2.8501  0.8355 -1.6096
 2947TIP3    H230257   3.539   1.166   5.364 -0.4344 -2.9757 -1.8875
 2948TIP3   OH230258   1.513   2.437   2.896 -0.3684  0.9746  0.2107
 2948TIP3    H130259   1.543   2.347   2.912 -0.5497  1.0288  0.8697
 2948TIP3    H230260   1.417   2.430   2.898 -0.3974  0.9069 -1.2936
 2949TIP3   OH230261   4.951   1.755   1.579 -0.0339 -0.3046  0.2437
 2949TIP3    H130262   5.009   1.787   1.649  1.2392 -0.0689 -0.8993
 2949TIP3    H230263   4.870   1.805   1.590 -0.3977 -1.3060  2.4580
 2950TIP3   OH230264   2.696   4.858  13.866 -0.0306 -0.0150 -0.7313
 2950TIP3    H130265   2.761   4.885  13.930 -0.5428 -2.7456  1.0214
 2950TIP3    H230266   2.663   4.940  13.829  3.9322  1.4219 -1.2585
 2951TIP3   OH230267   4.007   4.554  12.075 -0.3317  0.6965 -0.2466
 2951TIP3    H130268   4.062   4.479  12.099 -0.5044  1.2055  1.8962
 2951TIP3    H230269   4.055   4.630  12.106 -1.0021  1.3388 -0.7696
 2952TIP3   OH230270   4.234   0.678  14.893 -0.5006  0.5406 -0.9252
 2952TIP3    H130271   4.174   0.741  14.934 -1.2424 -0.1980 -0.8585
 2952TIP3    H230272   4.233   0.702  14.801 -1.0668  0.4082 -0.9599
 2953TIP3   OH230273   5.334   3.407   4.563  0.0556 -0.6151  0.0986
 2953TIP3    H130274   5.293   3.403   4.649  0.9788  1.0511  0.6375
 2953TIP3    H230275   5.291   3.480   4.519  1.3117  0.1112  0.0685
 2954TIP3   OH230276   6.523   3.849   4.004  0.1206 -0.2171  0.3036
 2954TIP3    H130277   6.441   3.897   4.017 -0.0357  0.0641 -1.6245
 2954TIP3    H230278   6.588   3.916   3.987  0.7590 -0.4509  1.7001
 2955TIP3   OH230279   5.179   5.895   6.059  0.4823 -0.5398 -0.7737
 2955TIP3    H130280   5.087   5.899   6.085  0.3534  1.7156 -1.5195
 2955TIP3    H230281   5.179   5.844   5.977 -0.0209 -1.0084 -0.4842
 2956TIP3   OH230282   3.272   6.209  15.864 -0.5218 -0.6137  0.2057
 2956TIP3    H130283   3.356   6.199  15.818 -0.5400  0.6144 -0.1347
 2956TIP3    H230284   3.272   6.141  15.930  1.2440  0.0473  0.9298
 2957TIP3   OH230285   0.857   1.292  11.892 -0.3585  0.0223  0.4304
 2957TIP3    H130286   0.815   1.323  11.972 -1.4185  0.9485 -0.4661
 2957TIP3    H230287   0.951   1.307  11.907 -0.5213 -0.1771  1.6443
 2958TIP3   OH230288   6.260   5.918   0.054 -0.0070  0.1035  0.0012
 2958TIP3    H130289   6.193   5.849   0.047 -0.2983  0.3147  0.5939
 2958TIP3    H230290   6.250   5.970  -0.025  1.2950 -1.4781 -1.2449
 2959TIP3   OH230291   1.382   2.952   6.052 -0.1335 -0.6883  0.6609
 2959TIP3    H130292   1.466   2.950   6.007  0.3557  0.3718  1.5082
 2959TIP3    H230293   1.393   2.892   6.126 -0.6752 -1.8203 -0.1665
 2960TIP3   OH230294   5.109   4.965   0.372 -0.4815  0.0727 -0.6435
 2960TIP3    H130295   5.014   4.976   0.367 -0.3945  0.6924 -0.9335
 2960TIP3    H230296   5.124   4.928   0.459 -0.9212  0.7609 -0.2712
 2961TIP3   OH230297   1.804   4.156  14.799  0.1270  0.5848  0.1456
 2961TIP3    H130298   1.790   4.217  14.726  0.9344  0.7358  0.1174
 2961TIP3    H230299   1.735   4.091  14.788 -1.2732  1.9488  0.6686
 2962TIP3   OH230300   6.015   3.841   3.908  0.6546  1.0071 -0.6554
 2962TIP3    H130301   5.947   3.848   3.976  2.9633 -0.4346  1.9013
 2962TIP3    H230302   5.973   3.790   3.838 -1.5907  2.0273 -0.1170
 2963TIP3   OH230303   0.105   3.832   3.053 -0.3875 -0.1724  0.3222
 2963TIP3    H130304   0.157   3.770   3.001 -1.1294 -0.2637 -0.3268
 2963TIP3    H230305   0.150   3.915   3.043 -0.8951 -0.0465 -1.0470
 2964TIP3   OH230306   6.003   5.433   5.768  0.0967  0.5216 -0.1583
 2964TIP3    H130307   5.986   5.469   5.856  0.7187  1.2868 -0.3492
 2964TIP3    H230308   5.939   5.477   5.712 -0.0672  0.2939 -0.1481
 2965TIP3   OH230309   0.398   0.655  16.614  0.4114  0.0936  0.1742
 2965TIP3    H130310   0.393   0.692  16.703  0.4422  2.0116 -0.6079
 2965TIP3    H230311   0.356   0.569  16.622 -0.7597  0.7898  1.7729
 2966TIP3   OH230312   4.781   6.356  16.009 -0.2751 -1.0053 -0.2233
 2966TIP3    H130313   4.792   6.274  15.962 -0.2263 -0.4674 -1.1569
 2966TIP3    H230314   4.826   6.421  15.955 -0.3447 -0.3597  0.4926
 2967TIP3   OH230315   4.352   4.788   0.057  0.4679  0.0465  0.1633
 2967TIP3    H130316   4.278   4.739   0.093  0.3522  0.8235  1.0104
 2967TIP3    H230317   4.421   4.723   0.046  0.0008 -0.4883  0.3607
 2968TIP3   OH230318   6.091   3.321  11.770 -0.1707 -0.0751 -0.6809
 2968TIP3    H130319   6.054   3.409  11.779  1.4323  0.5666 -0.2714
 2968TIP3    H230320   6.181   3.330  11.801 -0.7388 -2.4289  1.8391
 2969TIP3   OH230321   1.476   3.922  16.800 -0.5357  0.2498  0.2105
 2969TIP3    H130322   1.474   4.017  16.803 -0.5795  0.2691 -0.2549
 2969TIP3    H230323   1.536   3.902  16.727  0.4754 -0.0882  1.1215
 2970TIP3   OH230324   3.082   3.594   4.864 -0.1129 -0.2191  0.4789
 2970TIP3    H130325   3.045   3.510   4.840 -0.2313 -0.2550  0.7931
 2970TIP3    H230326   3.162   3.573   4.912  0.0449 -0.1470  0.2519
 2971TIP3   OH230327   2.210   0.563  16.663 -0.4456  0.1703 -0.1512
 2971TIP3    H130328   2.226   0.502  16.735  0.2632  0.8188  0.2512
 2971TIP3    H230329   2.295   0.569  16.619 -0.5239  0.8485 -0.2020
 2972TIP3   OH230330   3.130   4.597   0.920  0.1212 -0.4045  0.1071
 2972TIP3    H130331   3.206   4.656   0.918  1.1518 -1.6496  1.5013
 2972TIP3    H230332   3.055   4.655   0.927  1.1209  0.7626  1.5165
 2973TIP3   OH230333   6.722   2.605  12.674  0.0952 -0.0042 -0.0987
 2973TIP3    H130334   6.636   2.567  12.659 -0.5144  0.3631  2.1543
 2973TIP3    H230335   6.764   2.546  12.737  1.7028 -0.4630 -1.5719
 2974TIP3   OH230336   0.366   2.034   6.054 -0.2994  0.4913 -0.3133
 2974TIP3    H130337   0.292   2.020   6.113  0.8127 -0.3941  0.9044
 2974TIP3    H230338   0.408   2.115   6.086 -0.5967  0.8659 -0.8577
 2975TIP3   OH230339   6.598   2.501   1.527 -0.2757  0.0183  1.3911
 2975TIP3    H130340   6.553   2.439   1.585  1.8455 -1.6411  1.3373
 2975TIP3    H230341   6.555   2.489   1.442 -0.2814 -0.9749  1.5238
 2976TIP3   OH230342   5.055   4.524  13.308  0.4800  0.2497  0.3917
 2976TIP3    H130343   5.021   4.437  13.288  1.7170 -0.7672  2.6071
 2976TIP3    H230344   5.148   4.519  13.285  0.0303  1.8192 -1.9392
 2977TIP3   OH230345   6.143   1.102  13.308  0.1839  0.3127 -0.1877
 2977TIP3    H130346   6.123   1.067  13.221  0.6939  1.3897 -0.7454
 2977TIP3    H230347   6.070   1.161  13.328 -1.0261 -1.5271  1.0425
 2978TIP3   OH230348   2.289   5.114   3.696  0.1817  0.8188  0.1377
 2978TIP3    H130349   2.269   5.052   3.625 -0.3751  2.0871 -0.8310
 2978TIP3    H230350   2.208   5.118   3.747  1.1934 -1.5765  2.0231
 2979TIP3   OH230351   1.993   2.396   2.684 -0.8469 -0.2953  0.2172
 2979TIP3    H130352   2.071   2.442   2.653 -3.0738  3.7234  0.3812
 2979TIP3    H230353   2.029   2.321   2.734  2.8490  0.6761 -0.8176
 2980TIP3   OH230354   1.502   5.476  10.754 -0.1518  0.0173 -0.4707
 2980TIP3    H130355   1.463   5.563  10.766 -0.7310 -0.5854  2.5752
 2980TIP3    H230356   1.596   5.490  10.769 -0.6213 -0.3557  3.2963
 2981TIP3   OH230357   2.960   3.045  14.111 -0.2463  0.4445  0.4892
 2981TIP3    H130358   2.963   3.106  14.185  3.0056  0.6450  0.2644
 2981TIP3    H230359   2.940   3.100  14.036  2.8796  1.4015  0.2541
 2982TIP3   OH230360   1.473   3.094  14.469  0.2104 -0.4003  0.5017
 2982TIP3    H130361   1.407   3.120  14.533 -0.5812 -0.4280 -0.2861
 2982TIP3    H230362   1.546   3.062  14.522 -0.5835 -0.7971  1.3869
 2983TIP3   OH230363   3.903   0.397  14.350 -0.0092  0.3595  0.1993
 2983TIP3    H130364   3.871   0.360  14.268 -0.8538 -1.0446  1.1302
 2983TIP3    H230365   3.985   0.351  14.367 -0.3933 -0.1391  0.6987
 2984TIP3   OH230366   4.396   6.516  13.833 -0.8076  0.3278 -0.4587
 2984TIP3    H130367   4.336   6.460  13.785 -1.0071 -1.0411  1.3422
 2984TIP3    H230368   4.460   6.456  13.871  0.9770  1.6476 -1.3011
 2985TIP3   OH230369   0.537   2.142  16.628 -0.3440  0.6830  0.8071
 2985TIP3    H130370   0.489   2.195  16.692  0.5265  1.4270  0.8623
 2985TIP3    H230371   0.576   2.072  16.680 -0.8333  0.4473  0.8604
 2986TIP3   OH230372   3.100   2.658  12.092  0.0800  0.2351  0.6014
 2986TIP3    H130373   3.100   2.589  12.158  0.1270  0.0270  0.3863
 2986TIP3    H230374   3.192   2.687  12.088  0.2778 -0.4531 -0.0901
 2987TIP3   OH230375   0.634   5.382   0.123 -0.4312 -0.4033 -0.1344
 2987TIP3    H130376   0.571   5.321   0.086  1.3687 -2.1932 -0.3703
 2987TIP3    H230377   0.636   5.360   0.217  0.9079 -1.3999 -0.3751
 2988TIP3   OH230378   1.071   2.666   5.219 -0.6760  0.4434 -0.4830
 2988TIP3    H130379   0.982   2.690   5.244 -0.3513  1.3922 -0.2317
 2988TIP3    H230380   1.098   2.733   5.156  0.2720  0.8233  0.3152
 2989TIP3   OH230381   2.929   4.472   0.229  0.3044 -1.0099 -0.4774
 2989TIP3    H130382   2.985   4.394   0.228  0.5838 -0.8090 -0.6364
 2989TIP3    H230383   2.840   4.438   0.243  0.7424 -1.1494  2.3160
 2990TIP3   OH230384   0.691   3.369  13.079  0.3090  0.0500  0.1998
 2990TIP3    H130385   0.597   3.365  13.096  0.0301  0.1229 -1.2552
 2990TIP3    H230386   0.728   3.412  13.157 -0.5297 -2.2881  1.9475
 2991TIP3   OH230387   5.204   1.501  16.641  0.1341  0.0841  0.4948
 2991TIP3    H130388   5.154   1.466  16.567 -0.3156  0.8232  0.4499
 2991TIP3    H230389   5.204   1.596  16.627 -0.8644  0.3211  2.0143
 2992TIP3   OH230390   0.122   6.735  11.573  0.1258 -0.0152  0.1268
 2992TIP3    H130391   0.199   6.723  11.628  1.1027  1.7835 -0.8204
 2992TIP3    H230392   0.093   6.824  11.591 -2.0094 -0.8180  0.7992
 2993TIP3   OH230393   2.778   3.344  13.479 -0.3694 -0.1826 -0.3331
 2993TIP3    H130394   2.684   3.356  13.467 -0.3929 -0.4453 -0.4089
 2993TIP3    H230395   2.788   3.316  13.570 -0.4530 -1.1366 -0.6160
 2994TIP3   OH230396   1.549   5.637  14.149  0.1138  0.0978 -0.1494
 2994TIP3    H130397   1.642   5.613  14.146 -0.2867 -1.3927 -1.4283
 2994TIP3    H230398   1.544   5.708  14.214  2.3827  1.2837 -1.2026
 2995TIP3   OH230399   1.545   3.837  15.949  0.2963 -0.0478  0.5916
 2995TIP3    H130400   1.482   3.769  15.926 -0.4244  0.7077  0.2861
 2995TIP3    H230401   1.509   3.876  16.029  0.7865 -0.1335  0.8562
 2996TIP3   OH230402   4.315   6.333  14.168  0.2320 -0.2446  0.7048
 2996TIP3    H130403   4.289   6.414  14.211  1.1170  0.3578  0.1116
 2996TIP3    H230404   4.363   6.284  14.235  0.3886  0.0797  0.8294
 2997TIP3   OH230405   1.617   4.029   1.660 -0.0842 -0.5580  0.0370
 2997TIP3    H130406   1.682   4.097   1.644 -0.5291 -0.2725 -0.5692
 2997TIP3    H230407   1.641   3.958   1.601 -0.3383 -0.4456 -0.1983
 2998TIP3   OH230408   2.754   3.337  14.931  0.2219  0.1324 -0.0226
 2998TIP3    H130409   2.775   3.273  14.863  0.3629  0.6794 -0.5037
 2998TIP3    H230410   2.660   3.326  14.946  0.7068 -1.9361  1.7299
 2999TIP3   OH230411   0.477   1.611  16.436  0.0155 -0.7371  0.2760
 2999TIP3    H130412   0.442   1.698  16.458  0.1339 -0.6109 -0.0366
 2999TIP3    H230413   0.516   1.622  16.350 -2.0982 -1.6659 -0.8564
 3000TIP3   OH230414   4.176   6.276  16.504  0.3445 -0.4153 -0.2053
 3000TIP3    H130415   4.219   6.350  16.547  0.0143 -1.0727  1.2845
 3000TIP3    H230416   4.247   6.233  16.455  0.4072  1.2326 -1.5987
 3001TIP3   OH230417   5.600   1.386   1.135 -0.1221 -0.1226  0.3292
 3001TIP3    H130418   5.528   1.448   1.137  0.6791  0.8246  0.6672
 3001TIP3    H230419   5.614   1.367   1.043 -0.8646 -0.3788  0.2713
 3002TIP3   OH230420   4.026   1.786  11.947  0.2796 -0.2545 -0.2574
 3002TIP3    H130421   3.931   1.799  11.946  0.0308 -1.1633  2.9699
 3002TIP3    H230422   4.037   1.695  11.974  2.0624 -0.1491 -0.5751
 3003TIP3   OH230423   1.542   2.504  15.902 -0.5821  0.2854 -0.0264
 3003TIP3    H130424   1.577   2.462  15.824 -0.3054  0.4748 -0.0029
 3003TIP3    H230425   1.530   2.433  15.965 -1.2053  0.0696 -0.3862
 3004TIP3   OH230426   5.420   0.009  11.459 -0.1517 -0.0739 -0.1664
 3004TIP3    H130427   5.484  -0.061  11.450  0.1811 -0.0385  1.7583
 3004TIP3    H230428   5.471   0.090  11.449 -0.2668 -0.0717 -0.7704
 3005TIP3   OH230429   5.470   1.305  12.722 -0.1539 -0.4182  0.2696
 3005TIP3    H130430   5.384   1.265  12.709 -0.7360  1.2281 -1.1301
 3005TIP3    H230431   5.501   1.269  12.805 -1.8259 -1.6712  0.3736
 3006TIP3   OH230432   0.314   0.503  12.898 -0.3129  0.1571 -0.1291
 3006TIP3    H130433   0.336   0.543  12.982  0.5964 -0.9024  0.1486
 3006TIP3    H230434   0.294   0.577  12.840  2.1334  1.0961  0.1367
 3007TIP3   OH230435   4.860   2.589   5.014 -0.2234 -0.0214  0.0848
 3007TIP3    H130436   4.885   2.676   4.984 -1.3556  0.2182 -0.1863
 3007TIP3    H230437   4.815   2.604   5.097  1.8068 -0.5755  1.3054
 3008TIP3   OH230438   6.369   2.001  16.526  0.4715  0.2507 -0.3612
 3008TIP3    H130439   6.437   2.033  16.467  1.9330 -0.9032  0.6660
 3008TIP3    H230440   6.333   2.079  16.567  2.7847  0.7317  0.8146
 3009TIP3   OH230441   6.472   1.906  16.158 -0.1235 -0.1738 -0.1426
 3009TIP3    H130442   6.424   1.826  16.136 -0.9577  0.1867  0.2989
 3009TIP3    H230443   6.544   1.876  16.213 -0.0018 -0.7036 -0.5844
 3010TIP3   OH230444   3.223   4.408   0.297 -0.0419 -0.5507  0.4239
 3010TIP3    H130445   3.267   4.457   0.366 -0.3229 -0.7435  0.7445
 3010TIP3    H230446   3.245   4.317   0.315 -0.1209 -0.6013  0.2661
 3011TIP3   OH230447   3.858   1.758  16.144 -0.6111 -0.1444  0.1741
 3011TIP3    H130448   3.921   1.722  16.206 -0.9814 -0.7032  0.2271
 3011TIP3    H230449   3.780   1.776  16.196 -1.7024 -2.6743 -0.5087
 3012TIP3   OH230450   2.507   1.947  16.111  0.1066  0.2603  0.8158
 3012TIP3    H130451   2.507   1.950  16.207  0.5055 -0.7343  0.8531
 3012TIP3    H230452   2.566   2.017  16.085  1.6459 -0.8206  1.3595
 3013TIP3   OH230453   3.319   0.479   1.543 -0.2678  0.1417 -0.2696
 3013TIP3    H130454   3.309   0.567   1.580  1.0653 -0.3522  1.3399
 3013TIP3    H230455   3.413   0.472   1.525 -0.2504 -1.2377  0.3439
 3014TIP3   OH230456   1.531   4.405  16.782  0.3909  0.7954  0.2627
 3014TIP3    H130457   1.488   4.490  16.792  0.1091  1.0582 -2.6473
 3014TIP3    H230458   1.465   4.341  16.809 -0.5031  1.3789 -0.5249
 3015TIP3   OH230459   2.588   1.143   2.474 -0.3013  0.0847  0.1882
 3015TIP3    H130460   2.621   1.205   2.410 -0.3521  0.8314  0.8875
 3015TIP3    H230461   2.646   1.067   2.467  1.1720  1.1281  0.9521
 3016TIP3   OH230462   5.671   3.297   0.103  0.1522  0.3059 -0.5699
 3016TIP3    H130463   5.710   3.294   0.190 -0.0490  0.8101 -0.4563
 3016TIP3    H230464   5.691   3.212   0.064 -0.3068 -0.1626  0.2036
 3017TIP3   OH230465   2.945   4.936   0.383 -0.2021  0.2649 -0.2276
 3017TIP3    H130466   2.900   4.945   0.299 -0.8280 -0.0208  0.0795
 3017TIP3    H230467   2.944   4.842   0.401 -0.2676  0.3480  0.2102
 3018TIP3   OH230468   2.311   3.862  14.139 -0.1571  0.3242 -0.3665
 3018TIP3    H130469   2.261   3.784  14.113  1.6557 -1.0250  0.1473
 3018TIP3    H230470   2.348   3.839  14.224  0.8365  1.5356 -0.4672
 3019TIP3   OH230471   6.609   1.516  13.605  0.2038  0.0278  0.2969
 3019TIP3    H130472   6.657   1.573  13.545  3.0612 -0.8563  1.6936
 3019TIP3    H230473   6.674   1.484  13.667 -2.1207 -1.4799  2.0817
 3020TIP3   OH230474   1.127   0.881   5.167  0.0213  0.2808  0.0745
 3020TIP3    H130475   1.182   0.953   5.199 -0.8323  1.5313 -1.2217
 3020TIP3    H230476   1.043   0.894   5.212 -0.0571 -0.0447  0.0190
 3021TIP3   OH230477   4.019   6.008  15.755 -0.1752 -0.9080  0.0114
 3021TIP3    H130478   4.038   6.012  15.849  1.3217  0.1778 -0.3182
 3021TIP3    H230479   4.092   5.959  15.718  1.5936  2.3914 -1.1229
 3022TIP3   OH230480   5.417   5.578  16.495 -0.5388  0.0808  0.3181
 3022TIP3    H130481   5.394   5.660  16.451 -0.0777  1.5394  2.7160
 3022TIP3    H230482   5.512   5.573  16.489 -0.4791  0.2446  1.0435
 3023TIP3   OH230483   4.542   0.919  12.869 -0.6954 -0.2705 -0.0808
 3023TIP3    H130484   4.462   0.889  12.825 -0.3434  0.8666 -1.5454
 3023TIP3    H230485   4.595   0.839  12.879 -1.5842 -0.8604 -0.0175
 3024TIP3   OH230486   2.683   6.082   3.091  0.1417 -0.1824 -0.6437
 3024TIP3    H130487   2.664   6.175   3.093 -1.5445 -0.5385  0.8185
 3024TIP3    H230488   2.779   6.077   3.087  0.2309  1.6029 -0.8663
 3025TIP3   OH230489   3.697   5.513   1.839 -0.5245 -0.0594 -0.4386
 3025TIP3    H130490   3.724   5.546   1.754 -0.8209 -1.1118 -0.9512
 3025TIP3    H230491   3.758   5.442   1.858 -0.4566  0.1746  0.2284
 3026TIP3   OH230492   4.241   2.099  15.073 -0.0421  0.3306 -0.0563
 3026TIP3    H130493   4.272   2.173  15.021 -1.0683  0.9220  0.1712
 3026TIP3    H230494   4.301   2.095  15.147  0.0542  0.9001 -0.1013
 3027TIP3   OH230495   2.876   3.177   1.042 -0.5488 -0.1228 -0.3234
 3027TIP3    H130496   2.898   3.095   0.997 -1.0515  0.0111 -0.8173
 3027TIP3    H230497   2.798   3.209   0.997 -1.6510 -0.4937  1.2747
 3028TIP3   OH230498   3.141   2.205  15.081 -0.2236 -0.2904 -0.3717
 3028TIP3    H130499   3.097   2.153  15.014 -0.9547 -0.5411  0.3057
 3028TIP3    H230500   3.128   2.156  15.162 -3.0512  2.1602  0.7319
 3029TIP3   OH230501   6.150   2.607   0.079  0.2908 -0.7431 -0.1087
 3029TIP3    H130502   6.065   2.563   0.086 -0.5435  0.7804 -0.3694
 3029TIP3    H230503   6.135   2.675   0.013  1.6044 -0.1775  0.1785
 3030TIP3   OH230504   2.995   0.788  15.587  0.0422 -0.6510 -0.2445
 3030TIP3    H130505   2.918   0.844  15.596  0.1732 -0.5759  0.4223
 3030TIP3    H230506   2.996   0.735  15.667  0.6379 -0.7100 -0.2870
 3031TIP3   OH230507   4.768   6.707   2.684 -0.4033 -0.1119  0.2012
 3031TIP3    H130508   4.798   6.652   2.612 -1.2802 -0.5063  0.1346
 3031TIP3    H230509   4.684   6.670   2.710 -0.7622  0.8793  0.4941
 3032TIP3   OH230510   3.643   4.972   1.415 -0.3531 -0.0141  0.1631
 3032TIP3    H130511   3.615   4.925   1.336  0.2560 -0.4805  0.2190
 3032TIP3    H230512   3.737   4.986   1.402 -0.6744  1.8661 -0.2014
 3033TIP3   OH230513   0.048   0.578  14.971 -0.0407  0.0448  0.1911
 3033TIP3    H130514   0.075   0.489  14.949 -1.8088 -0.9244  1.8002
 3033TIP3    H230515  -0.009   0.604  14.898  0.6668 -0.0435 -0.3984
 3034TIP3   OH230516   2.510   5.708   2.363 -0.6281  0.1212 -0.3072
 3034TIP3    H130517   2.439   5.771   2.378 -0.9289 -0.2498 -0.1720
 3034TIP3    H230518   2.505   5.648   2.437 -0.6546 -0.3494 -0.6865
 3035TIP3   OH230519   6.539   6.770  12.782 -0.1022 -0.4731  0.2474
 3035TIP3    H130520   6.614   6.759  12.724 -0.0653  2.3264 -0.2826
 3035TIP3    H230521   6.463   6.770  12.724 -0.3514 -1.0921  0.5618
 3036TIP3   OH230522   2.638   3.536   6.093 -0.1432 -0.1828 -0.4713
 3036TIP3    H130523   2.592   3.585   6.161 -0.2674 -2.6360  1.2970
 3036TIP3    H230524   2.730   3.538   6.121 -0.3235 -2.0209  0.3691
 3037TIP3   OH230525   0.998   3.064  14.350 -0.2974  0.4655 -0.0885
 3037TIP3    H130526   0.972   3.132  14.289  0.2086 -1.8555 -3.0264
 3037TIP3    H230527   0.931   2.996  14.342  1.1164 -0.9972 -0.0226
 3038TIP3   OH230528   2.321   1.058   3.051  0.0818 -0.0182  0.7346
 3038TIP3    H130529   2.404   1.104   3.061 -0.4048  0.8140  0.9815
 3038TIP3    H230530   2.297   1.032   3.140  1.1448 -2.1554  0.4128
 3039TIP3   OH230531   4.615   0.788   5.573 -0.6550 -0.3105  0.1731
 3039TIP3    H130532   4.606   0.883   5.573  1.4027 -0.0866 -0.0878
 3039TIP3    H230533   4.685   0.771   5.636  0.0181 -1.5365 -0.8927
 3040TIP3   OH230534   3.179   3.276   1.948 -0.3660 -0.2814  0.5058
 3040TIP3    H130535   3.197   3.183   1.958  0.8000 -0.1178  0.0467
 3040TIP3    H230536   3.218   3.317   2.025  0.3103 -0.0394  0.0448
 3041TIP3   OH230537   6.524   0.247   3.322  0.4605  0.2372  0.0726
 3041TIP3    H130538   6.581   0.173   3.300  0.2866  0.4883 -1.2630
 3041TIP3    H230539   6.545   0.314   3.258 -0.6226  0.7092  0.1874
 3042TIP3   OH230540   0.870   4.192  16.295 -0.4835  1.0476  0.2189
 3042TIP3    H130541   0.927   4.171  16.221 -0.5926 -1.1098  0.7294
 3042TIP3    H230542   0.928   4.191  16.371 -1.1742 -1.1860  0.7472
 3043TIP3   OH230543   0.413   3.191   0.560 -0.0391  0.1213 -0.1578
 3043TIP3    H130544   0.424   3.239   0.478 -0.0931 -0.9950 -0.8309
 3043TIP3    H230545   0.328   3.148   0.552 -0.9416  1.5437  1.3035
 3044TIP3   OH230546   1.653   5.594  11.287 -0.0221  0.4500 -0.1475
 3044TIP3    H130547   1.624   5.657  11.220  1.1819  1.5117  0.3249
 3044TIP3    H230548   1.618   5.628  11.369  1.7046  1.2155  0.2913
 3045TIP3   OH230549   4.358   2.179   5.481  0.5976  0.6756 -0.3429
 3045TIP3    H130550   4.381   2.216   5.566  0.4807  1.3976 -0.6237
 3045TIP3    H230551   4.262   2.171   5.484  0.5709  0.9291 -0.4971
 3046TIP3   OH230552   1.749   3.011  15.577 -0.5361 -0.7283 -0.0366
 3046TIP3    H130553   1.817   2.963  15.625 -1.2613 -0.8090  0.9207
 3046TIP3    H230554   1.688   3.040  15.645 -1.0295  0.0395 -0.8029
 3047TIP3   OH230555   3.637   3.049  11.170 -0.1523  0.2528  0.3841
 3047TIP3    H130556   3.639   3.082  11.260  1.9933  3.0600 -0.6422
 3047TIP3    H230557   3.714   2.993  11.163  0.5525  1.2756 -0.1380
 3048TIP3   OH230558   2.766   0.044  16.846  0.1271 -0.1865 -0.1938
 3048TIP3    H130559   2.696   0.045  16.781 -0.2277 -0.2695  0.1787
 3048TIP3    H230560   2.791  -0.048  16.853 -0.1308 -0.2369  0.0938
 3049TIP3   OH230561   5.679   1.074   0.586  0.1526  0.1554 -0.2779
 3049TIP3    H130562   5.768   1.074   0.619  0.3797 -0.0679 -0.8875
 3049TIP3    H230563   5.677   1.146   0.522 -0.1903  0.3635 -0.0396
 3050TIP3   OH230564   3.983   2.651  17.197 -0.2979 -0.1006  0.0611
 3050TIP3    H130565   4.001   2.743  17.177 -1.0012  0.0730  0.2239
 3050TIP3    H230566   3.996   2.606  17.114  2.7625 -0.2668  0.5887
 3051TIP3   OH230567   0.513   0.989  13.888  0.6590  0.3245  0.8496
 3051TIP3    H130568   0.511   0.921  13.954 -3.9027 -0.0490  0.4561
 3051TIP3    H230569   0.515   1.071  13.938 -2.4382  0.0395  1.5162
 3052TIP3   OH230570   3.120   6.288   4.520 -0.2614 -0.2909  0.1447
 3052TIP3    H130571   3.053   6.219   4.512  0.1323 -0.5863 -0.6946
 3052TIP3    H230572   3.202   6.244   4.497 -0.2410  0.8552 -2.1340
 3053TIP3   OH230573   4.115   2.614   2.222 -0.4231  0.9347 -0.2810
 3053TIP3    H130574   4.033   2.582   2.258  0.5844 -0.7752  0.5629
 3053TIP3    H230575   4.090   2.660   2.142 -1.9413 -1.9061 -1.4940
 3054TIP3   OH230576   1.071   3.498  13.504  0.1314 -0.2525 -0.1587
 3054TIP3    H130577   1.063   3.508  13.599 -1.2272 -0.4506 -0.2537
 3054TIP3    H230578   1.023   3.573  13.467  2.0679  0.7715 -0.6816
 3055TIP3   OH230579   0.879   6.632  12.188 -0.1687  0.2950 -0.3764
 3055TIP3    H130580   0.882   6.728  12.184 -2.1601  0.3225 -3.5360
 3055TIP3    H230581   0.968   6.606  12.209  0.7417  2.8040 -0.9182
 3056TIP3   OH230582   2.426   4.818   4.462  0.7069 -0.4769 -0.4528
 3056TIP3    H130583   2.416   4.828   4.556 -0.9476 -2.1723 -0.4201
 3056TIP3    H230584   2.346   4.857   4.425  1.5075  0.5020 -1.1824
 3057TIP3   OH230585   2.438   1.287  14.208 -0.2991  0.3840 -0.3691
 3057TIP3    H130586   2.363   1.292  14.149 -1.0846  1.2130  0.6774
 3057TIP3    H230587   2.402   1.304  14.295  1.1085  0.8120  0.1547
 3058TIP3   OH230588   1.641   5.878  15.096  0.8226 -0.1769 -0.2093
 3058TIP3    H130589   1.592   5.905  15.018  2.2156 -0.3548 -1.1751
 3058TIP3    H230590   1.576   5.837  15.152 -0.4940  1.2889 -0.6210
 3059TIP3   OH230591   4.368   4.608   6.384 -0.3626  0.3823 -0.7926
 3059TIP3    H130592   4.309   4.667   6.431 -1.5923 -0.5884 -1.1217
 3059TIP3    H230593   4.454   4.627   6.421 -0.8241  2.0100 -0.5179
 3060TIP3   OH230594   5.731   0.983   4.749 -0.2164  0.5602 -0.0936
 3060TIP3    H130595   5.724   0.887   4.746  0.6210  0.5037 -0.5540
 3060TIP3    H230596   5.644   1.014   4.725 -0.5871 -0.0863  0.3863
 3061TIP3   OH230597   3.516   6.571  12.982 -0.3170 -0.4614 -0.2997
 3061TIP3    H130598   3.578   6.637  13.014  0.2272 -0.4426 -1.3728
 3061TIP3    H230599   3.564   6.523  12.915 -0.5615 -2.2955  0.8322
 3062TIP3   OH230600   3.395   2.749   2.140  0.0016 -0.1379 -0.3327
 3062TIP3    H130601   3.428   2.774   2.226 -0.5789  1.3548 -0.5274
 3062TIP3    H230602   3.343   2.670   2.156 -0.6959  0.5399  0.8065
 3063TIP3   OH230603   3.077   2.801  16.739 -0.0327  0.0823  0.2553
 3063TIP3    H130604   3.115   2.886  16.762 -0.9516  0.7485 -0.6477
 3063TIP3    H230605   3.034   2.816  16.655 -0.2294 -1.2734  0.1085
 3064TIP3   OH230606   2.497   6.368   0.507  0.1555 -0.0853  0.0119
 3064TIP3    H130607   2.463   6.432   0.445  0.9868  1.2865  0.9478
 3064TIP3    H230608   2.524   6.294   0.453 -1.1996  0.1762 -1.0358
 3065TIP3   OH230609   3.898   1.641  14.161 -0.1495 -0.0405 -0.4253
 3065TIP3    H130610   3.875   1.583  14.233 -2.6960  0.4916 -0.7515
 3065TIP3    H230611   3.885   1.588  14.082  0.9499 -0.0857 -0.5898
 3066TIP3   OH230612   1.758   0.292   5.367 -0.5401 -1.0546  0.2471
 3066TIP3    H130613   1.836   0.328   5.410  0.7532 -2.5363 -0.8008
 3066TIP3    H230614   1.695   0.279   5.438 -0.4145  1.6032  0.8885
 3067TIP3   OH230615   5.511   6.042  13.193 -0.2989  0.0707  0.5687
 3067TIP3    H130616   5.536   6.110  13.130  0.2151 -1.3246 -0.7870
 3067TIP3    H230617   5.546   5.961  13.155 -0.7947 -0.9333  2.2043
 3068TIP3   OH230618   4.893   5.206   4.926 -0.3005  0.2589 -0.1882
 3068TIP3    H130619   4.830   5.136   4.909 -0.5289  0.4128  0.0230
 3068TIP3    H230620   4.945   5.172   4.999 -0.2090  0.1771 -0.2917
 3069TIP3   OH230621   2.877   0.536   1.885  0.6278 -0.7640 -0.1739
 3069TIP3    H130622   2.875   0.560   1.977  0.2853 -2.2945  0.2311
 3069TIP3    H230623   2.787   0.510   1.865  1.2336 -2.9007 -0.2467
 3070TIP3   OH230624   2.704   5.200  15.086 -0.1107  0.0520 -0.2672
 3070TIP3    H130625   2.646   5.275  15.104  0.5559  0.7650 -1.0415
 3070TIP3    H230626   2.758   5.229  15.013  2.0001 -0.1787  1.1410
 3071TIP3   OH230627   3.509   5.823  15.253  0.8324 -0.5107 -0.1043
 3071TIP3    H130628   3.432   5.810  15.198  1.9416  2.1775 -2.4140
 3071TIP3    H230629   3.576   5.855  15.193  3.7895 -2.7982  1.8515
 3072TIP3   OH230630   3.087   4.576   5.585 -0.4843 -0.4632 -0.0959
 3072TIP3    H130631   3.103   4.508   5.519  0.1152 -2.6310  2.1893
 3072TIP3    H230632   3.175   4.608   5.607 -0.6528 -0.0288 -0.0664
 3073TIP3   OH230633   2.806   6.348  14.923  0.2571 -0.2923  0.0222
 3073TIP3    H130634   2.853   6.292  14.986  0.5532  0.6862  0.6712
 3073TIP3    H230635   2.742   6.289  14.883  0.0315 -0.9169  1.2697
 3074TIP3   OH230636   0.640   3.417   2.469  0.1548 -0.9312 -0.2383
 3074TIP3    H130637   0.623   3.482   2.538  3.3017 -0.3904  0.0844
 3074TIP3    H230638   0.620   3.464   2.388 -1.2732 -0.8122  0.1638
 3075TIP3   OH230639   1.882   4.184   6.623  0.1120 -0.0129  0.3860
 3075TIP3    H130640   1.822   4.207   6.551  0.6444 -1.0008 -0.3758
 3075TIP3    H230641   1.840   4.110   6.666  1.0808 -1.0979 -0.5216
 3076TIP3   OH230642   3.790   2.713   3.784  0.2034  0.4340 -0.4623
 3076TIP3    H130643   3.844   2.728   3.707 -0.4740  0.3439 -0.9668
 3076TIP3    H230644   3.739   2.634   3.762  0.7398 -0.1834  0.4846
 3077TIP3   OH230645   1.963   3.830  12.447  0.1467  0.3089 -0.0831
 3077TIP3    H130646   1.935   3.872  12.528 -0.6891  0.9632 -0.6933
 3077TIP3    H230647   2.041   3.879  12.421 -0.4833  1.1175 -0.4786
 3078TIP3   OH230648   4.679   5.678  14.845  0.1219  0.0936  0.4247
 3078TIP3    H130649   4.681   5.606  14.908  3.0292 -0.1449  0.1244
 3078TIP3    H230650   4.658   5.636  14.761 -0.6750 -0.0353  0.6887
 3079TIP3   OH230651   4.075   2.013   2.610  0.2190 -0.3484  0.7278
 3079TIP3    H130652   4.165   2.035   2.635 -0.1733  2.1582  0.0865
 3079TIP3    H230653   4.080   1.996   2.516 -0.1363  0.7449  0.5087
 3080TIP3   OH230654   6.729   1.611   3.602 -0.6653  0.3424  0.2680
 3080TIP3    H130655   6.720   1.551   3.676  0.2507  0.1118  0.1965
 3080TIP3    H230656   6.810   1.659   3.620  0.3160 -0.7002 -1.2908
 3081TIP3   OH230657   5.452   1.707   1.548 -0.1241  0.2329 -0.2077
 3081TIP3    H130658   5.525   1.687   1.607 -1.1620  1.1591  1.3962
 3081TIP3    H230659   5.398   1.628   1.548 -0.5627  0.5276  0.7430
 3082TIP3   OH230660   6.207   6.592   3.785 -0.0277 -0.0335 -0.3147
 3082TIP3    H130661   6.187   6.569   3.694  1.5675 -1.4358 -0.3364
 3082TIP3    H230662   6.248   6.514   3.821 -0.3591  0.6219  1.5366
 3083TIP3   OH230663   5.480   4.505  16.658 -0.7259 -0.2028 -0.6635
 3083TIP3    H130664   5.456   4.452  16.734 -0.3194 -1.1384 -1.1797
 3083TIP3    H230665   5.495   4.593  16.694 -1.5430 -0.3995  0.1733
 3084TIP3   OH230666   5.485   5.032   4.397 -1.0188 -0.3190  0.2995
 3084TIP3    H130667   5.535   4.970   4.449  0.3103  0.8119  0.4108
 3084TIP3    H230668   5.488   4.996   4.308  0.0192 -0.2639  0.3007
 3085TIP3   OH230669   0.096   4.861   2.279  1.0465 -0.4677  0.1745
 3085TIP3    H130670   0.155   4.848   2.353  3.3086 -2.1264 -1.8249
 3085TIP3    H230671   0.134   4.934   2.231  0.5855 -0.5256 -0.2865
 3086TIP3   OH230672   0.283   3.532  16.855 -0.7436  0.1179  0.6578
 3086TIP3    H130673   0.247   3.601  16.799 -1.1085  0.7205  1.6427
 3086TIP3    H230674   0.221   3.524  16.927  0.6330  0.5373  1.9013
 3087TIP3   OH230675   0.599   3.356   0.849 -0.0998  0.2570 -0.1353
 3087TIP3    H130676   0.687   3.385   0.872 -0.6839  0.9922  1.1849
 3087TIP3    H230677   0.611   3.304   0.769  1.6011 -0.1423  0.3615
 3088TIP3   OH230678   3.446   3.215  16.305 -0.2155  0.1023  0.0351
 3088TIP3    H130679   3.482   3.164  16.232 -0.7919 -0.1998 -0.0379
 3088TIP3    H230680   3.501   3.293  16.309  0.2444 -0.2012 -0.2871
 3089TIP3   OH230681   6.418   4.884   3.111 -0.1801 -0.0682 -0.2465
 3089TIP3    H130682   6.485   4.944   3.146 -0.5961  0.3759 -0.1941
 3089TIP3    H230683   6.375   4.934   3.042 -0.0014 -0.6025 -0.7434
 3090TIP3   OH230684   4.265   0.677   2.959  0.5167  0.3076 -0.0358
 3090TIP3    H130685   4.194   0.625   2.996  0.4805 -1.8803 -3.0497
 3090TIP3    H230686   4.339   0.617   2.954  2.1339  2.1096  1.5475
 3091TIP3   OH230687   6.439   6.077   2.564 -0.1683  0.0957  0.1017
 3091TIP3    H130688   6.502   6.147   2.543 -0.5066  0.4952  0.3976
 3091TIP3    H230689   6.358   6.103   2.520  0.3172 -1.2413 -1.6089
 3092TIP3   OH230690   6.046   3.829   4.980  0.3824 -0.2107  0.2932
 3092TIP3    H130691   5.961   3.868   5.001  0.3217 -0.8227  1.2061
 3092TIP3    H230692   6.038   3.805   4.888  0.5942  2.3487 -0.4281
 3093TIP3   OH230693   2.324   1.293   5.954 -0.1676  0.5036 -0.5079
 3093TIP3    H130694   2.278   1.326   6.032  0.7709  0.9642 -0.1303
 3093TIP3    H230695   2.379   1.367   5.927  0.7541 -0.2223 -0.6237
 3094TIP3   OH230696   3.517   3.105   2.837  0.3826 -0.7566  0.0033
 3094TIP3    H130697   3.567   3.025   2.823  0.0725 -0.9554  0.0345
 3094TIP3    H230698   3.583   3.175   2.838  0.5754 -0.9127 -0.8939
 3095TIP3   OH230699   6.735   3.123   1.668  0.2076 -0.7250  0.0670
 3095TIP3    H130700   6.748   3.044   1.615  0.2349 -0.4855 -0.2851
 3095TIP3    H230701   6.783   3.106   1.749  3.2027  0.3523 -1.3912
 3096TIP3   OH230702   5.767   1.430  13.331  0.8472 -0.0235 -0.2765
 3096TIP3    H130703   5.673   1.440  13.318  0.2680 -0.8645  2.9028
 3096TIP3    H230704   5.786   1.482  13.409  3.0694  0.1754 -0.9097
 3097TIP3   OH230705   4.657   2.267  11.178 -0.4000  0.3927  0.1720
 3097TIP3    H130706   4.607   2.310  11.110  0.4066 -1.0077 -1.3410
 3097TIP3    H230707   4.594   2.252  11.249 -2.1504 -1.3597 -1.6974
 3098TIP3   OH230708   3.164   4.825  11.580  0.7838  0.2005 -0.5690
 3098TIP3    H130709   3.113   4.773  11.643  0.6108 -0.9158 -1.6256
 3098TIP3    H230710   3.255   4.800  11.596  0.9339  1.4623  0.6423
 3099TIP3   OH230711   4.785   3.134   0.538 -0.4691  0.1452 -0.2095
 3099TIP3    H130712   4.831   3.051   0.549 -2.5724 -1.1316 -0.6197
 3099TIP3    H230713   4.692   3.110   0.540 -1.1298  2.6083  0.5195
 3100TIP3   OH230714   1.501   1.631  10.814 -0.3920 -0.1874 -0.1518
 3100TIP3    H130715   1.439   1.607  10.883 -0.5018  0.4194 -0.0390
 3100TIP3    H230716   1.477   1.576  10.740 -0.8055 -0.2421  0.0220
 3101TIP3   OH230717   0.501   2.039   5.509 -0.2224  0.1335  0.1128
 3101TIP3    H130718   0.459   2.078   5.433  1.6287  0.9107 -0.5596
 3101TIP3    H230719   0.504   2.110   5.574 -1.2959 -0.3635  0.7196
 3102TIP3   OH230720   0.378   6.645   5.118  0.1266 -0.0030 -0.2429
 3102TIP3    H130721   0.374   6.551   5.137 -0.2508 -0.0206 -0.4027
 3102TIP3    H230722   0.430   6.651   5.037 -0.0421 -0.0905 -0.3579
 3103TIP3   OH230723   2.922   5.042  15.590 -0.6083  0.2990 -0.0359
 3103TIP3    H130724   2.911   4.951  15.561 -3.0595  0.2372  0.9746
 3103TIP3    H230725   2.855   5.091  15.543 -0.2850  1.3306  0.5490
 3104TIP3   OH230726   0.511   0.928   4.412  0.3135 -0.6935  0.0730
 3104TIP3    H130727   0.468   0.975   4.484 -0.5624  0.4896 -1.1942
 3104TIP3    H230728   0.499   0.836   4.434  1.1260 -0.3594  2.0570
 3105TIP3   OH230729   1.132   1.216   0.143  0.3207  0.0537  0.9739
 3105TIP3    H130730   1.205   1.275   0.124 -0.8012  1.4101  0.7943
 3105TIP3    H230731   1.123   1.220   0.238 -0.4039  0.9745  0.8720
 3106TIP3   OH230732   5.512   4.069  15.343  0.0051  0.6080 -0.4733
 3106TIP3    H130733   5.495   4.007  15.414 -1.2484  0.3213 -1.0010
 3106TIP3    H230734   5.574   4.025  15.285  1.4739  1.0673  0.7243
 3107TIP3   OH230735   0.367   0.953   0.799  0.1196  0.0040  0.4628
 3107TIP3    H130736   0.367   0.863   0.833  0.6194 -0.2956 -0.3257
 3107TIP3    H230737   0.449   0.991   0.832  1.4204 -0.8056 -1.7374
 3108TIP3   OH230738   4.242   2.948   5.170 -0.1230 -0.0440 -0.1687
 3108TIP3    H130739   4.281   2.960   5.257  0.4321 -1.2516 -0.2415
 3108TIP3    H230740   4.161   2.901   5.186 -0.1658 -0.0076 -0.2776
 3109TIP3   OH230741   4.292   4.505   1.929 -0.7591 -0.1143 -0.5706
 3109TIP3    H130742   4.308   4.464   2.015 -1.2222  1.6859  0.3970
 3109TIP3    H230743   4.356   4.463   1.871 -1.0408 -2.0031  0.4399
 3110TIP3   OH230744   4.624   4.949  10.650  0.3362 -0.2304 -0.1247
 3110TIP3    H130745   4.603   4.894  10.574 -1.0975 -1.4185  1.0941
 3110TIP3    H230746   4.540   4.988  10.675  1.1570  1.7122 -0.3176
 3111TIP3   OH230747   1.769   3.418   0.375  0.4989 -0.1581 -0.2097
 3111TIP3    H130748   1.793   3.510   0.383 -0.9292  0.1713  0.3939
 3111TIP3    H230749   1.789   3.396   0.283  1.3686  0.5827 -0.2056
 3112TIP3   OH230750   2.304   4.502   1.317 -0.6889  0.3843  0.2886
 3112TIP3    H130751   2.238   4.443   1.279 -0.1153  0.8488 -1.4588
 3112TIP3    H230752   2.255   4.581   1.340 -0.8932  0.4386 -0.3117
 3113TIP3   OH230753   1.305   3.994  15.726  0.4539  0.0515  0.2150
 3113TIP3    H130754   1.257   3.961  15.650 -1.3878 -0.0415  1.3989
 3113TIP3    H230755   1.237   4.012  15.791  1.8753  1.5343  1.3191
 3114TIP3   OH230756   3.546   3.478  16.335 -0.2169  0.6216  0.0295
 3114TIP3    H130757   3.597   3.550  16.372  0.2027 -0.1292  0.9377
 3114TIP3    H230758   3.462   3.483  16.380 -0.0301  0.2766  0.4232
 3115TIP3   OH230759   1.765   4.444   3.687  0.0915 -0.1344 -0.2457
 3115TIP3    H130760   1.707   4.468   3.760 -0.4315 -0.1578 -0.6478
 3115TIP3    H230761   1.811   4.524   3.665  0.8693 -0.3215  0.6587
 3116TIP3   OH230762   1.640   0.273  15.473 -0.0322 -0.6895  0.4052
 3116TIP3    H130763   1.616   0.251  15.563 -1.1830  0.7795  0.4807
 3116TIP3    H230764   1.565   0.322  15.440  1.2553  0.5936 -0.6704
 3117TIP3   OH230765   2.313   0.941  12.476  0.1343  0.3991  0.0353
 3117TIP3    H130766   2.227   0.964  12.512  1.0023  1.9379  1.2173
 3117TIP3    H230767   2.354   0.890  12.546  0.9678  1.4661  0.3379
 3118TIP3   OH230768   3.731   1.206   3.914  0.0047  0.3409 -0.6284
 3118TIP3    H130769   3.706   1.264   3.842  0.7112 -0.0781 -1.2152
 3118TIP3    H230770   3.724   1.261   3.993 -0.3958  0.9095 -1.0604
 3119TIP3   OH230771   0.899   5.366  14.151  0.1943 -0.1041 -0.6198
 3119TIP3    H130772   0.912   5.362  14.245  0.4225  1.3505 -0.5814
 3119TIP3    H230773   0.883   5.459  14.132 -2.6531 -0.7287 -1.6442
 3120TIP3   OH230774   3.409   0.014  12.186  0.4705  0.0573 -0.0912
 3120TIP3    H130775   3.462  -0.065  12.193  0.4959 -0.0300 -1.1857
 3120TIP3    H230776   3.423   0.060  12.269 -0.3715 -1.5955  1.0012
 3121TIP3   OH230777   4.986   4.310   1.671 -0.1400 -0.6674 -0.3791
 3121TIP3    H130778   4.934   4.265   1.737 -1.7747  0.0624 -1.1398
 3121TIP3    H230779   4.930   4.381   1.641  1.4362  0.3433 -0.9872
 3122TIP3   OH230780   1.194   6.731   3.085 -0.4171  0.0750  0.3068
 3122TIP3    H130781   1.134   6.729   3.160 -0.0915  0.1643  0.5709
 3122TIP3    H230782   1.280   6.718   3.123 -0.3337 -0.7179 -0.1474
 3123TIP3   OH230783   2.069   0.757   4.734 -0.3897 -0.5171  0.6190
 3123TIP3    H130784   2.102   0.790   4.651 -0.2889 -1.4030  0.3056
 3123TIP3    H230785   2.082   0.662   4.729 -1.6530 -0.7153  1.0904
 3124TIP3   OH230786   2.112   6.243   2.980  0.1816  0.3861 -0.4748
 3124TIP3    H130787   2.197   6.278   2.955 -0.6663  3.5047  0.8550
 3124TIP3    H230788   2.131   6.184   3.053  0.9669  3.2962  1.7630
 3125TIP3   OH230789   1.231   2.027   4.873  0.3522 -0.1130 -0.0377
 3125TIP3    H130790   1.264   1.991   4.955 -0.9612 -0.3025  0.4207
 3125TIP3    H230791   1.282   1.982   4.805  0.4667 -0.9978  0.6202
 3126TIP3   OH230792   4.031   2.220   0.836 -0.0813  0.0621 -0.0253
 3126TIP3    H130793   4.110   2.240   0.786  0.0968  0.4103  0.3880
 3126TIP3    H230794   4.062   2.166   0.909 -0.4632 -1.1930 -0.7742
 3127TIP3   OH230795   3.363   1.208  13.857  0.5304 -0.8560  0.0914
 3127TIP3    H130796   3.295   1.167  13.910  0.4465  0.4498  1.0327
 3127TIP3    H230797   3.316   1.258  13.791  0.6412 -2.7266 -1.4064
 3128TIP3   OH230798   2.561   2.245   4.242  0.3815  0.3355 -0.6445
 3128TIP3    H130799   2.534   2.260   4.333 -3.5757  0.1303 -1.6722
 3128TIP3    H230800   2.542   2.328   4.198  2.1820  0.4027 -1.3369
 3129TIP3   OH230801   0.117   0.439  11.397  0.2076 -0.8863  0.6245
 3129TIP3    H130802   0.027   0.459  11.422 -0.1066  1.7923 -2.2896
 3129TIP3    H230803   0.169   0.506  11.439  0.4075 -0.3179 -0.5063
 3130TIP3   OH230804   2.443   6.775   0.067 -0.3843  0.5421  0.2826
 3130TIP3    H130805   2.355   6.779   0.030 -0.9704  1.2477  1.7140
 3130TIP3    H230806   2.474   6.866   0.064  0.5443  0.2095 -0.7570
 3131TIP3   OH230807   3.053   6.409  16.344  0.1417  0.4265 -0.2973
 3131TIP3    H130808   3.048   6.392  16.438 -0.2230 -1.1263 -0.5920
 3131TIP3    H230809   3.034   6.503  16.336 -0.4210  0.4405  1.1207
 3132TIP3   OH230810   1.444   1.631  15.844  0.2196  0.4075  0.3478
 3132TIP3    H130811   1.478   1.554  15.799 -0.6073  0.4093 -0.2953
 3132TIP3    H230812   1.377   1.666  15.785 -0.6065  0.6387  1.4036
 3133TIP3   OH230813   0.403   0.279   4.088  0.3650 -0.0792 -0.1920
 3133TIP3    H130814   0.496   0.276   4.066  0.5489  1.8102  0.1932
 3133TIP3    H230815   0.395   0.223   4.165  1.4305  0.7112  0.5132
 3134TIP3   OH230816   3.705   1.816  13.152  0.5058 -0.3481 -0.4290
 3134TIP3    H130817   3.700   1.876  13.077 -2.7759  0.3867  0.2686
 3134TIP3    H230818   3.793   1.828  13.186 -0.0160  4.1654 -0.3414
 3135TIP3   OH230819   0.368   3.598  14.498 -0.0710 -0.2893 -0.1596
 3135TIP3    H130820   0.386   3.558  14.583  0.6957  1.1508  0.3594
 3135TIP3    H230821   0.276   3.624  14.503 -0.6887 -2.2639 -0.6342
 3136TIP3   OH230822   0.210   1.742   1.578  0.0701 -0.1842 -0.0342
 3136TIP3    H130823   0.262   1.667   1.605 -0.3659  0.0196  1.3861
 3136TIP3    H230824   0.131   1.737   1.631 -0.4032  0.7327 -0.6312
 3137TIP3   OH230825   5.537   4.007   4.061 -0.2094 -0.3067 -0.1129
 3137TIP3    H130826   5.501   4.014   4.150  2.7475  0.9299  1.0431
 3137TIP3    H230827   5.560   3.915   4.051  0.5515 -0.2303  0.8663
 3138TIP3   OH230828   4.441   1.883   5.403  0.7642  0.9949  0.0365
 3138TIP3    H130829   4.437   1.978   5.387  0.5476  1.0422  0.3600
 3138TIP3    H230830   4.357   1.850   5.372  0.1907  1.1421  1.4182
 3139TIP3   OH230831   5.645   4.222  14.854 -0.4447 -0.0787  0.4406
 3139TIP3    H130832   5.718   4.273  14.888 -0.7136  0.9244 -0.4585
 3139TIP3    H230833   5.662   4.133  14.884  0.3297  0.4244  1.5438
 3140TIP3   OH230834   0.612   0.754  15.190 -0.8366  0.5688  0.3913
 3140TIP3    H130835   0.610   0.846  15.217  0.1296  0.8947 -0.5912
 3140TIP3    H230836   0.654   0.756  15.104  0.7003 -0.9575  1.0784
 3141TIP3   OH230837   5.487   1.113   0.263  0.0402 -0.1924 -0.1439
 3141TIP3    H130838   5.487   1.019   0.247 -0.0091 -0.3324  0.6348
 3141TIP3    H230839   5.578   1.134   0.284 -0.2001 -0.3345  1.1164
 3142TIP3   OH230840   1.851   0.935   5.637 -0.4630 -0.3812 -0.7969
 3142TIP3    H130841   1.822   0.879   5.709 -0.3010  0.7101  0.1237
 3142TIP3    H230842   1.774   0.943   5.581 -0.9919 -0.1056 -0.0312
 3143TIP3   OH230843   2.202   4.953   0.347  0.2887 -0.5770 -0.4248
 3143TIP3    H130844   2.171   4.877   0.397  1.3031  0.0596  1.1912
 3143TIP3    H230845   2.146   5.025   0.376  1.1198 -0.1297  0.0572
 3144TIP3   OH230846   4.355   1.478  15.585  0.1821  0.3440 -0.2307
 3144TIP3    H130847   4.393   1.502  15.500 -0.2795  0.4690 -0.4003
 3144TIP3    H230848   4.268   1.444  15.564  0.7652 -1.3643  0.0179
 3145TIP3   OH230849   3.536   2.379   1.391  0.7340 -0.2989 -0.1357
 3145TIP3    H130850   3.523   2.470   1.364  3.6178  0.0751 -0.3898
 3145TIP3    H230851   3.496   2.327   1.322 -1.0427  0.7690  0.0675
 3146TIP3   OH230852   3.246   2.901   4.105  0.8278  0.2393  0.2303
 3146TIP3    H130853   3.258   2.867   4.194 -0.2915  1.0015  0.6703
 3146TIP3    H230854   3.242   2.996   4.116 -0.5153  0.2653 -0.4993
 3147TIP3   OH230855   0.202   2.783   2.217  0.3108  0.7827 -0.2750
 3147TIP3    H130856   0.271   2.832   2.172  0.9100 -0.3471 -0.6021
 3147TIP3    H230857   0.229   2.692   2.211 -1.7030  0.2041 -1.2955
 3148TIP3   OH230858   1.588   1.748   2.294  0.4631 -1.1842 -0.0724
 3148TIP3    H130859   1.533   1.792   2.229  1.0015 -0.5153 -0.0721
 3148TIP3    H230860   1.632   1.679   2.243  2.1179  0.3621 -0.7853
 3149TIP3   OH230861   5.006   2.320   0.065 -0.1100  0.1746 -0.4473
 3149TIP3    H130862   5.060   2.382   0.114 -0.9035  1.0409 -0.6571
 3149TIP3    H230863   5.014   2.348  -0.026 -0.0147 -0.3854 -0.6122
 3150TIP3   OH230864   0.099   1.776  12.657 -0.0526  0.5685  0.5018
 3150TIP3    H130865   0.114   1.867  12.679 -0.2601  0.9884 -1.0559
 3150TIP3    H230866   0.149   1.761  12.577 -1.9900  0.0094 -0.6595
 3151TIP3   OH230867   6.176   0.487  16.800  0.3340 -0.3264 -0.0879
 3151TIP3    H130868   6.259   0.465  16.842  2.1176  0.9389 -2.8088
 3151TIP3    H230869   6.194   0.570  16.755 -2.9353  0.8909  0.7481
 3152TIP3   OH230870   0.900   3.873  14.727  0.0362  0.6829  0.5972
 3152TIP3    H130871   0.870   3.962  14.747 -1.2061  0.8906 -1.9792
 3152TIP3    H230872   0.992   3.873  14.754  0.1174  2.8246  0.4336
 3153TIP3   OH230873   6.532   2.712   1.695 -0.1957 -0.7831  0.2953
 3153TIP3    H130874   6.624   2.690   1.677  0.2574  1.6925 -0.5686
 3153TIP3    H230875   6.484   2.671   1.623  0.4317 -0.5159 -0.2816
 3154TIP3   OH230876   4.832   1.370  14.038  0.0054  0.1083 -0.2122
 3154TIP3    H130877   4.902   1.365  14.104 -0.2101  1.2775  0.1103
 3154TIP3    H230878   4.788   1.453  14.055 -1.1342 -0.3679 -0.7615
 3155TIP3   OH230879   5.672   0.692   2.808 -0.2315 -0.1817  0.5899
 3155TIP3    H130880   5.659   0.599   2.790 -1.3123  0.2081 -0.7457
 3155TIP3    H230881   5.641   0.703   2.898 -1.4371 -0.8456  0.2665
 3156TIP3   OH230882   6.763   4.265   5.783  0.6871 -0.0398 -0.4108
 3156TIP3    H130883   6.810   4.183   5.767  1.0310  0.3402 -1.3748
 3156TIP3    H230884   6.774   4.315   5.702 -0.4768  0.4968 -0.2406
 3157TIP3   OH230885   6.260   0.962   3.700  0.1668  0.5211 -0.4783
 3157TIP3    H130886   6.261   0.939   3.607 -2.4278  0.9373 -0.6542
 3157TIP3    H230887   6.169   0.989   3.716  0.4720 -0.0399  2.2955
 3158TIP3   OH230888   3.942   0.341   6.895  0.0955 -0.4956  0.0770
 3158TIP3    H130889   4.027   0.366   6.860 -0.1834  0.4557  0.0732
 3158TIP3    H230890   3.882   0.346   6.821 -0.4428  1.2707  0.5980
 3159TIP3   OH230891   3.656   2.012  11.834  0.6107  0.2101  0.7866
 3159TIP3    H130892   3.652   2.106  11.851 -0.2102  0.0470  1.5714
 3159TIP3    H230893   3.571   1.991  11.797  0.7290 -0.2612  0.7843
 3160TIP3   OH230894   1.624   3.325   6.277 -0.0942 -1.1080 -0.6790
 3160TIP3    H130895   1.584   3.398   6.229 -1.3203 -0.0197  1.8820
 3160TIP3    H230896   1.718   3.345   6.276 -0.1068 -1.0740 -2.5279
 3161TIP3   OH230897   4.024   0.251  15.814 -0.7870  0.3676  0.2362
 3161TIP3    H130898   3.935   0.269  15.846 -1.3179  0.1958 -1.0779
 3161TIP3    H230899   4.023   0.158  15.792 -1.0212  0.8479 -1.9524
 3162TIP3   OH230900   1.835   2.436   1.104  0.3513  0.3849 -0.1945
 3162TIP3    H130901   1.864   2.509   1.160  0.1354 -0.3661  0.9157
 3162TIP3    H230902   1.740   2.433   1.117  0.4812 -0.7532  0.5931
 3163TIP3   OH230903   1.144   3.600   4.347 -0.4843 -0.1919  0.2121
 3163TIP3    H130904   1.098   3.682   4.325  1.7346  1.6928  2.3356
 3163TIP3    H230905   1.188   3.575   4.266 -1.5310  0.4585 -0.5820
 3164TIP3   OH230906   0.696   4.496   2.040  0.1114  0.6283  0.2019
 3164TIP3    H130907   0.656   4.582   2.049  2.1814  1.6785 -0.2630
 3164TIP3    H230908   0.725   4.492   1.949 -0.8480 -0.9640 -0.0517
 3165TIP3   OH230909   4.247   3.960   2.779  0.1357  0.5930  0.0011
 3165TIP3    H130910   4.320   4.020   2.789  0.7631 -0.3358  1.0815
 3165TIP3    H230911   4.274   3.881   2.826 -0.7891 -0.4315 -1.1370
 3166TIP3   OH230912   1.448   0.826  11.951  0.0768  0.7268 -0.5846
 3166TIP3    H130913   1.533   0.855  11.917 -0.6306  1.3472 -1.8581
 3166TIP3    H230914   1.420   0.898  12.008  0.5364  0.3950  0.0609
 3167TIP3   OH230915   5.573   3.531   1.781  0.9682  0.0705  0.1376
 3167TIP3    H130916   5.567   3.492   1.869 -1.0557  1.7724  0.7783
 3167TIP3    H230917   5.555   3.623   1.795  1.1016  0.4334 -2.0461
 3168TIP3   OH230918   2.415   2.149   3.325  0.0072 -0.4319 -0.2848
 3168TIP3    H130919   2.448   2.186   3.407 -0.5814  2.2821 -1.2178
 3168TIP3    H230920   2.327   2.119   3.347 -0.3035  0.6550 -0.0081
 3169TIP3   OH230921   3.872   6.327   3.999 -0.5511 -0.2277  0.1374
 3169TIP3    H130922   3.888   6.409   4.045 -0.7975 -0.4445  0.6188
 3169TIP3    H230923   3.787   6.298   4.032 -0.2732 -0.8829  0.2851
 3170TIP3   OH230924   4.879   1.190   2.095  0.0593 -0.2240 -0.4332
 3170TIP3    H130925   4.830   1.164   2.173 -0.4871 -0.4770 -0.8555
 3170TIP3    H230926   4.824   1.256   2.053 -0.7236 -1.6854 -1.7868
 3171TIP3   OH230927   3.725   1.578   5.024 -0.0191  0.3851  0.5333
 3171TIP3    H130928   3.653   1.581   5.087  0.0993  0.5221  0.6623
 3171TIP3    H230929   3.694   1.630   4.949  1.0376  2.8329  1.7335
 3172TIP3   OH230930   1.786   5.445  10.802  0.4903 -0.0933 -0.0795
 3172TIP3    H130931   1.878   5.436  10.827  1.1044 -1.5647 -2.6905
 3172TIP3    H230932   1.786   5.512  10.734 -0.2683 -0.5864 -0.5764
 3173TIP3   OH230933   6.620   3.647   4.712 -0.4722 -0.1758  0.5990
 3173TIP3    H130934   6.639   3.592   4.636  0.9027  3.2368 -1.6302
 3173TIP3    H230935   6.526   3.665   4.705 -0.7470 -1.4317  0.8425
 3174TIP3   OH230936   2.766   3.176   4.046  0.0049 -0.1978  0.8521
 3174TIP3    H130937   2.855   3.152   4.022  0.0564 -1.1964  2.0355
 3174TIP3    H230938   2.771   3.198   4.139 -0.9319  0.0269  0.8533
 3175TIP3   OH230939   2.940   1.911   2.753  0.0789 -0.0098 -0.2687
 3175TIP3    H130940   2.940   1.928   2.847 -1.0326 -1.0928 -0.0660
 3175TIP3    H230941   3.033   1.907   2.730  0.3928 -2.3315  1.2805
 3176TIP3   OH230942   0.937   0.052   3.414  0.9168  0.0865  0.8488
 3176TIP3    H130943   0.961  -0.038   3.391  1.0550  0.3675 -0.1255
 3176TIP3    H230944   0.847   0.062   3.382  1.3258  0.6759 -0.1707
 3177TIP3   OH230945   2.419   3.557  10.958 -0.2736  0.2810 -0.1818
 3177TIP3    H130946   2.508   3.588  10.977 -0.7442  0.1935  2.3775
 3177TIP3    H230947   2.370   3.636  10.937 -0.1299  0.6314  0.7548
 3178TIP3   OH230948   0.159   3.303   4.815  0.9973  0.1858  0.1969
 3178TIP3    H130949   0.179   3.321   4.723 -0.4431  1.2656  0.0782
 3178TIP3    H230950   0.143   3.389   4.854  0.3166 -0.3580  1.1513
 3179TIP3   OH230951   2.762   0.587   3.922  0.3176  0.2660 -0.5813
 3179TIP3    H130952   2.691   0.644   3.892  0.3936  0.9409  0.4910
 3179TIP3    H230953   2.803   0.555   3.842  0.1205  1.5206 -1.1877
 3180TIP3   OH230954   4.496   6.467  11.954  0.7047  0.1639  0.5330
 3180TIP3    H130955   4.428   6.528  11.983  0.9424  0.1476  1.1277
 3180TIP3    H230956   4.515   6.494  11.864 -0.3240 -0.0431  0.2460
 3181TIP3   OH230957   1.482   5.731  16.455  0.4562  0.2781 -0.0814
 3181TIP3    H130958   1.458   5.813  16.411  0.9142  0.9555  0.9174
 3181TIP3    H230959   1.577   5.736  16.464  0.1797  1.1892  2.9606
 3182TIP3   OH230960   5.739   6.266   5.107  0.0150 -0.3056  0.0985
 3182TIP3    H130961   5.769   6.329   5.173  0.0008 -0.1339 -0.0615
 3182TIP3    H230962   5.811   6.202   5.101  0.6144  0.4552 -0.7506
 3183TIP3   OH230963   6.544   4.971   4.734  0.1487 -0.5058  0.9227
 3183TIP3    H130964   6.565   4.946   4.823  0.5837 -0.6978  0.7662
 3183TIP3    H230965   6.624   5.014   4.702  0.1730 -0.8969  0.4564
 3184TIP3   OH230966   4.446   2.923   1.346  0.2512  0.1840  0.4397
 3184TIP3    H130967   4.397   2.978   1.285  0.4336 -0.5876 -0.4217
 3184TIP3    H230968   4.508   2.982   1.388  1.8853  0.2744 -1.9946
 3185TIP3   OH230969   1.209   0.148  13.986 -0.4736 -0.2249  0.1548
 3185TIP3    H130970   1.294   0.108  14.003  0.3619  0.9451 -1.1018
 3185TIP3    H230971   1.222   0.241  14.004 -0.9269  0.2719 -1.9492
 3186TIP3   OH230972   3.347   0.822  13.215  0.6793 -0.2816  0.1962
 3186TIP3    H130973   3.288   0.791  13.284  1.3532 -0.6280  0.6207
 3186TIP3    H230974   3.405   0.748  13.197 -0.8549 -0.9237 -2.2684
 3187TIP3   OH230975   5.675   2.685   4.959  0.1786  0.7820  0.5584
 3187TIP3    H130976   5.665   2.731   5.043 -1.2384 -0.1782  0.9347
 3187TIP3    H230977   5.625   2.604   4.970  1.3050 -0.0924 -0.6709
 3188TIP3   OH230978   5.410   5.709   1.931  0.0793  0.5633  0.4647
 3188TIP3    H130979   5.347   5.780   1.918 -0.8281 -0.6187 -1.8676
 3188TIP3    H230980   5.493   5.743   1.896 -0.2633  0.6161 -0.3001
 3189TIP3   OH230981   5.963   5.654   4.358 -0.2183  0.9703 -0.1243
 3189TIP3    H130982   6.011   5.671   4.277 -1.8089  2.9238 -0.6986
 3189TIP3    H230983   5.900   5.585   4.335  0.6504  0.1327 -0.0133
 3190TIP3   OH230984   1.086   2.588  12.685 -0.0310 -0.1972  1.0332
 3190TIP3    H130985   1.146   2.661  12.702 -0.8465  0.4673  1.1177
 3190TIP3    H230986   1.094   2.573  12.591 -0.5084  0.5977  0.8551
 3191TIP3   OH230987   5.720   3.713  13.684 -0.0838 -0.0760 -0.4366
 3191TIP3    H130988   5.683   3.638  13.637 -1.4028  1.1111 -1.3077
 3191TIP3    H230989   5.689   3.703  13.774  0.2897 -0.9102 -0.3868
 3192TIP3   OH230990   4.721   3.571   6.210  0.0964 -0.1697  0.7756
 3192TIP3    H130991   4.685   3.515   6.279  0.6671  2.1461  3.0279
 3192TIP3    H230992   4.813   3.547   6.206  0.2216  0.1917  1.3563
 3193TIP3   OH230993   3.534   4.995   0.391  0.2051 -0.0956  0.0883
 3193TIP3    H130994   3.581   4.944   0.325  1.3480 -0.0394  0.8454
 3193TIP3    H230995   3.485   5.061   0.340 -0.5179 -1.3138 -0.8191
 3194TIP3   OH230996   0.480   6.118   5.666 -0.0267 -0.2051  0.7007
 3194TIP3    H130997   0.437   6.108   5.581  0.0547  0.2660  0.6037
 3194TIP3    H230998   0.409   6.112   5.730 -0.2503  0.6710  0.5378
 3195TIP3   OH230999   1.100   0.699  17.202  0.4946 -0.7163  0.3261
 3195TIP3    H131000   1.027   0.682  17.143  1.6199 -0.4978 -1.1477
 3195TIP3    H231001   1.116   0.793  17.195  2.2267 -1.0894 -0.9251
 3196TIP3   OH231002   3.654   2.488  12.363 -0.2794  0.3462 -0.1811
 3196TIP3    H131003   3.581   2.479  12.425 -1.1534  1.8137 -0.9625
 3196TIP3    H231004   3.721   2.537  12.411 -1.0839  1.7666 -0.4777
 3197TIP3   OH231005   4.768   5.956  10.768  0.4640 -0.0319  0.1675
 3197TIP3    H131006   4.747   5.869  10.735  0.6350  0.1291 -0.3659
 3197TIP3    H231007   4.698   5.976  10.830  1.0425 -1.0269  1.1597
 3198TIP3   OH231008   4.573   4.764   1.285 -0.3368 -0.4280  0.1745
 3198TIP3    H131009   4.482   4.793   1.286 -0.7948 -1.7660 -0.2993
 3198TIP3    H231010   4.573   4.683   1.337  0.0219 -1.9510 -2.1057
 3199TIP3   OH231011   1.884   1.964   2.542 -0.0845  0.5857  0.3579
 3199TIP3    H131012   1.947   2.025   2.580  1.1426 -0.4337  0.0071
 3199TIP3    H231013   1.888   1.888   2.600 -1.6605  0.8677  0.8440
 3200TIP3   OH231014   4.815   1.860  15.398  0.5598  0.3336  0.4872
 3200TIP3    H131015   4.873   1.790  15.368  0.9057  1.6003 -1.9909
 3200TIP3    H231016   4.750   1.816  15.452  1.3572 -1.7480 -0.1779
 3201TIP3   OH231017   1.195   4.916   4.297 -0.3022  0.2136  0.0072
 3201TIP3    H131018   1.143   4.850   4.343  0.0257 -0.1395 -0.1302
 3201TIP3    H231019   1.174   4.998   4.342  0.3332 -0.1919  1.0763
 3202TIP3   OH231020   0.431   6.323   3.915  0.8674  0.0678  0.6403
 3202TIP3    H131021   0.463   6.242   3.955  0.4796 -0.2572  0.2976
 3202TIP3    H231022   0.335   6.314   3.915  0.7712  0.9221  1.4300
 3203TIP3   OH231023   4.781   4.845  15.094  0.3799 -0.3358  0.0463
 3203TIP3    H131024   4.835   4.813  15.022  0.3359 -1.1320  0.3654
 3203TIP3    H231025   4.692   4.818  15.072  0.5578 -1.8832  1.0995
 3204TIP3   OH231026   5.472   0.042   2.983 -0.2602 -0.5013  0.4181
 3204TIP3    H131027   5.505   0.053   2.894 -0.5980 -3.0091 -0.0538
 3204TIP3    H231028   5.384   0.008   2.973 -1.0303  1.0074  1.7278
 3205TIP3   OH231029   4.296   4.022  15.854  0.0700  0.0091  0.2146
 3205TIP3    H131030   4.212   4.066  15.836 -0.4000 -0.5315  1.0508
 3205TIP3    H231031   4.274   3.954  15.917  1.0435 -0.5293 -0.0207
 3206TIP3   OH231032   0.153   3.657  12.921  0.2682 -0.2378  0.4431
 3206TIP3    H131033   0.243   3.683  12.941  0.5920 -0.0095 -1.2278
 3206TIP3    H231034   0.109   3.739  12.897 -0.1339 -0.4818  0.3309
 3207TIP3   OH231035   6.034   1.872   4.844  0.8372 -0.2589 -0.1188
 3207TIP3    H131036   5.962   1.922   4.882  1.5180  1.3358 -0.8647
 3207TIP3    H231037   6.113   1.914   4.880  1.4389 -0.2058 -1.4926
 3208TIP3   OH231038   2.237   1.798   5.777  0.4774  0.8580 -0.0902
 3208TIP3    H131039   2.192   1.790   5.861  1.8960  0.6283  0.6784
 3208TIP3    H231040   2.243   1.892   5.761 -0.4312  0.8828 -0.2919
 3209TIP3   OH231041   6.114   6.650   4.030  0.2586 -0.1232 -0.2321
 3209TIP3    H131042   6.167   6.641   3.951  0.2702  0.3296 -0.2744
 3209TIP3    H231043   6.036   6.596   4.012  0.0297  0.3753 -0.7517
 3210TIP3   OH231044   1.148   5.297   1.069 -0.0153  0.5031  0.0043
 3210TIP3    H131045   1.242   5.282   1.072  0.0060  0.7670  0.7733
 3210TIP3    H231046   1.129   5.314   0.977  0.4989 -0.7804 -0.3557
 3211TIP3   OH231047   3.378   4.988  15.296  0.3240 -0.5593 -0.0715
 3211TIP3    H131048   3.397   4.991  15.390 -1.0387 -0.7787  0.2130
 3211TIP3    H231049   3.409   4.902  15.268 -1.7728 -1.5916  0.7294
 3212TIP3   OH231050   2.483   5.699  14.163 -0.3109 -0.2033 -0.2493
 3212TIP3    H131051   2.461   5.785  14.198 -1.9692 -0.4239 -0.6762
 3212TIP3    H231052   2.463   5.705  14.069 -1.3532 -1.3063 -0.1208
 3213TIP3   OH231053   0.960   5.218  13.217 -0.4502  0.3323  0.5137
 3213TIP3    H131054   0.944   5.248  13.306  0.5166  0.3221  0.7018
 3213TIP3    H231055   0.954   5.123  13.223  2.0655  0.1639  1.1124
 3214TIP3   OH231056   2.070   4.793  14.914 -0.5324 -0.2959 -0.1678
 3214TIP3    H131057   2.042   4.766  15.001 -1.2664  2.3158  0.4618
 3214TIP3    H231058   2.165   4.799  14.920 -0.4062 -2.0726 -0.1605
 3215TIP3   OH231059   4.158   3.567   0.650 -0.4310 -0.6400  0.1847
 3215TIP3    H131060   4.167   3.506   0.577 -1.1323  0.1338 -0.5657
 3215TIP3    H231061   4.231   3.628   0.639  0.2534 -1.3193  0.9179
 3216TIP3   OH231062   3.928   6.190   5.589 -0.1220 -0.1266  0.0123
 3216TIP3    H131063   3.842   6.217   5.559  0.0226  0.1393 -0.1644
 3216TIP3    H231064   3.963   6.268   5.633 -0.3469 -0.5167  0.9007
 3217TIP3   OH231065   3.293   1.225   0.706  0.4694  0.2017 -0.8657
 3217TIP3    H131066   3.244   1.279   0.644 -0.0551  0.4052 -0.2701
 3217TIP3    H231067   3.361   1.185   0.652  0.6178  1.1327 -1.3975
 3218TIP3   OH231068   6.083   1.475   0.324  0.0483 -0.3853 -0.5375
 3218TIP3    H131069   5.996   1.509   0.346  1.2806  1.8676  1.0230
 3218TIP3    H231070   6.079   1.460   0.229 -2.2388 -0.9696 -0.3839
 3219TIP3   OH231071   5.978   6.361   1.503  0.0810 -0.1231  0.0437
 3219TIP3    H131072   6.061   6.374   1.456 -1.3188  0.8333 -2.2328
 3219TIP3    H231073   5.938   6.285   1.460 -1.1307  0.6325 -0.1824
 3220TIP3   OH231074   2.839   4.204  11.113 -0.1655  0.0773  0.1494
 3220TIP3    H131075   2.812   4.207  11.204  0.0296 -2.4232  0.3178
 3220TIP3    H231076   2.758   4.201  11.063 -0.2731 -2.3591  0.4324
 3221TIP3   OH231077   4.634   2.805   4.772 -0.2585  0.1387 -0.7425
 3221TIP3    H131078   4.613   2.712   4.765  0.3089 -0.2270  1.9824
 3221TIP3    H231079   4.726   2.811   4.746  0.2793 -0.3837  0.9773
 3222TIP3   OH231080   4.621   2.003  12.560  0.3329  0.5391 -0.5250
 3222TIP3    H131081   4.696   2.042  12.604  0.3565  1.3897 -1.3041
 3222TIP3    H231082   4.560   2.076  12.546 -0.2590  0.0240 -0.6697
 3223TIP3   OH231083   1.960   0.492   0.254 -0.4482  0.4413  0.7006
 3223TIP3    H131084   1.946   0.424   0.188  0.4543  0.4844  0.4653
 3223TIP3    H231085   1.938   0.574   0.209 -0.2273  0.4319  0.5750
 3224TIP3   OH231086   5.414   3.691   3.798 -0.3952  0.1902 -0.2441
 3224TIP3    H131087   5.332   3.646   3.820 -0.8596  0.3502 -1.5856
 3224TIP3    H231088   5.395   3.734   3.715  0.9561  0.5129 -0.3871
 3225TIP3   OH231089   1.845   1.106   4.340  0.5678 -0.2137 -0.4671
 3225TIP3    H131090   1.793   1.186   4.336 -0.3957 -0.7858  0.4638
 3225TIP3    H231091   1.924   1.131   4.389  0.2168  0.1355 -0.0804
 3226TIP3   OH231092   2.692   6.733   3.478  0.2975  0.0338 -0.2160
 3226TIP3    H131093   2.722   6.710   3.566 -0.0333  2.6945  0.6482
 3226TIP3    H231094   2.663   6.650   3.440  1.5849 -1.3549  1.7187
 3227TIP3   OH231095   4.837   3.450   3.896  0.4200  0.7239  0.3576
 3227TIP3    H131096   4.791   3.460   3.813 -0.0742 -0.0840  0.5324
 3227TIP3    H231097   4.772   3.412   3.955  0.6432  1.6617  1.2301
 3228TIP3   OH231098   1.033   5.349   0.055  0.0478  0.2444 -0.0335
 3228TIP3    H131099   1.078   5.409   0.115 -0.4895 -0.7420  1.3977
 3228TIP3    H231100   0.960   5.401   0.020 -0.9965  0.1665  1.9414
 3229TIP3   OH231101   4.058   4.603  13.441  0.1954 -0.3441  0.2042
 3229TIP3    H131102   4.026   4.550  13.369  1.8795 -1.1834  0.0615
 3229TIP3    H231103   3.996   4.588  13.512 -0.7258 -0.5372 -0.6393
 3230TIP3   OH231104   4.557   5.626   0.979 -0.0029 -0.0192  0.1016
 3230TIP3    H131105   4.493   5.584   1.036  0.1277  1.2345  1.1991
 3230TIP3    H231106   4.641   5.617   1.024  0.3218 -0.1692 -0.5163
 3231TIP3   OH231107   1.057   1.250   3.054  0.1757  0.9325  0.0222
 3231TIP3    H131108   1.128   1.238   2.991  0.7736 -0.4608  0.9493
 3231TIP3    H231109   1.100   1.270   3.136 -0.5471  1.2844  0.3205
 3232TIP3   OH231110   4.948   0.942  14.746  0.6109 -0.6473 -0.1403
 3232TIP3    H131111   4.947   0.938  14.650 -1.3444  1.5106 -0.2429
 3232TIP3    H231112   5.038   0.965  14.768  0.7299  0.3170 -1.5528
 3233TIP3   OH231113   3.677   2.031  13.894 -0.1955 -0.3526  0.0446
 3233TIP3    H131114   3.616   2.054  13.963 -0.5711  1.2873 -0.7945
 3233TIP3    H231115   3.750   1.988  13.939 -0.3935  0.7684  1.4707
 3234TIP3   OH231116   6.042   4.611   3.562  0.3006 -0.1569 -0.1355
 3234TIP3    H131117   6.125   4.650   3.588 -1.4005  2.8548  0.9854
 3234TIP3    H231118   5.983   4.628   3.635 -1.0105 -3.3247 -0.3935
 3235TIP3   OH231119   2.876   4.000  17.119  0.8697 -0.0447  0.0844
 3235TIP3    H131120   2.835   4.055  17.051  0.3570  0.9548  1.1948
 3235TIP3    H231121   2.862   4.047  17.200  0.5904 -1.7414  1.0453
 3236TIP3   OH231122   0.095   4.566  14.260  1.0607 -0.1733 -0.4069
 3236TIP3    H131123   0.027   4.617  14.215  1.8153  1.4548  0.2415
 3236TIP3    H231124   0.053   4.537  14.341  0.2447 -1.6521 -1.3275
 3237TIP3   OH231125   1.389   0.082  15.568 -0.3660 -0.0787  0.3709
 3237TIP3    H131126   1.367   0.148  15.634  1.0154  0.8724 -0.0874
 3237TIP3    H231127   1.312   0.079  15.511 -1.1901 -0.2185  1.4694
 3238TIP3   OH231128   6.721   4.957   3.060  0.1428 -0.0439  0.7376
 3238TIP3    H131129   6.722   5.047   3.028 -1.4346  0.0460  0.9078
 3238TIP3    H231130   6.725   4.964   3.155 -1.7556 -0.0843  0.8300
 3239TIP3   OH231131   4.541   2.310   5.741  0.0682 -0.2870  0.2288
 3239TIP3    H131132   4.611   2.373   5.728  0.3599 -0.1619  2.3395
 3239TIP3    H231133   4.537   2.297   5.836 -2.6268 -0.4261  0.1334
 3240TIP3   OH231134   0.159   3.925  17.167  0.1178 -0.0705 -0.4444
 3240TIP3    H131135   0.153   3.838  17.206 -2.7062 -0.3899 -1.5184
 3240TIP3    H231136   0.128   3.914  17.078  0.9469  1.7991 -0.9926
 3241TIP3   OH231137   6.141   2.816   2.937  0.2639 -0.3263 -0.6347
 3241TIP3    H131138   6.191   2.864   2.870  2.1677  1.2153  1.7992
 3241TIP3    H231139   6.065   2.871   2.954  0.5972  0.0640 -0.4012
 3242TIP3   OH231140   6.690   5.679  15.852  0.6480 -0.3892 -0.3596
 3242TIP3    H131141   6.598   5.703  15.841  0.7369  0.4319  0.6059
 3242TIP3    H231142   6.692   5.584  15.839  0.2290  0.0132 -4.0469
 3243TIP3   OH231143   5.688   1.114  12.159  0.1368 -0.9636 -0.0316
 3243TIP3    H131144   5.616   1.106  12.097 -2.3737  0.0086  2.6530
 3243TIP3    H231145   5.747   1.042  12.136 -2.2847 -2.5566 -1.4973
 3244TIP3   OH231146   3.847   6.613  15.901 -0.0530  0.4082 -0.0169
 3244TIP3    H131147   3.820   6.659  15.981  0.5167  0.3536  0.2067
 3244TIP3    H231148   3.841   6.520  15.924 -1.1823  0.3635 -0.4637
 3245TIP3   OH231149   1.023   3.477  14.697  0.5420  0.1674  0.1739
 3245TIP3    H131150   1.027   3.533  14.620 -2.4754  0.9319  0.5122
 3245TIP3    H231151   1.037   3.388  14.663  0.7349  0.6444 -1.0157
 3246TIP3   OH231152   2.126   6.639   2.844  0.7731 -0.2357  0.1041
 3246TIP3    H131153   2.122   6.589   2.762 -1.8012  0.1396 -0.0423
 3246TIP3    H231154   2.214   6.676   2.846  0.8622 -0.2417 -2.5216
 3247TIP3   OH231155   3.602   3.983   4.734  0.7260 -0.0809  0.8303
 3247TIP3    H131156   3.690   4.008   4.704  0.3505  0.9437  0.5452
 3247TIP3    H231157   3.544   4.041   4.686 -0.2569 -2.1247 -0.5365
 3248TIP3   OH231158   0.745   5.277  13.043  0.1302  0.3264  0.2507
 3248TIP3    H131159   0.802   5.234  12.979 -1.1579 -1.2349  0.1225
 3248TIP3    H231160   0.802   5.290  13.119  1.6736  2.2212 -1.1775
 3249TIP3   OH231161   5.612   1.391   5.869  0.4323 -0.3778  0.2186
 3249TIP3    H131162   5.518   1.377   5.874  0.4443 -0.3161  0.6873
 3249TIP3    H231163   5.621   1.476   5.825  0.2976 -0.7877 -0.6039
 3250TIP3   OH231164   6.150   4.257  15.402 -0.3842 -0.0564 -0.2072
 3250TIP3    H131165   6.109   4.275  15.486 -1.6206  1.4858 -1.1027
 3250TIP3    H231166   6.242   4.241  15.423 -1.0687 -1.7523  1.6345
 3251TIP3   OH231167   2.133   0.313  12.305 -0.0291  0.6002 -0.0250
 3251TIP3    H131168   2.143   0.225  12.266 -1.0391  0.1365  0.7553
 3251TIP3    H231169   2.175   0.306  12.390  0.1193  0.9545 -0.0704
 3252TIP3   OH231170   6.080   2.195   4.992  0.1639 -0.2291 -0.1835
 3252TIP3    H131171   5.990   2.228   4.994  0.8135  1.5377  2.5648
 3252TIP3    H231172   6.135   2.273   4.988  1.6470 -1.0534  2.8109
 3253TIP3   OH231173   1.572   1.014  13.498 -0.5118  0.3281 -0.4789
 3253TIP3    H131174   1.538   1.053  13.579 -2.3293  0.4705 -1.2787
 3253TIP3    H231175   1.554   0.921  13.506  1.9086 -0.0888  0.5036
 3254TIP3   OH231176   5.962   3.486   6.316  0.6585  0.2165  0.3264
 3254TIP3    H131177   5.936   3.575   6.290 -0.9393 -0.9637 -2.3324
 3254TIP3    H231178   5.943   3.482   6.410 -0.3847  2.2995  0.2319
 3255TIP3   OH231179   5.805   6.413   6.224 -0.0351  0.0319  1.0585
 3255TIP3    H131180   5.880   6.471   6.210  0.9529 -1.6213 -0.6987
 3255TIP3    H231181   5.761   6.449   6.301  1.8191  1.7855  1.3363
 3256TIP3   OH231182   6.470   6.388  14.828  0.2752  0.0737  0.1611
 3256TIP3    H131183   6.471   6.314  14.767  0.0075  0.2793 -0.0948
 3256TIP3    H231184   6.390   6.375  14.880 -0.0923  0.5138 -0.2939
 3257TIP3   OH231185   5.126   3.364  14.666 -0.5527  0.5303 -0.1995
 3257TIP3    H131186   5.213   3.396  14.692 -0.8099  0.8014  0.3401
 3257TIP3    H231187   5.070   3.442  14.670 -0.6222  0.5629 -1.4845
 3258TIP3   OH231188   2.755   4.384  11.441  0.3365  0.1587  0.5758
 3258TIP3    H131189   2.730   4.430  11.522  1.1285  0.0077  0.9189
 3258TIP3    H231190   2.800   4.451  11.389  0.9523 -0.0618  0.8148
 3259TIP3   OH231191   4.563   3.413  17.038  0.5457  0.2365  0.1461
 3259TIP3    H131192   4.617   3.490  17.057  1.7523  0.4436 -3.7014
 3259TIP3    H231193   4.477   3.449  17.014 -0.8570 -0.0062  4.4303
 3260TIP3   OH231194   4.860   0.980   0.962 -0.1822 -0.2421 -0.6764
 3260TIP3    H131195   4.946   0.954   0.996  0.0631  0.9077 -0.3816
 3260TIP3    H231196   4.847   1.069   0.997 -2.1002 -0.9325  0.4487
 3261TIP3   OH231197   4.782   1.645   0.331  0.0823  0.4858 -0.5728
 3261TIP3    H131198   4.718   1.601   0.386  0.9727 -1.9465 -1.4064
 3261TIP3    H231199   4.730   1.706   0.279 -1.8013 -2.1990 -2.0178
 3262TIP3   OH231200   3.886   2.445   0.343 -0.2348  0.7327  0.3663
 3262TIP3    H131201   3.979   2.443   0.366  0.2624  0.2373 -1.6071
 3262TIP3    H231202   3.848   2.373   0.393  0.4494  0.8997  1.1419
 3263TIP3   OH231203   3.490   3.742   5.471 -0.1236  0.1108 -0.1149
 3263TIP3    H131204   3.427   3.716   5.404 -0.4609  1.8098 -0.4990
 3263TIP3    H231205   3.539   3.815   5.431  0.3467  0.4910  1.1173
 3264TIP3   OH231206   1.703   5.595   0.910 -0.6445  0.0208 -0.9948
 3264TIP3    H131207   1.794   5.563   0.911 -1.2260 -1.6971 -0.2885
 3264TIP3    H231208   1.672   5.582   1.000 -1.3283  1.4045 -1.0231
 3265TIP3   OH231209   0.091   2.437   2.962  0.4349  0.5290  0.2388
 3265TIP3    H131210   0.125   2.472   3.045  1.1000  1.6114 -0.4850
 3265TIP3    H231211   0.022   2.498   2.937 -1.0922 -0.8762  0.9744
 3266TIP3   OH231212   3.624   1.901  14.729  0.2451  0.7449  0.0538
 3266TIP3    H131213   3.700   1.905  14.786  0.4023  1.1926 -0.1831
 3266TIP3    H231214   3.562   1.963  14.767 -0.0706  0.2604  0.3414
 3267TIP3   OH231215   6.367   1.526   1.620  0.3831  0.4410 -0.5415
 3267TIP3    H131216   6.323   1.605   1.587  0.9630  0.9047 -0.2207
 3267TIP3    H231217   6.297   1.476   1.663  0.6355  2.4279  2.2816
 3268TIP3   OH231218   2.187   2.756  14.442 -0.6999  0.2827 -0.0827
 3268TIP3    H131219   2.116   2.755  14.378 -0.0303 -1.8928 -0.8551
 3268TIP3    H231220   2.150   2.713  14.519 -0.1726 -1.0170 -0.5519
 3269TIP3   OH231221   2.671   4.380   0.282 -0.7445  0.1361  0.3613
 3269TIP3    H131222   2.637   4.301   0.324 -0.8793 -0.2686 -0.5054
 3269TIP3    H231223   2.641   4.374   0.191 -0.2661  0.8934  0.1478
 3270TIP3   OH231224   3.700   0.169   0.059 -0.8506  0.3915  0.3298
 3270TIP3    H131225   3.656   0.152   0.142  0.0362  0.3691  0.8004
 3270TIP3    H231226   3.792   0.147   0.075 -0.6167  0.6763 -0.5686
 3271TIP3   OH231227   0.628   6.059   4.970  0.4305 -0.3260  0.1207
 3271TIP3    H131228   0.575   6.069   5.049  1.1042  1.0113  0.4115
 3271TIP3    H231229   0.567   6.077   4.898  0.1887 -0.0726  0.3905
 3272TIP3   OH231230   1.360   3.683  15.741  0.2042 -0.3120  0.2324
 3272TIP3    H131231   1.346   3.645  15.654  3.9604  1.3151 -1.2248
 3272TIP3    H231232   1.273   3.712  15.769 -1.3937 -2.5487 -2.1364
 3273TIP3   OH231233   2.285   6.154  14.642  0.4248  0.1707  0.2234
 3273TIP3    H131234   2.311   6.199  14.723  1.2381 -1.8614  1.1407
 3273TIP3    H231235   2.367   6.136  14.596 -0.0092  0.9976 -0.8862
 3274TIP3   OH231236   2.205   2.015  16.368  0.2410 -0.2184  0.5374
 3274TIP3    H131237   2.273   2.055  16.423  0.4858  0.1920 -0.0570
 3274TIP3    H231238   2.231   1.923  16.363  0.7559 -0.0662  0.3218
 3275TIP3   OH231239   4.362   4.583   5.089 -0.1830  0.0871  0.2526
 3275TIP3    H131240   4.351   4.632   5.008  2.2396  0.4104  0.0786
 3275TIP3    H231241   4.338   4.494   5.067 -1.3176  0.5344 -0.3320
 3276TIP3   OH231242   2.065   6.095  11.294 -0.4692 -0.6638  0.4099
 3276TIP3    H131243   2.145   6.147  11.301 -0.0663 -1.3125  0.6625
 3276TIP3    H231244   2.005   6.150  11.244  0.5815 -0.7069 -0.9242
 3277TIP3   OH231245   4.205   5.353   5.932 -0.6174  0.8322 -0.4871
 3277TIP3    H131246   4.126   5.375   5.882 -0.8792 -0.6354 -0.7475
 3277TIP3    H231247   4.231   5.268   5.897  1.5467  1.6632 -0.9458
 3278TIP3   OH231248   5.487   6.305   5.566 -0.4656  0.1190 -0.2936
 3278TIP3    H131249   5.477   6.349   5.651 -0.5508  0.6298 -0.5669
 3278TIP3    H231250   5.459   6.371   5.502  1.6701  0.4826 -0.8734
 3279TIP3   OH231251   3.859   1.121  15.527 -0.4609 -0.3136  0.0777
 3279TIP3    H131252   3.920   1.165  15.468 -1.6633 -1.1610 -1.8367
 3279TIP3    H231253   3.823   1.192  15.580  0.1250  0.5668 -0.6797
 3280TIP3   OH231254   4.541   5.015   2.265  0.1805 -0.7754  0.6877
 3280TIP3    H131255   4.471   4.955   2.291  0.7935 -1.4758  0.7366
 3280TIP3    H231256   4.606   5.007   2.334  2.2591 -3.3639 -1.4704
 3281TIP3   OH231257   2.214   0.180  14.699  0.2585  0.1845 -0.0993
 3281TIP3    H131258   2.129   0.223  14.687 -0.7006 -2.0069 -1.4862
 3281TIP3    H231259   2.271   0.250  14.731 -2.0213  1.7389  0.7563
 3282TIP3   OH231260   4.040   0.232   5.539  0.0266  0.0445  0.0179
 3282TIP3    H131261   4.079   0.317   5.562  0.3775  0.8117 -3.0774
 3282TIP3    H231262   4.104   0.192   5.480 -1.0001 -1.5230 -0.0551
 3283TIP3   OH231263   1.758   2.733   3.216  0.1420  0.1895  0.1193
 3283TIP3    H131264   1.772   2.779   3.133 -0.6346 -0.2489 -0.2613
 3283TIP3    H231265   1.811   2.782   3.280 -2.6144  3.1502  0.2441
 3284TIP3   OH231266   3.234   4.431   0.036 -0.1451  0.0534  0.1824
 3284TIP3    H131267   3.226   4.420   0.131 -0.1874 -1.0156  0.0593
 3284TIP3    H231268   3.199   4.350  -0.000  1.3919 -0.2427 -0.6971
 3285TIP3   OH231269   0.576   3.106  12.790  0.5538 -0.0991  0.2939
 3285TIP3    H131270   0.640   3.042  12.821  0.8937  0.5645  0.9667
 3285TIP3    H231271   0.515   3.117  12.863  1.0957  1.1284  0.5662
 3286TIP3   OH231272   5.499   2.246  16.360  0.0085  0.8567 -0.1823
 3286TIP3    H131273   5.477   2.155  16.382  2.9129  0.4895  1.4773
 3286TIP3    H231274   5.428   2.274  16.302 -1.4208 -2.1677 -0.0272
 3287TIP3   OH231275   3.591   6.510  14.230  0.1722  0.0049 -0.3622
 3287TIP3    H131276   3.542   6.444  14.180  0.1849  0.6614 -1.2316
 3287TIP3    H231277   3.529   6.538  14.298  0.0868 -0.7319 -0.1271
 3288TIP3   OH231278   5.860   2.834   5.455 -0.4483 -0.1720 -0.7147
 3288TIP3    H131279   5.939   2.788   5.483 -0.9167 -0.7110 -0.2725
 3288TIP3    H231280   5.808   2.845   5.535  0.3840  2.5788 -0.4837
 3289TIP3   OH231281   0.026   4.828  16.337  0.0782 -0.6543 -0.0831
 3289TIP3    H131282   0.084   4.818  16.411  0.5709 -1.9764 -0.6380
 3289TIP3    H231283  -0.044   4.764  16.352 -0.4014 -0.1575 -0.1945
 3290TIP3   OH231284   6.652   1.493  14.739  0.4103  0.1131  0.6604
 3290TIP3    H131285   6.738   1.500  14.697 -0.4219 -1.0564 -1.3422
 3290TIP3    H231286   6.663   1.422  14.803  0.8086 -0.4184  0.0199
 3291TIP3   OH231287   4.655   0.932   2.570 -0.2041  0.3855  0.4024
 3291TIP3    H131288   4.591   0.871   2.607 -0.3750  1.4075  1.8198
 3291TIP3    H231289   4.731   0.925   2.628  1.4407 -1.6425 -1.8884
 3292TIP3   OH231290   1.318   1.426  13.030  0.2819 -0.2138  0.3936
 3292TIP3    H131291   1.329   1.425  12.935  0.6613  0.3465  0.4267
 3292TIP3    H231292   1.405   1.447  13.064  0.1054 -0.2261  0.8553
 3293TIP3   OH231293   0.437   2.832   6.639 -0.7694  0.1334 -0.0011
 3293TIP3    H131294   0.401   2.920   6.651  1.3708  0.9346  0.6818
 3293TIP3    H231295   0.366   2.783   6.597 -2.2216  1.9914  0.2219
 3294TIP3   OH231296   5.307   6.268   0.588  0.5555 -0.1047 -0.0503
 3294TIP3    H131297   5.314   6.174   0.572 -1.1921 -0.3747  0.5900
 3294TIP3    H231298   5.371   6.286   0.656 -0.2215 -1.1596  0.9813
 3295TIP3   OH231299   2.822   3.421  13.751 -0.2458 -0.5100  0.3141
 3295TIP3    H131300   2.790   3.409  13.840 -0.9570 -1.1309 -0.0266
 3295TIP3    H231301   2.911   3.385  13.753  1.0319  2.6107  1.6396
 3296TIP3   OH231302   2.997   4.591  13.899  0.0048 -0.4229  0.2223
 3296TIP3    H131303   3.026   4.660  13.958  1.2138  0.7990 -1.7510
 3296TIP3    H231304   3.067   4.584  13.834 -2.6849  0.5348 -2.9233
 3297TIP3   OH231305   2.099   4.614  17.179 -0.5069 -0.4527 -0.2715
 3297TIP3    H131306   2.014   4.582  17.209 -0.6536 -0.0411 -0.2464
 3297TIP3    H231307   2.111   4.698  17.224 -0.6966  0.1298 -1.2901
 3298TIP3   OH231308   2.866   4.076   6.698  0.0947  0.8018 -0.5384
 3298TIP3    H131309   2.946   4.125   6.680  0.2488  0.7892  0.0926
 3298TIP3    H231310   2.804   4.105   6.632 -0.1718  2.6882  0.5112
 3299TIP3   OH231311   2.982   6.070  12.501 -0.4233 -0.5941  0.0212
 3299TIP3    H131312   2.992   6.033  12.589  0.6744 -2.0791 -0.7081
 3299TIP3    H231313   2.905   6.126  12.508 -2.0239 -2.8442  1.2497
 3300TIP3   OH231314   3.263   2.841   4.448  1.0395  0.3116  0.5951
 3300TIP3    H131315   3.271   2.884   4.533 -1.5534 -0.9539  1.5225
 3300TIP3    H231316   3.332   2.775   4.448 -1.2487 -2.1744  3.2831
 3301TIP3   OH231317   3.055   5.654  14.373 -0.3993  0.5617 -0.1731
 3301TIP3    H131318   3.080   5.745  14.386 -0.4067  0.4318  0.7678
 3301TIP3    H231319   2.990   5.636  14.440 -0.4396 -0.1206 -0.3870
 3302TIP3   OH231320   3.491   0.141  15.469  0.2617 -0.5314  0.1513
 3302TIP3    H131321   3.405   0.133  15.427 -0.0453 -2.5605  1.1460
 3302TIP3    H231322   3.474   0.195  15.546  0.0142 -0.3992  0.0084
 3303TIP3   OH231323   1.451   6.201   0.056 -0.1079  0.3123  0.2272
 3303TIP3    H131324   1.507   6.231   0.127  0.0120  2.2378 -0.6619
 3303TIP3    H231325   1.389   6.272   0.041 -0.6589 -0.4025 -1.0496
 3304TIP3   OH231326   6.353   0.427  15.028  0.3152  0.6827 -0.3154
 3304TIP3    H131327   6.300   0.377  14.965 -0.3456 -0.9378  1.4526
 3304TIP3    H231328   6.355   0.516  14.993  0.7494 -0.3729 -3.0949
 3305TIP3   OH231329   5.399   5.971   6.222 -0.0295 -0.2355  0.5779
 3305TIP3    H131330   5.321   5.966   6.168  0.5488 -1.8762 -0.1213
 3305TIP3    H231331   5.370   6.014   6.303 -1.6487 -0.8581  0.3301
 3306TIP3   OH231332   4.477   1.291   2.803 -0.2402  0.4652 -0.5149
 3306TIP3    H131333   4.396   1.297   2.753 -1.0749 -1.3611  0.5632
 3306TIP3    H231334   4.450   1.295   2.895  0.9318  0.4706 -0.1581
 3307TIP3   OH231335   0.053   1.510  13.770  0.3074  0.7049 -0.2656
 3307TIP3    H131336   0.073   1.459  13.692  0.0991 -0.5895  0.5137
 3307TIP3    H231337   0.139   1.537  13.804  0.4923 -0.3582  0.1248
 3308TIP3   OH231338   2.759   4.255   4.381 -0.3510 -0.2090 -0.4882
 3308TIP3    H131339   2.777   4.215   4.466 -0.2210  0.4745 -0.1861
 3308TIP3    H231340   2.731   4.183   4.326 -2.8582 -0.3117  0.8266
 3309TIP3   OH231341   5.736   5.823   3.792  0.3045 -0.5439  0.0800
 3309TIP3    H131342   5.747   5.849   3.700 -1.5049 -1.2428 -0.3474
 3309TIP3    H231343   5.657   5.870   3.820 -0.0689 -1.6040  0.7969
 3310TIP3   OH231344   3.854   1.692  16.621  0.3230  0.3843 -0.7979
 3310TIP3    H131345   3.814   1.635  16.555  0.9622  0.1654 -1.0044
 3310TIP3    H231346   3.796   1.768  16.624 -1.6332 -1.1203  0.9243
 3311TIP3   OH231347   5.175   4.522   1.731  0.2938 -0.2537 -0.0094
 3311TIP3    H131348   5.143   4.433   1.715  1.1799 -0.4829 -0.5280
 3311TIP3    H231349   5.225   4.544   1.652 -0.1965  0.8294 -0.0302
 3312TIP3   OH231350   4.311   3.666   3.998  0.8337 -0.2721  0.3988
 3312TIP3    H131351   4.343   3.691   4.085 -1.4998  0.8512  0.9686
 3312TIP3    H231352   4.362   3.588   3.976  1.7807 -0.3277  2.5782
 3313TIP3   OH231353   3.018   6.544   5.718  0.1299  0.2360 -0.3798
 3313TIP3    H131354   2.923   6.536   5.722  0.3398 -3.1244 -0.8119
 3313TIP3    H231355   3.048   6.522   5.806  0.5876 -0.6385 -0.7420
 3314TIP3   OH231356   1.726   2.076   4.565  0.5924  0.7931  0.2626
 3314TIP3    H131357   1.751   2.085   4.657 -1.1091  0.6059  0.7536
 3314TIP3    H231358   1.805   2.043   4.522  1.4841  1.1411  1.5965
 3315TIP3   OH231359   4.268   1.174  12.393 -0.3104 -0.1659 -0.1101
 3315TIP3    H131360   4.175   1.180  12.372 -0.1826 -0.6079 -0.7822
 3315TIP3    H231361   4.293   1.085  12.370  0.1744 -0.1980  0.5135
 3316TIP3   OH231362   4.026   5.802   3.091 -0.1780  0.2510  0.5727
 3316TIP3    H131363   4.037   5.889   3.052 -0.4022  1.0446  2.2291
 3316TIP3    H231364   3.983   5.750   3.023  0.3052  1.3342 -0.5655
 3317TIP3   OH231365   6.696   6.176   4.773  0.1184  0.2585  0.0737
 3317TIP3    H131366   6.763   6.231   4.732  1.5555 -1.1765  0.4311
 3317TIP3    H231367   6.742   6.132   4.844 -1.1009 -1.1108  0.0360
 3318TIP3   OH231368   2.907   2.006   6.338  0.9107 -0.0080 -0.0634
 3318TIP3    H131369   2.949   2.054   6.410 -0.0581  0.5643  0.1286
 3318TIP3    H231370   2.979   1.981   6.280  1.5481  0.6936  0.4224
 3319TIP3   OH231371   4.874   1.600  16.671  0.4680 -0.8181  0.2308
 3319TIP3    H131372   4.937   1.563  16.610 -0.1648 -0.2500 -0.7769
 3319TIP3    H231373   4.791   1.598  16.624  0.1445  0.4675  0.7359
 3320TIP3   OH231374   3.589   1.034   1.562 -0.5034 -0.2329 -0.1627
 3320TIP3    H131375   3.653   1.098   1.594 -0.2653 -1.5330  2.0273
 3320TIP3    H231376   3.613   1.020   1.470  1.0776  0.8293  0.0740
 3321TIP3   OH231377   6.004   4.184  12.351 -0.4387  0.0007 -0.2388
 3321TIP3    H131378   5.979   4.138  12.431 -1.5229  0.5648 -0.2359
 3321TIP3    H231379   6.085   4.229  12.374 -1.4819  1.3050  1.0082
 3322TIP3   OH231380   0.463   3.733  15.753 -0.1822 -0.2584 -0.3755
 3322TIP3    H131381   0.458   3.645  15.789 -1.0890  0.1001  0.3835
 3322TIP3    H231382   0.412   3.787  15.813  1.1280  0.9564 -0.3240
 3323TIP3   OH231383   2.257   6.594  13.282 -0.4077  0.0110  0.0676
 3323TIP3    H131384   2.206   6.635  13.213 -0.2288  0.5395  0.2477
 3323TIP3    H231385   2.219   6.506  13.292 -1.0252  0.2653 -0.0649
 3324TIP3   OH231386   6.000   3.165   0.305  0.0939  0.1794  0.2223
 3324TIP3    H131387   6.042   3.178   0.390  2.3900  0.0800 -0.8565
 3324TIP3    H231388   6.004   3.251   0.263 -1.3010  0.3000  0.3050
 3325TIP3   OH231389   2.065   2.432  10.927 -0.1600 -0.1434 -0.1100
 3325TIP3    H131390   2.015   2.491  10.983 -2.2126 -1.4622 -0.5270
 3325TIP3    H231391   2.125   2.387  10.987 -1.5108 -0.6797  0.8614
 3326TIP3   OH231392   0.191   1.326  12.710  0.4089 -0.2236  0.8212
 3326TIP3    H131393   0.101   1.302  12.732 -0.3605 -0.5491 -2.3839
 3326TIP3    H231394   0.197   1.419  12.731 -0.1745 -0.5459  2.4805
 3327TIP3   OH231395   0.377   1.873  10.877  0.2149 -0.2268  0.5427
 3327TIP3    H131396   0.461   1.919  10.871 -0.4474  0.9560  0.2096
 3327TIP3    H231397   0.351   1.883  10.968 -2.1956  4.2065 -0.4878
 3328TIP3   OH231398   4.882   3.160   5.100  0.4781  0.2131  0.0804
 3328TIP3    H131399   4.807   3.112   5.065  0.4564  0.7476 -0.6206
 3328TIP3    H231400   4.868   3.162   5.194 -0.2181  0.0267 -0.0168
 3329TIP3   OH231401   2.712   5.602   2.840 -0.3104 -0.2639  0.2200
 3329TIP3    H131402   2.651   5.674   2.824  1.3152  0.9851 -0.4488
 3329TIP3    H231403   2.759   5.592   2.757  0.6370 -0.9790  0.8384
 3330TIP3   OH231404   4.278   3.027   0.632  0.0825 -0.2376  0.2291
 3330TIP3    H131405   4.236   3.103   0.671 -0.0998  0.3406 -1.0852
 3330TIP3    H231406   4.369   3.054   0.616 -0.8166  0.9406 -3.4371
 3331TIP3   OH231407   5.169   6.442   6.087 -0.4994  0.3226  0.6036
 3331TIP3    H131408   5.246   6.456   6.143 -0.2591  0.2185  0.2974
 3331TIP3    H231409   5.117   6.521   6.098  1.0437  1.6580 -1.4369
 3332TIP3   OH231410   3.351   5.471  14.209  0.1414  0.1096 -0.1799
 3332TIP3    H131411   3.275   5.436  14.255  2.4281 -1.4752  2.5690
 3332TIP3    H231412   3.329   5.563  14.191 -1.6380  0.2201  2.3680
 3333TIP3   OH231413   3.508   5.150  12.766 -0.6739  0.4491  0.2126
 3333TIP3    H131414   3.557   5.076  12.729  0.1992  0.2205  1.7871
 3333TIP3    H231415   3.467   5.192  12.690  1.9546  0.6496 -1.1580
 3334TIP3   OH231416   6.683   0.995   3.070 -0.7078  0.1009 -0.0924
 3334TIP3    H131417   6.735   1.054   3.124  0.2654 -0.1359 -0.7393
 3334TIP3    H231418   6.632   1.052   3.012  0.1173  0.3199 -0.6141
 3335TIP3   OH231419   6.191   4.964   2.503 -0.3575  0.2477 -0.3679
 3335TIP3    H131420   6.284   4.987   2.494  0.2072 -0.7088  2.3587
 3335TIP3    H231421   6.146   5.048   2.501  0.5886  0.7434 -1.4683
 3336TIP3   OH231422   6.034   4.456   3.124  0.2253 -0.0502  0.2515
 3336TIP3    H131423   5.985   4.386   3.082 -0.7237  0.6284  0.2076
 3336TIP3    H231424   5.998   4.462   3.213 -0.7537  1.3594 -0.2098
 3337TIP3   OH231425   0.617   3.763  16.850 -0.3578 -0.4409  0.2369
 3337TIP3    H131426   0.579   3.822  16.915 -2.8944 -1.3562 -0.3725
 3337TIP3    H231427   0.648   3.688  16.902  1.3795  0.6599  0.8259
 3338TIP3   OH231428   1.915   6.670   4.454 -0.1392 -0.1928  0.1216
 3338TIP3    H131429   1.993   6.719   4.427 -0.4044 -0.4573 -1.1360
 3338TIP3    H231430   1.928   6.583   4.418 -1.6102  0.1086 -1.1935
 3339TIP3   OH231431   4.928   3.691   3.218 -0.4590 -0.8962  0.1116
 3339TIP3    H131432   4.865   3.643   3.272 -0.5576 -2.2758 -1.1929
 3339TIP3    H231433   5.012   3.649   3.237 -0.3770 -0.9003 -0.2602
 3340TIP3   OH231434   2.409   2.343  15.178  0.1076  0.0132  0.5360
 3340TIP3    H131435   2.475   2.280  15.149  1.1093  0.1869  2.3830
 3340TIP3    H231436   2.376   2.307  15.260  2.0819  2.8065  2.6371
 3341TIP3   OH231437   2.264   5.137   2.863 -0.2650 -0.1328 -0.8836
 3341TIP3    H131438   2.328   5.084   2.911 -0.1762  1.4371  0.8294
 3341TIP3    H231439   2.180   5.096   2.882 -0.1187 -0.1403 -0.2353
 3342TIP3   OH231440   4.850   0.771  16.805  0.2040 -0.5471 -0.2073
 3342TIP3    H131441   4.876   0.775  16.713  1.6316  0.8083  0.2288
 3342TIP3    H231442   4.803   0.853  16.820  1.9617  0.2793  0.8433
 3343TIP3   OH231443   2.654   1.119   1.885 -0.1206  0.3555  0.3699
 3343TIP3    H131444   2.706   1.056   1.935 -1.0284 -0.3002  0.5017
 3343TIP3    H231445   2.599   1.162   1.951 -2.9673 -2.0932 -0.2566
 3344TIP3   OH231446   3.218   6.656   0.903 -0.2961 -0.4609 -0.4628
 3344TIP3    H131447   3.197   6.640   0.994 -0.8667  0.5551 -0.4083
 3344TIP3    H231448   3.265   6.740   0.903 -0.2376 -0.4864 -1.0846
 3345TIP3   OH231449   3.518   4.769  12.846  0.0215 -0.0273 -0.3702
 3345TIP3    H131450   3.548   4.678  12.844  0.4238  0.0678  0.8191
 3345TIP3    H231451   3.576   4.814  12.786  1.5669 -0.0648  1.0545
 3346TIP3   OH231452   4.009   5.558   2.654 -0.6838 -0.2755 -0.6798
 3346TIP3    H131453   4.031   5.507   2.576 -0.1102  0.1624 -0.8118
 3346TIP3    H231454   4.032   5.501   2.727 -0.6663 -0.4632 -0.8320
 3347TIP3   OH231455   6.401   3.171  12.102  0.0785  0.5929 -0.0115
 3347TIP3    H131456   6.382   3.114  12.028 -1.5134 -1.6207  2.0160
 3347TIP3    H231457   6.318   3.218  12.116 -0.5243 -1.0266  2.0389
 3348TIP3   OH231458   4.628   5.936   1.059  0.5051 -0.3401  0.4758
 3348TIP3    H131459   4.643   5.995   1.133  1.3038  0.3466 -0.2158
 3348TIP3    H231460   4.713   5.931   1.015 -0.0512 -0.4322 -0.6069
 3349TIP3   OH231461   5.079   6.232  13.828 -0.0659 -0.0032  0.1380
 3349TIP3    H131462   5.030   6.151  13.842  0.9502 -0.4927  0.8829
 3349TIP3    H231463   5.100   6.231  13.734  0.7496 -1.0681  0.3172
 3350TIP3   OH231464   6.455   4.560   3.436  0.1196 -0.4190 -0.1436
 3350TIP3    H131465   6.534   4.575   3.385  0.3807 -1.0670  0.0592
 3350TIP3    H231466   6.383   4.581   3.376  0.4403 -0.0157 -0.3887
 3351TIP3   OH231467   5.100   5.973   3.002  0.2176  0.2748 -0.1706
 3351TIP3    H131468   5.191   5.964   3.033  0.3413  2.2361  0.1165
 3351TIP3    H231469   5.078   6.064   3.020 -1.3122  0.2185 -1.6399
 3352TIP3   OH231470   4.824   2.144  12.682 -0.3054 -0.1064 -0.3091
 3352TIP3    H131471   4.873   2.137  12.600 -1.4821 -0.6057 -0.9779
 3352TIP3    H231472   4.820   2.238  12.700 -0.0959  0.0074 -0.8549
 3353TIP3   OH231473   0.069   1.248  14.663 -0.3426  0.0750 -0.4096
 3353TIP3    H131474   0.078   1.335  14.625 -1.8630 -0.2859 -1.6311
 3353TIP3    H231475   0.100   1.189  14.595  2.8884 -0.2626  1.2409
 3354TIP3   OH231476   2.628   6.630  14.124  0.1837 -0.1471 -0.1348
 3354TIP3    H131477   2.675   6.674  14.053 -0.6830  0.3406 -0.4130
 3354TIP3    H231478   2.680   6.648  14.202 -0.4702  1.8910 -0.1485
 3355TIP3   OH231479   2.640   5.810   4.591  0.1453 -0.2696  0.0900
 3355TIP3    H131480   2.641   5.724   4.550  0.7642  0.4920 -1.5558
 3355TIP3    H231481   2.614   5.870   4.520 -1.7053  0.7361  1.5480
 3356TIP3   OH231482   0.599   2.346  13.216 -0.2628 -0.1215  0.2286
 3356TIP3    H131483   0.576   2.356  13.309  0.8578  1.3523  0.3727
 3356TIP3    H231484   0.650   2.265  13.213 -0.8000 -0.4917  0.7917
 3357TIP3   OH231485   1.145   5.586   2.683 -0.0848 -0.0763  0.2984
 3357TIP3    H131486   1.124   5.493   2.671  0.1282 -0.1390  0.4066
 3357TIP3    H231487   1.063   5.626   2.711 -0.3665 -0.0994 -0.4612
 3358TIP3   OH231488   1.863   4.187   1.307  0.0082  0.0699 -0.1454
 3358TIP3    H131489   1.803   4.204   1.234  2.1434 -0.4865 -2.0820
 3358TIP3    H231490   1.938   4.245   1.291  0.4662  0.0231  1.6741
 3359TIP3   OH231491   2.426   0.369  13.486 -0.4369  0.0555  0.4663
 3359TIP3    H131492   2.376   0.293  13.515 -1.4067  0.7752  0.7365
 3359TIP3    H231493   2.486   0.336  13.420 -0.5639 -1.0118  0.8838
 3360TIP3   OH231494   1.251   4.553   5.723  0.0579 -0.0285  0.8916
 3360TIP3    H131495   1.157   4.569   5.731  0.3577  1.6503  1.4101
 3360TIP3    H231496   1.291   4.633   5.757  1.6833 -1.0562  1.4342
 3361TIP3   OH231497   2.276   3.045   0.700 -0.2114  0.6107 -0.5286
 3361TIP3    H131498   2.215   3.119   0.710  1.7397  2.0085  1.3441
 3361TIP3    H231499   2.361   3.081   0.722  0.9156 -2.0093 -0.4702
 3362TIP3   OH231500   6.159   5.424   4.327  0.9246  0.4863  0.4684
 3362TIP3    H131501   6.156   5.506   4.376  1.5614  2.0394 -1.9516
 3362TIP3    H231502   6.119   5.446   4.243 -0.5113 -2.1834  0.4299
 3363TIP3   OH231503   1.597   6.150   1.863 -0.4191 -0.5496 -0.0999
 3363TIP3    H131504   1.636   6.238   1.867  2.1492 -1.6680  0.5451
 3363TIP3    H231505   1.530   6.150   1.931  0.1779  0.6318  0.5095
 3364TIP3   OH231506   1.495   5.288   3.379  0.1466 -0.3370  0.0886
 3364TIP3    H131507   1.546   5.365   3.403  0.4870 -0.1885 -1.0525
 3364TIP3    H231508   1.462   5.254   3.462 -0.5212  1.3855  0.5482
 3365TIP3   OH231509   5.194   0.823  13.734  0.2061 -0.0566 -0.1557
 3365TIP3    H131510   5.143   0.783  13.664 -1.9872  0.0970  1.3040
 3365TIP3    H231511   5.218   0.909  13.700  0.2701 -0.4823 -1.2042
 3366TIP3   OH231512   4.811   3.194  15.940 -0.1528 -0.0990 -0.2813
 3366TIP3    H131513   4.725   3.218  15.905  1.0389  1.9953 -1.8904
 3366TIP3    H231514   4.843   3.126  15.881  0.7734  1.6480 -1.8632
 3367TIP3   OH231515   1.719   3.050   5.799  0.7725 -0.6328 -0.3677
 3367TIP3    H131516   1.696   3.126   5.852 -1.1663 -1.5754  0.1757
 3367TIP3    H231517   1.678   2.976   5.844  0.3565 -1.6377 -2.3467
 3368TIP3   OH231518   5.124   5.917  13.373  0.2258 -0.6470 -0.0776
 3368TIP3    H131519   5.055   5.881  13.317  0.9960 -0.7940 -0.9381
 3368TIP3    H231520   5.090   5.905  13.462 -0.1130 -2.3104 -0.4077
 3369TIP3   OH231521   4.924   3.899  16.872 -0.1473  0.5435 -0.1680
 3369TIP3    H131522   4.846   3.951  16.889  0.0512  1.3446 -1.5995
 3369TIP3    H231523   4.901   3.811  16.900 -1.1029  1.0403  0.6282
 3370TIP3   OH231524   2.598   3.920   5.584 -0.2186  0.0313 -0.4857
 3370TIP3    H131525   2.615   4.006   5.624 -0.0343 -0.2791  0.1178
 3370TIP3    H231526   2.506   3.923   5.561 -0.4665  0.0231  0.4652
 3371TIP3   OH231527   1.659   4.246  17.067  0.0307  0.3337  0.5847
 3371TIP3    H131528   1.606   4.233  16.988  0.0755 -0.7884  0.7289
 3371TIP3    H231529   1.636   4.333  17.097 -1.0388  0.2229  0.1198
 3372TIP3   OH231530   5.186   6.061   0.241  0.1917  0.1596  0.0531
 3372TIP3    H131531   5.246   6.125   0.203  0.6552 -2.6538 -4.2851
 3372TIP3    H231532   5.099   6.098   0.226  0.5254  0.8350 -0.2322
 3373TIP3   OH231533   4.764   4.119  14.645  0.0559 -0.7847  0.0603
 3373TIP3    H131534   4.815   4.187  14.602 -2.4784  1.4264  0.3855
 3373TIP3    H231535   4.703   4.088  14.578 -1.7152  0.3837  1.0647
 3374TIP3   OH231536   4.512   3.860  15.772  0.5453  0.8562  1.1138
 3374TIP3    H131537   4.445   3.919  15.805  0.4214  0.8482  0.8785
 3374TIP3    H231538   4.592   3.885  15.819  0.8390  2.2090 -0.0721
 3375TIP3   OH231539   0.803   5.819   5.033  0.3785  0.2036  0.0878
 3375TIP3    H131540   0.772   5.894   4.983  1.7781 -0.6076 -2.1035
 3375TIP3    H231541   0.782   5.839   5.124  1.4251  3.5824 -0.3597
 3376TIP3   OH231542   3.017   1.898   3.019  0.0860 -0.4671 -0.0694
 3376TIP3    H131543   2.926   1.886   3.046 -0.2101 -0.8843 -1.2395
 3376TIP3    H231544   3.066   1.835   3.071 -0.3998 -0.8056 -0.0248
 3377TIP3   OH231545   4.241   3.144   4.806 -0.5977 -0.2051 -0.2590
 3377TIP3    H131546   4.310   3.104   4.752 -1.1589 -4.0421  1.7092
 3377TIP3    H231547   4.164   3.144   4.750 -0.4221 -1.2885 -0.5035
 3378TIP3   OH231548   4.768   0.003  14.967  0.6974 -0.0623  0.4514
 3378TIP3    H131549   4.846   0.020  14.915  1.3595  1.9729  2.0648
 3378TIP3    H231550   4.701   0.060  14.929  0.2918 -0.9496 -0.1892
 3379TIP3   OH231551   4.575   2.936  16.002  0.0965 -0.1113  0.2691
 3379TIP3    H131552   4.499   2.891  15.966  0.4389  0.5290 -1.3320
 3379TIP3    H231553   4.650   2.880  15.980 -0.0175 -1.4373  3.0533
 3380TIP3   OH231554   5.403   1.129  11.973  0.2278 -0.2142  0.1101
 3380TIP3    H131555   5.406   1.154  11.880 -1.3136 -1.8201 -0.4154
 3380TIP3    H231556   5.310   1.113  11.989  0.5852 -0.6807  1.7423
 3381TIP3   OH231557   5.925   1.167  16.733  0.5588 -0.1262 -0.0873
 3381TIP3    H131558   5.840   1.170  16.777  1.1071  1.4190  0.9019
 3381TIP3    H231559   5.929   1.079  16.695 -1.1829 -0.4523  0.4318
 3382TIP3   OH231560   6.786   4.247  12.537  0.2164 -0.1192 -0.1416
 3382TIP3    H131561   6.870   4.277  12.502  0.8241 -1.5006  0.1032
 3382TIP3    H231562   6.722   4.271  12.470  0.5469  2.4996  0.4309
 3383TIP3   OH231563   4.010   1.165  16.600  0.0523 -0.2838 -0.0928
 3383TIP3    H131564   4.024   1.168  16.695  1.3278  0.9745 -0.2819
 3383TIP3    H231565   4.048   1.082  16.573 -1.0272 -1.0094  0.5986
 3384TIP3   OH231566   0.756   3.915   6.387  0.4636 -0.0216 -0.0351
 3384TIP3    H131567   0.849   3.917   6.365  0.9527  0.4990  1.9998
 3384TIP3    H231568   0.731   3.823   6.375  0.7321  0.1969 -2.5186
 3385TIP3   OH231569   5.171   5.807   0.146  0.1285  0.1719  0.0096
 3385TIP3    H131570   5.195   5.823   0.054 -0.8537 -1.2603 -0.5070
 3385TIP3    H231571   5.162   5.894   0.184 -2.8102  0.8513 -2.1273
 3386TIP3   OH231572   5.308   3.445   2.203  0.1300 -0.5451  0.1078
 3386TIP3    H131573   5.281   3.389   2.129 -0.8366  0.0745 -0.0133
 3386TIP3    H231574   5.281   3.533   2.178  0.4657 -0.2142  0.8850
 3387TIP3   OH231575   4.863   3.167   6.312  0.3708 -0.1618 -0.1685
 3387TIP3    H131576   4.770   3.180   6.296  0.2569 -1.0631 -0.2350
 3387TIP3    H231577   4.907   3.212   6.240 -0.0518 -1.2034 -1.0830
 3388TIP3   OH231578   4.382   6.598  13.051  0.5438  0.1915 -0.4621
 3388TIP3    H131579   4.369   6.683  13.093  1.2508 -0.2909  0.7553
 3388TIP3    H231580   4.320   6.540  13.095  3.1835 -0.9450  1.8351
 3389TIP3   OH231581   0.052   5.345  16.758  0.1198 -0.0755 -0.1664
 3389TIP3    H131582   0.100   5.332  16.840  0.0895  0.5445 -0.0494
 3389TIP3    H231583   0.117   5.329  16.690  0.8823  2.1490  0.0007
 3390TIP3   OH231584   6.652   5.527  14.344 -0.1064 -0.3722 -0.1417
 3390TIP3    H131585   6.662   5.445  14.392  1.8730 -1.0433 -1.6308
 3390TIP3    H231586   6.618   5.499  14.258 -0.8814  0.5313 -0.1331
 3391TIP3   OH231587   4.201   1.613   3.634 -0.2206 -0.1938  0.1908
 3391TIP3    H131588   4.231   1.693   3.677 -0.3892  0.7130 -1.3482
 3391TIP3    H231589   4.208   1.545   3.701  1.4112  0.8111  1.0531
 3392TIP3   OH231590   0.245   4.509  15.768 -1.3200  0.5143 -0.1649
 3392TIP3    H131591   0.229   4.511  15.674 -0.2926  0.8447 -0.3356
 3392TIP3    H231592   0.195   4.583  15.802 -0.7458  1.1031 -0.5996
 3393TIP3   OH231593   1.215   5.233  13.709 -0.1704 -1.1280 -0.5558
 3393TIP3    H131594   1.128   5.203  13.680 -2.0367  1.2932  2.2508
 3393TIP3    H231595   1.256   5.266  13.629 -2.8474 -0.0519 -1.5428
 3394TIP3   OH231596   1.685   2.557  13.780  0.4468  0.0457 -0.1123
 3394TIP3    H131597   1.713   2.637  13.736 -0.4518  0.4637  0.0630
 3394TIP3    H231598   1.699   2.574  13.873  0.1503  0.0419 -0.0649
 3395TIP3   OH231599   2.156   5.833   6.566 -0.2230  0.6059 -0.8128
 3395TIP3    H131600   2.246   5.802   6.561 -0.6086 -0.8108  0.7758
 3395TIP3    H231601   2.158   5.901   6.633 -0.5421 -0.2268  0.0528
 3396TIP3   OH231602   4.659   0.537  11.985 -0.3204  0.5354  0.2994
 3396TIP3    H131603   4.669   0.633  11.985  0.0113  0.5038  0.7279
 3396TIP3    H231604   4.642   0.515  12.076 -1.0942  0.2496  0.0839
 3397TIP3   OH231605   3.759   4.460  11.690  0.8505 -0.1731 -0.1771
 3397TIP3    H131606   3.675   4.472  11.734  1.5897 -0.0450  1.1981
 3397TIP3    H231607   3.788   4.548  11.668  1.0417 -0.1580  0.1325
 3398TIP3   OH231608   1.430   5.372  12.616  0.0528  0.3363  0.2184
 3398TIP3    H131609   1.362   5.392  12.552 -0.3544  0.1629  0.5894
 3398TIP3    H231610   1.393   5.301  12.669 -0.5414  1.9564  2.0577
 3399TIP3   OH231611   0.993   0.330  17.022 -0.2533 -0.3499 -0.2213
 3399TIP3    H131612   0.907   0.318  17.061 -0.3549 -4.0977 -1.4034
 3399TIP3    H231613   1.051   0.348  17.097 -1.4236 -1.5597  0.9921
 3400TIP3   OH231614   3.889   1.420   0.162  0.1168  0.1776  0.9876
 3400TIP3    H131615   3.948   1.464   0.224 -1.2440  2.8512  0.4708
 3400TIP3    H231616   3.882   1.481   0.088 -1.8809 -0.8929  0.2562
 3401TIP3   OH231617   2.708   2.364   1.177  0.3424  0.7148 -0.6480
 3401TIP3    H131618   2.796   2.390   1.205 -0.2212 -0.1142  2.0538
 3401TIP3    H231619   2.693   2.279   1.219 -1.1364  0.0798 -2.3860
 3402TIP3   OH231620   1.967   5.585  12.197  0.6577 -0.1463 -0.0217
 3402TIP3    H131621   1.871   5.581  12.193  0.6428 -0.1686  0.3146
 3402TIP3    H231622   1.993   5.621  12.112  0.3760 -0.5323 -0.2719
 3403TIP3   OH231623   5.469   3.063  13.561  0.1227 -0.1655  0.0884
 3403TIP3    H131624   5.487   3.117  13.638 -0.4247 -0.3722  0.3617
 3403TIP3    H231625   5.480   3.123  13.487  0.1283  0.1632  0.3566
 3404TIP3   OH231626   5.689   5.652   1.627 -0.2190 -0.7203  0.2219
 3404TIP3    H131627   5.667   5.744   1.613 -1.3711 -1.3690 -2.4181
 3404TIP3    H231628   5.771   5.639   1.579  0.2156 -0.9663  1.0146
 3405TIP3   OH231629   1.325   0.383   3.674 -0.3780  0.0847  0.0833
 3405TIP3    H131630   1.239   0.341   3.677 -0.5327  0.3802 -0.3290
 3405TIP3    H231631   1.310   0.466   3.629  0.0240  0.3684  0.4724
 3406TIP3   OH231632   2.673   5.155   5.818 -0.2518 -0.4129 -0.0027
 3406TIP3    H131633   2.754   5.172   5.867 -1.6304  1.0722  1.8611
 3406TIP3    H231634   2.669   5.060   5.811  1.1099 -0.5532  0.8386
 3407TIP3   OH231635   4.843   2.733   2.678 -0.3313 -0.2005  0.7994
 3407TIP3    H131636   4.911   2.800   2.687 -2.2355  1.7690  0.8358
 3407TIP3    H231637   4.878   2.658   2.726  1.9756  0.6301  0.5041
 3408TIP3   OH231638   4.221   3.642   2.157  0.4451  0.2006 -0.2739
 3408TIP3    H131639   4.270   3.622   2.077  0.4078  1.0223 -0.5061
 3408TIP3    H231640   4.288   3.657   2.223  0.5080  1.2417 -0.5716
 3409TIP3   OH231641   0.825   3.163  11.868  0.0979 -0.1754 -0.6183
 3409TIP3    H131642   0.757   3.227  11.849  0.5143  0.3001 -0.5213
 3409TIP3    H231643   0.781   3.095  11.919 -0.2318  0.2847 -0.2913
 3410TIP3   OH231644   2.201   3.227  11.888  0.0170 -0.1884  0.3602
 3410TIP3    H131645   2.270   3.221  11.954 -0.6513 -0.8224  0.9987
 3410TIP3    H231646   2.125   3.184  11.927 -1.1248  1.5709  0.1543
 3411TIP3   OH231647   2.250   1.439  14.414  0.0364  0.0904  0.2478
 3411TIP3    H131648   2.154   1.437  14.412 -0.0119  1.7468  0.5716
 3411TIP3    H231649   2.272   1.463  14.504  0.7793 -0.9157  0.3437
 3412TIP3   OH231650   2.799   4.116  11.421 -0.4422 -0.9892  0.1997
 3412TIP3    H131651   2.807   4.209  11.445 -0.1545 -0.8900 -0.2641
 3412TIP3    H231652   2.863   4.072  11.477  0.5324 -0.7036 -0.6537
 3413TIP3   OH231653   2.091   1.960   2.179  0.3457 -0.0184  0.5371
 3413TIP3    H131654   2.023   2.010   2.133 -0.1914 -1.5772 -0.4100
 3413TIP3    H231655   2.044   1.886   2.218  1.3038 -0.4216  0.9441
 3414TIP3   OH231656   5.970   3.466  15.291  0.0186 -0.7728 -0.0706
 3414TIP3    H131657   5.978   3.396  15.356  0.1849 -1.1156 -0.4640
 3414TIP3    H231658   6.029   3.440  15.220  0.1923 -0.1624 -0.1513
 3415TIP3   OH231659   0.428   4.410   3.179 -0.1361  0.1073 -0.1475
 3415TIP3    H131660   0.338   4.378   3.168 -1.0457  2.8447 -1.2529
 3415TIP3    H231661   0.482   4.332   3.174 -2.4505 -1.5690  0.2669
 3416TIP3   OH231662   3.160   5.330  11.365 -0.1745 -0.1689 -0.0377
 3416TIP3    H131663   3.166   5.234  11.372  1.6848 -0.0743 -0.1023
 3416TIP3    H231664   3.189   5.348  11.276  1.2221  0.6006  0.5753
 3417TIP3   OH231665   0.350   0.210   0.282  0.0474 -0.1379  0.3049
 3417TIP3    H131666   0.263   0.194   0.319  1.3281 -2.1284  2.5839
 3417TIP3    H231667   0.380   0.290   0.326 -0.3482  0.1468  0.0562
 3418TIP3   OH231668   1.801   4.810   4.972  0.1789  0.3927 -0.6318
 3418TIP3    H131669   1.775   4.902   4.983 -0.3254  0.1133  0.6340
 3418TIP3    H231670   1.896   4.813   4.964  0.5735  0.7346  3.2293
 3419TIP3   OH231671   5.877   3.116   2.146  0.5325 -0.2372  0.1275
 3419TIP3    H131672   5.796   3.078   2.181 -1.4905  2.8903 -0.9372
 3419TIP3    H231673   5.904   3.054   2.078 -1.6237 -0.7432 -0.3113
 3420TIP3   OH231674   1.839   3.537  14.014  0.2715  0.2369  0.5587
 3420TIP3    H131675   1.931   3.560  14.023  0.1239  1.5376 -1.0273
 3420TIP3    H231676   1.796   3.618  13.986 -1.2915 -0.4568  0.8593
 3421TIP3   OH231677   5.051   5.641  15.029 -0.0470  0.0059 -0.4963
 3421TIP3    H131678   5.033   5.674  14.941 -0.1922 -1.7003 -1.1141
 3421TIP3    H231679   5.022   5.550  15.027  2.0986 -0.7207  0.6199
 3422TIP3   OH231680   4.743   0.879  11.915  0.1034  0.4811  0.1103
 3422TIP3    H131681   4.836   0.901  11.916  0.1879  0.1916 -1.2057
 3422TIP3    H231682   4.716   0.891  11.824 -0.3938 -2.5492 -0.2107
 3423TIP3   OH231683   6.460   5.548   1.688  0.4831  0.6667  0.0794
 3423TIP3    H131684   6.412   5.594   1.756 -0.8839  0.7562 -0.9312
 3423TIP3    H231685   6.430   5.457   1.694  1.1292  0.4656  0.2753
 3424TIP3   OH231686   4.883   6.271   3.323 -0.4275 -0.3399  0.2406
 3424TIP3    H131687   4.805   6.267   3.378 -1.9232 -1.2167 -1.8624
 3424TIP3    H231688   4.902   6.364   3.314 -2.0747 -0.0470 -0.3542
 3425TIP3   OH231689   2.300   3.434  10.608  0.3175  0.4191  0.1051
 3425TIP3    H131690   2.308   3.530  10.605 -0.6156  0.4678 -1.0818
 3425TIP3    H231691   2.386   3.404  10.639  0.3497  1.6838  1.2678
 3426TIP3   OH231692   4.627   5.773   4.237 -0.3357  0.3525  0.6115
 3426TIP3    H131693   4.627   5.685   4.199 -0.8355  0.2055  0.9354
 3426TIP3    H231694   4.687   5.767   4.312  0.7558  0.6796 -0.2255
 3427TIP3   OH231695   5.065   5.475  11.568 -0.8208 -0.4389 -0.3482
 3427TIP3    H131696   5.143   5.501  11.617 -0.9568 -0.5423 -0.0776
 3427TIP3    H231697   5.094   5.469  11.477 -0.7601  0.5350 -0.3902
 3428TIP3   OH231698   2.795   1.215  15.969  0.2178  0.3410 -0.2711
 3428TIP3    H131699   2.785   1.307  15.943 -1.5541  0.1896 -0.2032
 3428TIP3    H231700   2.865   1.182  15.912 -1.1316  0.9816 -2.3839
 3429TIP3   OH231701   5.750   3.048  11.509  0.4509 -0.2380 -0.6081
 3429TIP3    H131702   5.730   2.957  11.488  1.1480  0.1123 -2.9055
 3429TIP3    H231703   5.710   3.099  11.439 -0.0613  1.2447  0.7387
 3430TIP3   OH231704   4.561   1.903   1.223 -0.2816 -0.5634  0.2472
 3430TIP3    H131705   4.540   1.992   1.250 -2.9794 -1.3805  1.0541
 3430TIP3    H231706   4.655   1.904   1.205 -0.2880  2.4383  0.1822
 3431TIP3   OH231707   2.018   0.296   0.492  0.4824  0.1716  0.1274
 3431TIP3    H131708   2.051   0.208   0.475 -1.1676  0.1482 -3.3429
 3431TIP3    H231709   1.952   0.283   0.561  0.1871 -1.3535 -0.4117
 3432TIP3   OH231710   3.129   5.999  10.994  0.5533  0.0053  0.2909
 3432TIP3    H131711   3.214   6.042  10.982 -0.0774  1.0407 -0.5233
 3432TIP3    H231712   3.103   5.971  10.906 -0.3111  0.3791  0.4278
 3433TIP3   OH231713   2.601   5.663  13.117 -0.8135  0.0435 -0.0324
 3433TIP3    H131714   2.695   5.650  13.108 -0.8491 -0.2994  0.0828
 3433TIP3    H231715   2.592   5.748  13.159 -0.5381 -0.2028  0.5305
 3434TIP3   OH231716   2.094   1.134   4.547 -0.0262  0.4700 -0.5374
 3434TIP3    H131717   2.119   1.122   4.456 -1.1104  1.8012 -1.0251
 3434TIP3    H231718   2.135   1.217   4.572 -1.2829  1.0489 -0.3792
 3435TIP3   OH231719   5.920   4.065   3.037 -0.2286  0.0382 -0.2863
 3435TIP3    H131720   5.828   4.084   3.059 -0.3765 -0.0474 -0.8388
 3435TIP3    H231721   5.939   4.124   2.964 -0.0860 -0.5255 -0.7006
 3436TIP3   OH231722   4.835   5.478   4.424 -0.2832  0.2202 -0.0835
 3436TIP3    H131723   4.922   5.479   4.464  0.2669 -0.4038 -1.2127
 3436TIP3    H231724   4.835   5.553   4.364  0.1906 -0.8811 -1.4977
 3437TIP3   OH231725   6.636   0.589  11.508 -0.5993 -0.4370  0.9270
 3437TIP3    H131726   6.600   0.670  11.472  0.1941 -0.1227  0.8250
 3437TIP3    H231727   6.574   0.521  11.481  0.3072 -0.3198 -1.6523
 3438TIP3   OH231728   4.241   2.539  13.772  0.6327 -0.3662  0.5258
 3438TIP3    H131729   4.335   2.521  13.780  0.2026 -1.8717  2.5284
 3438TIP3    H231730   4.207   2.529  13.860 -1.5206 -0.4072 -0.2783
 3439TIP3   OH231731   5.476   5.015   5.265 -0.0735  0.3641  0.3997
 3439TIP3    H131732   5.521   5.071   5.202 -1.4390  2.4996  1.2646
 3439TIP3    H231733   5.454   5.073   5.338 -0.9034 -1.4568  1.6470
 3440TIP3   OH231734   0.685   2.253  16.174 -0.0119 -0.2523 -0.1473
 3440TIP3    H131735   0.725   2.331  16.135 -0.2598 -1.1770 -2.3189
 3440TIP3    H231736   0.754   2.188  16.174 -0.3613 -0.6235 -0.1184
 3441TIP3   OH231737   1.391   5.900  11.333 -0.2456 -0.3620 -0.0151
 3441TIP3    H131738   1.341   5.819  11.327  1.0605 -1.1779  0.0170
 3441TIP3    H231739   1.327   5.966  11.360 -1.2941 -1.3909  0.0215
 3442TIP3   OH231740   1.719   4.467  13.721 -0.4465  0.3461 -0.1990
 3442TIP3    H131741   1.631   4.489  13.751  0.3508  1.3944  1.4254
 3442TIP3    H231742   1.741   4.386  13.765 -1.7072 -1.5191 -2.8729
 3443TIP3   OH231743   5.753   3.477   3.428 -0.4321  0.5206  0.0665
 3443TIP3    H131744   5.789   3.477   3.517 -3.6109  1.3209  1.4530
 3443TIP3    H231745   5.793   3.401   3.386  2.8971  1.4358  1.3828
 3444TIP3   OH231746   2.797   6.110  11.141 -0.2064 -0.2837 -1.1493
 3444TIP3    H131747   2.742   6.098  11.064 -0.5042  0.1761 -1.0080
 3444TIP3    H231748   2.740   6.090  11.215 -0.3417  0.7004 -0.9767
 3445TIP3   OH231749   2.345   3.123   0.349  0.3708  0.2489  0.1712
 3445TIP3    H131750   2.269   3.099   0.297  0.5867 -0.8359  0.3341
 3445TIP3    H231751   2.311   3.178   0.420 -0.1611  0.2821 -0.1145
 3446TIP3   OH231752   2.663   5.093   4.071 -0.1384 -0.3867 -0.1907
 3446TIP3    H131753   2.643   5.049   3.988 -1.2764 -1.0252  0.4123
 3446TIP3    H231754   2.637   5.031   4.138  0.7795  0.1359  0.6571
 3447TIP3   OH231755   3.557   3.878  11.903 -0.0471  0.4583 -0.2217
 3447TIP3    H131756   3.553   3.872  11.807 -1.6935 -0.3694 -0.1103
 3447TIP3    H231757   3.487   3.821  11.933 -0.7417  2.1912  1.4592
 3448TIP3   OH231758   4.180   5.146   6.473  0.2532 -0.1705  0.2284
 3448TIP3    H131759   4.227   5.216   6.519  0.8010 -0.8708  0.7449
 3448TIP3    H231760   4.154   5.186   6.389 -1.6837  1.4523  1.5449
 3449TIP3   OH231761   3.083   0.538  13.189  0.7091  0.5482 -0.1023
 3449TIP3    H131762   3.099   0.455  13.234 -1.1869 -0.0037 -0.3841
 3449TIP3    H231763   3.125   0.604  13.243 -1.7581 -0.0721  2.6727
 3450TIP3   OH231764   0.466   4.579   4.560 -0.1210  0.0531 -0.1240
 3450TIP3    H131765   0.557   4.590   4.535 -0.1119 -0.1336 -0.1744
 3450TIP3    H231766   0.467   4.507   4.624 -0.4127 -0.9379 -1.2181
 3451TIP3   OH231767   4.683   0.230   2.451  0.2442  0.1433 -0.9272
 3451TIP3    H131768   4.598   0.224   2.495  1.4349  2.1900  1.7352
 3451TIP3    H231769   4.694   0.323   2.431  1.8902 -0.0887 -1.1844
 3452TIP3   OH231770   0.445   3.977  17.232  0.1304  0.5146  0.0962
 3452TIP3    H131771   0.364   3.934  17.206  1.2832 -0.8522 -1.3046
 3452TIP3    H231772   0.427   4.011  17.320 -1.7038 -0.3826  0.0894
 3453TIP3   OH231773   4.718   2.554   0.253 -0.2592  0.7350 -0.0380
 3453TIP3    H131774   4.655   2.624   0.267  0.3923  1.3083  0.0552
 3453TIP3    H231775   4.672   2.474   0.277 -0.2682  1.3487  2.0410
 3454TIP3   OH231776   3.141   4.192  17.191 -0.1939 -0.6191  0.1507
 3454TIP3    H131777   3.165   4.110  17.233  1.1259 -0.9158 -1.1777
 3454TIP3    H231778   3.151   4.176  17.098  1.9639  1.6163 -0.0568
 3455TIP3   OH231779   5.770   1.034   3.440 -0.1340 -0.4617  0.2992
 3455TIP3    H131780   5.801   0.977   3.510  1.1093 -0.3323 -0.1429
 3455TIP3    H231781   5.711   0.978   3.389  0.4839 -1.1247  0.3095
 3456TIP3   OH231782   1.379   0.271   0.245  0.4717 -0.2201  0.5261
 3456TIP3    H131783   1.329   0.349   0.268  0.9293  0.4609 -0.7625
 3456TIP3    H231784   1.467   0.289   0.276  1.6667  1.6734 -3.6120
 3457TIP3   OH231785   4.293   4.116  11.998 -0.5949  0.0140  0.5608
 3457TIP3    H131786   4.263   4.126  11.908 -1.7538 -0.2501  0.8976
 3457TIP3    H231787   4.291   4.022  12.014 -0.0292  0.0311  0.7428
 3458TIP3   OH231788   5.882   0.452  12.708  0.0778 -0.0328  0.1436
 3458TIP3    H131789   5.956   0.436  12.767 -0.2124  1.0223  0.8197
 3458TIP3    H231790   5.880   0.376  12.650  1.8232  0.0222 -0.0222
 3459TIP3   OH231791   0.073   4.335  13.638 -0.6127  0.7508  0.3106
 3459TIP3    H131792   0.035   4.375  13.716 -0.7467  1.7631 -0.2715
 3459TIP3    H231793   0.000   4.287  13.597 -0.4452 -0.1209  1.0188
 3460TIP3   OH231794   6.261   5.283   5.505 -0.0492  0.1103  0.3437
 3460TIP3    H131795   6.189   5.223   5.522 -1.3484  1.7386  0.7410
 3460TIP3    H231796   6.235   5.331   5.427 -0.0837  1.7401  1.3346
 3461TIP3   OH231797   6.365   2.712  13.244 -0.3352  0.0677  0.2405
 3461TIP3    H131798   6.408   2.657  13.180 -0.8969  1.0752 -1.0361
 3461TIP3    H231799   6.356   2.657  13.322 -0.3732 -1.4431 -0.8067
 3462TIP3   OH231800   6.427   3.163  17.094  0.3978  0.1955  0.1053
 3462TIP3    H131801   6.369   3.202  17.159  1.6169 -0.2112  1.4610
 3462TIP3    H231802   6.400   3.071  17.089 -0.1468  0.3868 -0.4717
 3463TIP3   OH231803   6.118   2.797  11.072  0.1536 -0.0158  0.6436
 3463TIP3    H131804   6.153   2.719  11.032  0.4402 -0.2072  1.2574
 3463TIP3    H231805   6.173   2.812  11.149 -1.3099 -0.5325  1.8271
 3464TIP3   OH231806   2.182   1.008  14.138  0.3720 -0.0270  0.5435
 3464TIP3    H131807   2.095   0.991  14.104  0.7354 -2.5476  0.7570
 3464TIP3    H231808   2.208   1.092  14.099 -1.4926 -0.0450 -0.7643
 3465TIP3   OH231809   0.119   3.971  15.641 -0.3729  0.3955  0.0709
 3465TIP3    H131810   0.098   4.065  15.648  1.0515  0.7268  0.1410
 3465TIP3    H231811   0.049   3.927  15.690 -2.9261  1.1641 -2.7697
 3466TIP3   OH231812   0.900   6.274   4.734  0.3733 -0.4843 -0.6916
 3466TIP3    H131813   0.892   6.363   4.700  0.2967 -0.7684 -1.4414
 3466TIP3    H231814   0.924   6.222   4.658 -0.0044 -1.1723 -0.3428
 3467TIP3   OH231815   5.325   0.451  10.396  0.2945 -0.0684  0.0132
 3467TIP3    H131816   5.335   0.391  10.470  0.7949 -0.4765 -0.3875
 3467TIP3    H231817   5.270   0.403  10.334  1.2620 -0.3893 -0.6050
 3468TIP3   OH231818   3.396   4.173  11.500 -0.1420  0.2337 -0.3229
 3468TIP3    H131819   3.337   4.120  11.554  0.8531 -0.7574 -0.1913
 3468TIP3    H231820   3.417   4.116  11.425 -0.1780  0.9668 -0.8955
 3469TIP3   OH231821   3.750   1.510  15.997  0.2779 -0.2205 -0.3659
 3469TIP3    H131822   3.756   1.603  16.020  0.4947 -0.6051  1.1557
 3469TIP3    H231823   3.818   1.468  16.049  0.4660 -1.1888 -1.3724
 3470TIP3   OH231824   4.761   6.391  13.897 -0.3570 -0.6038 -0.1067
 3470TIP3    H131825   4.741   6.418  13.807 -0.0426  0.8720  0.2640
 3470TIP3    H231826   4.689   6.332  13.920 -0.1182 -1.4909 -1.5345
 3471TIP3   OH231827   4.195   1.300   1.083  0.2008  0.0423  0.1578
 3471TIP3    H131828   4.227   1.382   1.046 -0.0720  0.2767  0.4432
 3471TIP3    H231829   4.100   1.312   1.090  0.4472  0.7429  2.7698
 3472TIP3   OH231830   2.747   5.878  15.955  0.7128 -0.3243 -0.5290
 3472TIP3    H131831   2.678   5.879  15.889  2.1106  1.7064 -2.0222
 3472TIP3    H231832   2.734   5.795  16.003 -3.9200  0.8833  0.5578
 3473TIP3   OH231833   2.561   5.874  14.759 -0.3496 -0.5036  0.0985
 3473TIP3    H131834   2.510   5.797  14.784 -3.1583  2.1026  2.7715
 3473TIP3    H231835   2.525   5.901  14.675 -1.7053 -0.1189  0.7972
 3474TIP3   OH231836   2.459   1.405   1.555  0.1359 -0.4549  0.3215
 3474TIP3    H131837   2.552   1.397   1.534  0.2078  2.5411 -0.8347
 3474TIP3    H231838   2.421   1.320   1.532  2.7838 -2.1749  2.0815
 3475TIP3   OH231839   3.864   4.929   2.787  0.1045 -0.6478  0.6282
 3475TIP3    H131840   3.871   4.841   2.825  1.8167 -1.4991 -1.5776
 3475TIP3    H231841   3.793   4.922   2.724 -0.6582 -0.0670  1.4131
 3476TIP3   OH231842   2.840   0.756  14.027 -0.1939 -0.1305 -0.2589
 3476TIP3    H131843   2.801   0.819  13.965  2.5106  0.8645 -1.0193
 3476TIP3    H231844   2.797   0.673  14.007 -1.6522  0.8375 -1.2880
 3477TIP3   OH231845   4.883   2.106  15.795 -0.2948  0.2047 -0.0849
 3477TIP3    H131846   4.843   2.149  15.719 -1.2891 -1.5093 -0.5365
 3477TIP3    H231847   4.817   2.111  15.863  0.3637  1.1833  0.4985
 3478TIP3   OH231848   2.580   0.022   5.526 -0.3932 -0.3654 -0.4797
 3478TIP3    H131849   2.627   0.009   5.444 -2.1898 -1.0115 -1.4462
 3478TIP3    H231850   2.556  -0.066   5.554 -0.9786 -0.0494  0.0261
 3479TIP3   OH231851   0.262   6.050   2.677 -0.5104  0.1792 -1.0278
 3479TIP3    H131852   0.227   6.131   2.640 -0.1212  0.9472  0.2448
 3479TIP3    H231853   0.308   6.078   2.756 -0.9089 -1.3537 -0.2385
 3480TIP3   OH231854   5.075   5.335   0.061  0.0745  0.2074  0.0260
 3480TIP3    H131855   5.085   5.248   0.023  0.6893 -0.7031  2.2117
 3480TIP3    H231856   4.983   5.356   0.048 -0.0880 -0.7749 -0.4696
 3481TIP3   OH231857   1.303   1.109   1.309  0.2690  0.2829  0.0529
 3481TIP3    H131858   1.253   1.076   1.383  0.2995 -0.0047 -0.0547
 3481TIP3    H231859   1.251   1.085   1.232  1.0309 -0.8451 -0.1175
 3482TIP3   OH231860   4.690   4.644  16.026  0.2248 -0.8087 -0.1180
 3482TIP3    H131861   4.753   4.687  16.083  0.3300 -0.5253 -0.4486
 3482TIP3    H231862   4.606   4.684  16.048  0.3733 -0.2032 -0.6584
 3483TIP3   OH231863   0.232   2.001  16.685  0.1478 -0.2613 -0.0974
 3483TIP3    H131864   0.260   2.064  16.752 -3.3658 -1.6337  2.8168
 3483TIP3    H231865   0.284   1.923  16.702 -0.4678 -0.4779  0.8161
 3484TIP3   OH231866   4.883   5.383  15.887  0.1183 -0.8213 -0.2951
 3484TIP3    H131867   4.814   5.427  15.839  0.4384  0.0017 -0.0089
 3484TIP3    H231868   4.912   5.313  15.829  1.0469  0.6462 -1.6394
 3485TIP3   OH231869   3.937   3.789   6.590  0.1152  0.1467  0.1782
 3485TIP3    H131870   3.908   3.748   6.671  1.0900 -0.3475  0.2863
 3485TIP3    H231871   3.860   3.791   6.534 -0.1206 -1.1200  0.4630
 3486TIP3   OH231872   4.472   2.662   1.396 -0.0382 -0.5035 -0.3967
 3486TIP3    H131873   4.448   2.750   1.367 -2.6147 -0.7723  0.7639
 3486TIP3    H231874   4.539   2.676   1.463 -0.5825  0.6095 -0.0714
 3487TIP3   OH231875   6.133   2.133   0.003 -0.7809  0.3538  0.0551
 3487TIP3    H131876   6.144   2.212   0.056  0.2550  0.4217 -0.2459
 3487TIP3    H231877   6.190   2.146  -0.073 -0.4527 -0.7490  0.0936
 3488TIP3   OH231878   6.085   3.587  11.422 -0.3257  0.0430  0.0541
 3488TIP3    H131879   6.170   3.620  11.451 -1.0256  0.3455  1.8208
 3488TIP3    H231880   6.053   3.653  11.361 -0.9558  1.8647  2.2660
 3489TIP3   OH231881   5.470   2.701  14.809 -0.3185  0.5235  0.0442
 3489TIP3    H131882   5.510   2.672  14.727  0.8356  0.1774  0.7074
 3489TIP3    H231883   5.459   2.796  14.799  1.9685  0.8628  0.3433
 3490TIP3   OH231884   0.444   5.718  17.057  0.0278  0.1764  0.0907
 3490TIP3    H131885   0.425   5.719  16.963  1.3681  1.6063 -0.2010
 3490TIP3    H231886   0.537   5.696  17.062  0.0200  0.3385  1.0659
 3491TIP3   OH231887   3.297   4.618   4.059  0.3092  0.2157  0.3224
 3491TIP3    H131888   3.326   4.543   4.111  0.9813 -0.2146 -0.6465
 3491TIP3    H231889   3.217   4.587   4.016 -0.3884  0.6568  1.2722
 3492TIP3   OH231890   1.408   5.484  16.584 -0.7591  0.5535  0.1614
 3492TIP3    H131891   1.410   5.570  16.541 -1.9030  1.0367  1.0328
 3492TIP3    H231892   1.500   5.460  16.594 -0.4457  0.8744 -1.6399
 3493TIP3   OH231893   5.507   5.959  15.729  0.3573 -0.3715 -1.0692
 3493TIP3    H131894   5.491   5.941  15.636  0.0401 -0.9509 -0.9039
 3493TIP3    H231895   5.601   5.948  15.740  0.1268 -2.3064 -0.8970
 3494TIP3   OH231896   0.519   2.485   3.416  0.6355  0.2586  0.1455
 3494TIP3    H131897   0.448   2.528   3.368 -0.2132 -1.8498 -0.5530
 3494TIP3    H231898   0.548   2.551   3.480 -0.6749  1.8082 -0.8039
 3495TIP3   OH231899   5.688   1.803   4.657  0.1752 -0.1117  0.0152
 3495TIP3    H131900   5.770   1.760   4.682 -0.6330 -0.6779  1.8462
 3495TIP3    H231901   5.647   1.742   4.595  0.7190 -0.2555 -0.2071
 3496TIP3   OH231902   1.128   4.898  14.316 -0.2314 -0.0524  0.4816
 3496TIP3    H131903   1.143   4.941  14.400  3.3667  0.2222 -0.2204
 3496TIP3    H231904   1.057   4.948  14.275  0.0111  1.6501  2.0919
 3497TIP3   OH231905   6.446   2.250   0.091  0.2861 -0.1343 -0.4475
 3497TIP3    H131906   6.473   2.173   0.040  1.0842  0.4414 -0.9028
 3497TIP3    H231907   6.458   2.324   0.030  3.0200  0.8003  1.1646
 3498TIP3   OH231908   5.730   4.634   2.368  0.1341 -0.0568  0.4187
 3498TIP3    H131909   5.748   4.554   2.319  0.2470  0.4400 -0.3664
 3498TIP3    H231910   5.718   4.701   2.300  2.7762  1.1737  1.0693
 3499TIP3   OH231911   4.138   5.859  16.415  0.2942  0.1614  0.2436
 3499TIP3    H131912   4.111   5.826  16.501  2.4518  0.6507  1.1405
 3499TIP3    H231913   4.233   5.873  16.423  0.4115  0.8919 -1.9986
 3500TIP3   OH231914   2.843   0.087   2.147 -0.2182  0.3129 -0.8978
 3500TIP3    H131915   2.789   0.017   2.110  1.1082 -0.9212 -0.5943
 3500TIP3    H231916   2.928   0.077   2.104  0.9761 -0.3557  1.4696
 3501TIP3   OH231917   6.088   0.418  10.327  0.1367  0.0132  0.2692
 3501TIP3    H131918   6.168   0.366  10.326 -0.7670 -1.4527  1.5398
 3501TIP3    H231919   6.081   0.449  10.417 -0.1219  1.1006 -0.1201
 3502TIP3   OH231920   5.631   5.560   2.393  0.0270  0.3944 -0.5249
 3502TIP3    H131921   5.551   5.563   2.341 -0.5149  1.6066  0.3570
 3502TIP3    H231922   5.600   5.553   2.484  0.9264  0.4710 -0.2054
 3503TIP3   OH231923   6.554   4.389  14.284  0.0947  0.0345  0.4752
 3503TIP3    H131924   6.540   4.309  14.336 -0.3813  0.0198  0.3277
 3503TIP3    H231925   6.628   4.432  14.326 -0.6478  0.3095  1.5270
 3504TIP3   OH231926   3.944   5.406  15.020  0.7281  0.1747 -0.1899
 3504TIP3    H131927   3.936   5.320  14.980 -0.4213  0.5040 -0.7093
 3504TIP3    H231928   3.932   5.390  15.114 -0.1137 -0.1540 -0.3495
 3505TIP3   OH231929   4.806   3.489  15.782 -0.1583 -0.4388 -0.5322
 3505TIP3    H131930   4.871   3.424  15.753  0.1569 -0.6005  0.5356
 3505TIP3    H231931   4.857   3.554  15.831 -0.8820 -0.8773  0.8235
 3506TIP3   OH231932   2.761   4.762  12.935  0.0798  0.1996 -0.7343
 3506TIP3    H131933   2.810   4.688  12.969 -1.2446 -0.4134 -0.1417
 3506TIP3    H231934   2.700   4.785  13.005  2.1374  3.4306  0.0885
 3507TIP3   OH231935   2.775   2.602  12.520  0.1160 -0.2529  0.3947
 3507TIP3    H131936   2.733   2.567  12.441 -0.1300 -1.0217  0.8614
 3507TIP3    H231937   2.860   2.634  12.489 -1.1265  2.1076 -0.7139
 3508TIP3   OH231938   0.065   2.245   2.776 -0.1949  0.0910 -0.2656
 3508TIP3    H131939   0.067   2.319   2.836 -0.9821  1.3482 -1.7525
 3508TIP3    H231940  -0.024   2.243   2.742 -0.3689 -1.9614  0.2344
 3509TIP3   OH231941   5.097   0.581   2.959  0.0452 -0.5909  0.0462
 3509TIP3    H131942   5.068   0.504   3.009 -3.6237  0.3992 -0.4242
 3509TIP3    H231943   5.082   0.557   2.868 -1.1413  0.6522 -0.1011
 3510TIP3   OH231944   5.256   1.819   2.485  0.3132  0.9443 -0.6764
 3510TIP3    H131945   5.309   1.850   2.411  1.2013  0.4765 -0.2456
 3510TIP3    H231946   5.259   1.890   2.549  2.1560  0.0978  0.2139
 3511TIP3   OH231947   3.421   3.587   3.562 -0.0216  0.0840  1.3858
 3511TIP3    H131948   3.418   3.508   3.617 -1.1360  1.0667  2.7529
 3511TIP3    H231949   3.337   3.630   3.577  0.3872  1.2883  0.2623
 3512TIP3   OH231950   1.512   5.082  10.957 -0.5526  0.0756 -0.3307
 3512TIP3    H131951   1.562   5.148  11.005 -0.9966  0.8009 -0.8779
 3512TIP3    H231952   1.552   4.999  10.984 -0.6456  0.4820  1.1346
 3513TIP3   OH231953   0.297   2.977   0.220 -0.2087  0.0696 -0.0321
 3513TIP3    H131954   0.331   3.064   0.199  1.8550 -0.9994 -1.3198
 3513TIP3    H231955   0.211   2.993   0.260  0.0139  2.6563 -0.5283
 3514TIP3   OH231956   0.308   2.040  12.539 -0.5968  0.4394 -0.4116
 3514TIP3    H131957   0.369   2.091  12.488 -2.2987  1.8827 -1.0693
 3514TIP3    H231958   0.261   2.104  12.592 -3.2107 -0.3294 -1.7041
 3515TIP3   OH231959   5.781   6.608  14.665  0.7219 -0.2392 -0.7062
 3515TIP3    H131960   5.863   6.639  14.703  0.8266 -0.6846 -0.5702
 3515TIP3    H231961   5.806   6.571  14.580  0.6987 -0.6049 -0.5539
 3516TIP3   OH231962   4.570   2.331   1.561  0.1842  0.2200  0.0286
 3516TIP3    H131963   4.499   2.395   1.560  0.5350  0.5939 -1.2347
 3516TIP3    H231964   4.646   2.380   1.593  0.0489 -0.0079  0.7135
 3517TIP3   OH231965   4.974   4.738   4.826  0.5846 -0.3362 -0.0881
 3517TIP3    H131966   5.024   4.705   4.901  1.0873 -0.2341 -0.3800
 3517TIP3    H231967   5.020   4.704   4.749 -0.6415 -1.4920 -0.3422
 3518TIP3   OH231968   1.384   6.235   1.192  0.1348 -0.1418 -0.0854
 3518TIP3    H131969   1.393   6.170   1.262 -0.0140  0.5624  0.5940
 3518TIP3    H231970   1.325   6.301   1.228 -0.5586 -0.1582 -1.1639
 3519TIP3   OH231971   2.843   0.117   1.326  0.1126 -0.2114 -0.3538
 3519TIP3    H131972   2.764   0.155   1.286  0.0055  0.0531  0.1032
 3519TIP3    H231973   2.810   0.044   1.379  0.1780 -0.1370 -0.2090
 3520TIP3   OH231974   3.355   3.486  13.700  0.6237 -0.3981  0.4085
 3520TIP3    H131975   3.321   3.529  13.621  1.0536 -3.1245 -1.3271
 3520TIP3    H231976   3.278   3.473  13.755  0.2344  1.0917  0.2344
 3521TIP3   OH231977   4.683   0.957  11.654 -0.2018  0.4149  0.0113
 3521TIP3    H131978   4.668   1.045  11.691 -0.5443 -0.0579  1.0444
 3521TIP3    H231979   4.595   0.928  11.628 -0.5160 -0.6296  2.0598
 3522TIP3   OH231980   3.928   0.179   1.113 -0.2966  0.6397  0.2384
 3522TIP3    H131981   3.937   0.270   1.084 -0.2035  0.0336 -1.6844
 3522TIP3    H231982   4.015   0.141   1.101 -0.6539 -0.0585 -0.1773
 3523TIP3   OH231983   2.627   2.868   0.893 -0.1116 -0.6453 -0.0079
 3523TIP3    H131984   2.639   2.808   0.819  0.0408 -0.2594 -0.3000
 3523TIP3    H231985   2.568   2.822   0.953 -1.6874 -0.2583 -1.2044
 3524TIP3   OH231986   4.379   2.050   2.597  0.1150 -0.3920  0.5466
 3524TIP3    H131987   4.358   2.140   2.572  0.1713 -0.7791 -0.9079
 3524TIP3    H231988   4.432   2.016   2.525  0.2664 -1.5283  1.1787
 3525TIP3   OH231989   4.499   6.155   2.034 -0.1948 -0.3465 -0.0187
 3525TIP3    H131990   4.568   6.149   1.969  1.9397 -1.1476  2.2483
 3525TIP3    H231991   4.423   6.187   1.986  1.3199 -0.9128 -2.8671
 3526TIP3   OH231992   5.639   3.658   5.029 -0.4403  0.6449  0.3641
 3526TIP3    H131993   5.657   3.586   5.091  0.6642  0.9777  0.4306
 3526TIP3    H231994   5.710   3.720   5.044 -0.7228  1.1832 -0.5623
 3527TIP3   OH231995   0.535   4.098   2.590  0.0685  0.4667  0.2486
 3527TIP3    H131996   0.585   4.125   2.666  0.6849  1.1571 -0.3885
 3527TIP3    H231997   0.553   4.005   2.580  0.6070  0.5478  0.4834
 3528TIP3   OH231998   5.809   4.745  14.621  0.2012 -0.1410  0.2736
 3528TIP3    H131999   5.784   4.832  14.590 -0.6956 -0.3931  0.2909
 3528TIP3    H232000   5.884   4.721  14.566 -0.9362 -0.2874 -1.2283
 3529TIP3   OH232001   2.130   2.481   6.112 -0.6437  0.2419  0.3629
 3529TIP3    H132002   2.092   2.555   6.065 -1.5319 -0.3775  0.1014
 3529TIP3    H232003   2.224   2.492   6.101 -0.7953  0.8906 -0.3509
 3530TIP3   OH232004   3.108   0.653  14.713  0.5473  0.4533 -0.0639
 3530TIP3    H132005   3.072   0.700  14.638  1.1919  0.0067 -0.6589
 3530TIP3    H232006   3.069   0.697  14.789  0.1896  1.1574 -0.6406
 3531TIP3   OH232007   3.841   3.017  17.059  0.0666  0.5160 -0.1861
 3531TIP3    H132008   3.928   2.992  17.090 -0.7445  0.2421  1.8953
 3531TIP3    H232009   3.787   2.940  17.074 -0.7746  1.0144 -0.5978
 3532TIP3   OH232010   6.604   1.940  12.917  0.1118 -0.4403 -0.1231
 3532TIP3    H132011   6.609   2.000  12.992 -0.4822  0.0594 -0.4815
 3532TIP3    H232012   6.655   1.984  12.848 -1.6761  0.4375 -0.9119
 3533TIP3   OH232013   2.885   5.952   3.939 -0.1382  0.4048 -0.0820
 3533TIP3    H132014   2.859   6.020   3.877  0.9105  0.7094 -0.1929
 3533TIP3    H232015   2.894   5.998   4.023 -1.6670 -0.0273  0.3329
 3534TIP3   OH232016   5.381   5.752  12.660 -0.0068  0.5781 -0.2570
 3534TIP3    H132017   5.314   5.704  12.709  0.4794 -1.4822 -1.5361
 3534TIP3    H232018   5.460   5.744  12.713  0.1214 -0.2407 -0.5617
 3535TIP3   OH232019   3.534   3.396  12.022  0.2863  0.3853 -0.4914
 3535TIP3    H132020   3.535   3.455  11.947  0.3701  0.9585 -0.0400
 3535TIP3    H232021   3.601   3.331  12.002  1.2815  1.3334 -0.2792
 3536TIP3   OH232022   3.165   6.284   2.090 -0.5955 -1.0036 -0.4290
 3536TIP3    H132023   3.259   6.297   2.083 -0.5705 -0.7708  0.2781
 3536TIP3    H232024   3.153   6.239   2.173 -1.2079  0.1895  0.1493
 3537TIP3   OH232025   5.811   4.771  16.082 -0.4147  0.8910 -0.1109
 3537TIP3    H132026   5.756   4.783  16.004 -1.3475  0.9349  0.5587
 3537TIP3    H232027   5.867   4.696  16.059  0.3887  1.8670 -1.4163
 3538TIP3   OH232028   1.912   1.181  13.191  0.1315 -0.1036 -0.1803
 3538TIP3    H132029   1.916   1.141  13.104 -0.3144  2.1328 -1.2513
 3538TIP3    H232030   1.891   1.273  13.175  1.5096  0.6836  2.2130
 3539TIP3   OH232031   0.372   3.484  15.814 -0.2578 -0.1122  0.2438
 3539TIP3    H132032   0.377   3.392  15.840  0.0293 -0.0071  0.5720
 3539TIP3    H232033   0.291   3.516  15.853 -0.8177 -0.4589 -0.6313
 3540TIP3   OH232034   5.823   0.832   2.600  0.3042 -0.1788  0.2549
 3540TIP3    H132035   5.779   0.777   2.665 -0.8051 -0.6497 -0.8602
 3540TIP3    H232036   5.877   0.770   2.550  2.1246  0.3697  1.4975
 3541TIP3   OH232037   1.125   0.705   5.767  0.4525 -0.5226 -0.0590
 3541TIP3    H132038   1.220   0.711   5.765  0.3376  0.8432 -2.4958
 3541TIP3    H232039   1.095   0.761   5.695 -2.3421  2.0000  2.8824
 3542TIP3   OH232040   5.957   3.186  13.112  0.1924  0.3077  0.0227
 3542TIP3    H132041   5.900   3.109  13.108  1.7810 -1.0279  2.1353
 3542TIP3    H232042   5.925   3.243  13.041 -2.7189 -1.0729  0.1469
 3543TIP3   OH232043   1.825   3.712  15.983 -0.2276  0.2806 -0.2143
 3543TIP3    H132044   1.743   3.746  15.946 -0.9668  0.0105  1.1524
 3543TIP3    H232045   1.833   3.754  16.068  0.5545 -0.4412  0.0842
 3544TIP3   OH232046   3.842   0.066   2.287 -0.1086 -0.3265 -0.1681
 3544TIP3    H132047   3.890   0.069   2.370  1.1541 -0.1112 -0.8875
 3544TIP3    H232048   3.846  -0.025   2.259 -0.0568 -0.3015 -0.2462
 3545TIP3   OH232049   0.504   0.429  12.078  0.0228 -0.0873 -0.6848
 3545TIP3    H132050   0.561   0.502  12.102 -1.4752  0.6371  0.8151
 3545TIP3    H232051   0.546   0.389  12.002  1.5609  1.5285 -0.7129
 3546TIP3   OH232052   2.414   1.931   4.088  0.0340 -0.0726 -0.1565
 3546TIP3    H132053   2.505   1.959   4.100 -0.1081  0.6983 -0.9083
 3546TIP3    H232054   2.398   1.872   4.162  0.0822  2.3869  1.9009
 3547TIP3   OH232055   4.413   0.273   1.652 -0.0265  0.4046  0.0264
 3547TIP3    H132056   4.385   0.284   1.561 -0.3936 -0.2827  0.0541
 3547TIP3    H232057   4.412   0.178   1.667  0.4131  0.4858  0.6290
 3548TIP3   OH232058   4.901   0.931  13.968 -0.2284 -0.1412 -0.1919
 3548TIP3    H132059   4.868   1.002  13.914  1.9702 -0.3513 -1.8816
 3548TIP3    H232060   4.975   0.969  14.016  0.0716 -0.8990 -0.0439
 3549TIP3   OH232061   3.195   0.472   2.563 -0.3427 -0.3616 -0.1219
 3549TIP3    H132062   3.118   0.509   2.607  0.8860  0.7798  1.1107
 3549TIP3    H232063   3.269   0.523   2.597  1.1898 -2.7562  0.2657
 3550TIP3   OH232064   5.433   6.749  13.535  0.2342 -0.2592 -0.0463
 3550TIP3    H132065   5.377   6.731  13.610 -0.2708 -1.0271 -0.6085
 3550TIP3    H232066   5.513   6.700  13.553  0.0381 -0.5992 -0.1067
 3551TIP3   OH232067   4.762   3.956  15.923 -0.2787 -0.1843  0.2411
 3551TIP3    H132068   4.780   4.049  15.915  1.2812 -0.4182  0.8886
 3551TIP3    H232069   4.792   3.933  16.011 -0.9838 -1.2313  0.2290
 3552TIP3   OH232070   3.102   3.965   3.426  0.2005 -0.0809 -0.2443
 3552TIP3    H132071   3.198   3.969   3.432  0.3521 -1.4281 -1.6651
 3552TIP3    H232072   3.074   3.939   3.514  1.0364  1.6604  0.5649
 3553TIP3   OH232073   4.136   3.162  12.206 -0.1926  0.6383 -0.0095
 3553TIP3    H132074   4.061   3.195  12.255  0.3297  0.6182  0.8071
 3553TIP3    H232075   4.166   3.086  12.256 -1.1494 -0.8745 -1.6687
 3554TIP3   OH232076   2.827   1.918  16.514  0.4447  0.6179 -0.1438
 3554TIP3    H132077   2.884   1.842  16.526 -0.2722  0.1158  0.1221
 3554TIP3    H232078   2.820   1.956  16.601 -1.8309 -0.9176  0.3734
 3555TIP3   OH232079   1.897   5.833  12.354  0.2738  0.0078  0.2441
 3555TIP3    H132080   1.975   5.783  12.376 -0.0670 -0.8189 -0.4099
 3555TIP3    H232081   1.841   5.771  12.307 -0.8664  0.5327  0.8806
 3556TIP3   OH232082   1.256   2.778  12.740 -0.3082 -0.0517  0.1041
 3556TIP3    H132083   1.297   2.856  12.702  0.9532 -0.7195  0.0483
 3556TIP3    H232084   1.318   2.707  12.720 -0.5452 -0.7403  1.7417
 3557TIP3   OH232085   4.428   1.405  17.209  0.3416 -0.3700 -0.3006
 3557TIP3    H132086   4.383   1.412  17.294 -1.8609 -0.7367 -1.4109
 3557TIP3    H232087   4.519   1.429  17.229 -0.3529  0.5828  1.9686
 3558TIP3   OH232088   0.965   6.470   1.567 -0.0084  0.0068 -0.2501
 3558TIP3    H132089   1.019   6.546   1.547 -2.1343  2.0629  1.5971
 3558TIP3    H232090   1.014   6.423   1.635  1.3531 -0.4135 -1.4726
 3559TIP3   OH232091   3.048   5.980  15.890 -0.2652 -0.3363 -0.5580
 3559TIP3    H132092   3.121   5.946  15.941 -1.2354  0.2945  1.2920
 3559TIP3    H232093   2.974   5.924  15.914 -0.7580  0.0252 -1.2075
 3560TIP3   OH232094   4.957   3.178  11.009  0.0099 -0.3436  0.8518
 3560TIP3    H132095   4.956   3.083  11.021  0.4199 -0.7146 -1.7332
 3560TIP3    H232096   4.885   3.195  10.949  1.1967  0.7357 -0.2842
 3561TIP3   OH232097   1.065   0.414  15.523  0.5181  0.0795 -0.0732
 3561TIP3    H132098   1.044   0.438  15.613  0.5366  0.4191 -0.1631
 3561TIP3    H232099   1.129   0.478  15.494 -0.5237  0.8195 -0.7982
 3562TIP3   OH232100   3.019   0.143   2.379 -0.6593 -0.3119  0.1098
 3562TIP3    H132101   2.973   0.225   2.362  1.1768  0.5240 -0.9653
 3562TIP3    H232102   2.981   0.081   2.317  0.0145  0.5028 -1.1385
 3563TIP3   OH232103   3.148   6.346  14.381 -0.4886 -0.3887  0.0935
 3563TIP3    H132104   3.198   6.273  14.344  0.3133  0.8980 -1.3862
 3563TIP3    H232105   3.058   6.312  14.388  0.0013 -1.7250  0.0033
 3564TIP3   OH232106   5.590   1.400   6.186 -0.2839 -0.3741 -0.0247
 3564TIP3    H132107   5.564   1.362   6.101 -3.4877  1.1838  0.1741
 3564TIP3    H232108   5.598   1.325   6.244  0.9417 -1.3783 -1.4365
 3565TIP3   OH232109   0.923   4.953   0.575 -0.4642 -0.0726  0.4279
 3565TIP3    H132110   0.961   5.038   0.599  2.3201 -1.2038  0.1386
 3565TIP3    H232111   0.845   4.945   0.632 -0.4542  2.4015  0.8466
 3566TIP3   OH232112   6.382   4.835   6.653 -0.0496 -0.2025 -0.4365
 3566TIP3    H132113   6.287   4.850   6.649  0.1674  1.1992 -0.7064
 3566TIP3    H232114   6.418   4.920   6.678  1.2445 -0.3975 -1.5966
 3567TIP3   OH232115   1.603   3.783   0.511  0.4534 -0.7605 -0.0737
 3567TIP3    H132116   1.685   3.806   0.467  0.6971  1.2594  1.4033
 3567TIP3    H232117   1.535   3.822   0.456  0.6264 -0.1112  0.1789
 3568TIP3   OH232118   3.504   1.422   6.106  0.5898  0.2027 -0.0391
 3568TIP3    H132119   3.451   1.353   6.065 -2.1128  0.5346  2.7034
 3568TIP3    H232120   3.589   1.381   6.120 -0.0392 -1.5821 -1.2253
 3569TIP3   OH232121   3.415   0.646  10.864  0.6760  0.0403 -0.3028
 3569TIP3    H132122   3.453   0.733  10.857  4.0257 -1.2925  0.4351
 3569TIP3    H232123   3.404   0.617  10.773  0.7404  0.7244 -0.5288
 3570TIP3   OH232124   6.197   3.681   0.046 -0.1323  0.2349  0.0575
 3570TIP3    H132125   6.121   3.633   0.079 -0.2332 -0.8868 -1.7036
 3570TIP3    H232126   6.272   3.630   0.075 -0.2726 -1.5843 -2.6149
 3571TIP3   OH232127   5.645   0.584  16.184 -0.2135  0.5372 -0.2860
 3571TIP3    H132128   5.706   0.649  16.219 -0.7990  1.0525 -0.2036
 3571TIP3    H232129   5.700   0.510  16.160  0.3008  0.4844  0.9967
 3572TIP3   OH232130   4.826   5.218   1.151 -0.5969 -0.4520 -0.2108
 3572TIP3    H132131   4.757   5.268   1.195 -1.4931 -1.3415 -0.5975
 3572TIP3    H232132   4.788   5.131   1.137  0.1568 -0.5851 -1.5446
 3573TIP3   OH232133   5.686   3.079  15.903  0.3436  0.4048  0.4510
 3573TIP3    H132134   5.747   3.065  15.976 -0.3406  0.0535  0.9701
 3573TIP3    H232135   5.723   3.151  15.854  2.1431 -0.9916 -0.2841
 3574TIP3   OH232136   0.756   1.586  12.888 -0.5472  0.0283 -0.3075
 3574TIP3    H132137   0.794   1.593  12.800 -0.3649  1.8431 -0.1102
 3574TIP3    H232138   0.816   1.530  12.936  1.3392  1.9570 -0.3153
 3575TIP3   OH232139   5.847   0.709   1.771 -0.3030  0.3058  0.3150
 3575TIP3    H132140   5.810   0.790   1.806 -0.0708  0.1385  0.9511
 3575TIP3    H232141   5.929   0.736   1.730 -0.8272  0.5836 -0.5711
 3576TIP3   OH232142   0.644   6.427   2.711 -0.5556 -0.4845 -0.3617
 3576TIP3    H132143   0.624   6.421   2.617 -2.1013  0.1098 -0.0862
 3576TIP3    H232144   0.738   6.444   2.715 -0.3472 -1.2331 -1.7798
 3577TIP3   OH232145   0.971   4.298   6.492  0.3606  0.3663 -0.1062
 3577TIP3    H132146   1.039   4.231   6.489 -0.2244 -0.2340 -0.1972
 3577TIP3    H232147   0.999   4.364   6.429  1.3167  0.5707  0.5181
 3578TIP3   OH232148   3.909   3.446  14.515  0.2492  0.3280  0.6223
 3578TIP3    H132149   3.951   3.532  14.517  2.6316 -0.8094 -0.2219
 3578TIP3    H232150   3.839   3.456  14.450  3.2863  0.3956 -2.7703
 3579TIP3   OH232151   5.288   3.764   1.631 -0.2453 -0.1349 -0.1968
 3579TIP3    H132152   5.347   3.700   1.592 -1.1065 -1.0744  0.0176
 3579TIP3    H232153   5.241   3.801   1.556 -0.2398 -0.2503 -0.2572
 3580TIP3   OH232154   2.487   0.470   5.838 -0.0893  0.9103 -0.3528
 3580TIP3    H132155   2.438   0.510   5.767 -1.6962 -0.3025  0.0443
 3580TIP3    H232156   2.469   0.376   5.830  1.1264  0.5818  0.5875
 3581TIP3   OH232157   4.370   4.092   6.448  0.0278  0.1021 -0.6600
 3581TIP3    H132158   4.463   4.096   6.469  0.0616 -2.4611 -0.1561
 3581TIP3    H232159   4.330   4.049   6.523 -1.2842 -0.4548 -1.6576
 3582TIP3   OH232160   6.425   5.551   1.265 -0.2511  0.1310  0.6003
 3582TIP3    H132161   6.336   5.583   1.246  0.1275 -0.0972 -1.6444
 3582TIP3    H232162   6.420   5.457   1.251 -0.1041 -0.1700  2.3842
 3583TIP3   OH232163   1.648   1.482  14.917 -0.2617  0.5693  0.2864
 3583TIP3    H132164   1.601   1.548  14.866  0.2212  0.4281 -0.3593
 3583TIP3    H232165   1.635   1.400  14.868 -1.2869  0.0701  1.3506
 3584TIP3   OH232166   6.740   1.764   1.711 -0.2010  0.6491 -0.3264
 3584TIP3    H132167   6.706   1.762   1.622 -4.4348 -0.6855  1.2124
 3584TIP3    H232168   6.705   1.844   1.749 -1.4873 -0.6164  1.2306
 3585TIP3   OH232169   6.530   4.276  12.388  0.5343 -0.3058  0.6823
 3585TIP3    H132170   6.488   4.190  12.395 -1.9779  0.8538  0.3124
 3585TIP3    H232171   6.565   4.277  12.299  1.4228 -1.2940  1.0010
 3586TIP3   OH232172   0.252   4.960  15.469 -0.1055  0.3315 -0.5140
 3586TIP3    H132173   0.334   4.976  15.517 -0.2851 -0.1629 -0.0416
 3586TIP3    H232174   0.228   5.046  15.435 -0.2643  0.8082  0.7607
 3587TIP3   OH232175   6.738   5.791  15.191 -0.1253  0.2872  0.4263
 3587TIP3    H132176   6.645   5.809  15.201  0.0233  1.0960  0.3323
 3587TIP3    H232177   6.765   5.841  15.115 -0.1406 -1.8886 -1.0678
 3588TIP3   OH232178   4.089   5.160  14.943  0.5687 -0.0444 -0.5423
 3588TIP3    H132179   4.107   5.239  14.893 -0.9989  0.4184 -0.3917
 3588TIP3    H232180   4.014   5.120  14.900 -0.7264  0.2936  1.3399
 3589TIP3   OH232181   1.091   3.496   0.709 -0.1009 -0.3528  0.3912
 3589TIP3    H132182   1.158   3.494   0.641 -0.5647 -0.1498 -0.0724
 3589TIP3    H232183   1.141   3.505   0.791  0.3548  2.3973 -0.1252
 3590TIP3   OH232184   1.936   3.835  14.119  0.1733  0.6878 -0.3921
 3590TIP3    H132185   1.965   3.840  14.028  0.3021  2.5137 -0.2495
 3590TIP3    H232186   1.849   3.875  14.118 -0.2335 -0.1517  0.1369
 3591TIP3   OH232187   4.147   4.771   5.665  0.1442  0.4357  0.3496
 3591TIP3    H132188   4.160   4.724   5.747 -0.6999 -0.8101 -0.2054
 3591TIP3    H232189   4.064   4.817   5.676 -0.5950 -0.7183 -0.2267
 3592TIP3   OH232190   3.633   4.536  11.143  0.1525  0.4427 -0.2083
 3592TIP3    H132191   3.554   4.492  11.174  0.6549  0.0024  0.4530
 3592TIP3    H232192   3.607   4.628  11.134 -0.3581  0.3439  0.2592
 3593TIP3   OH232193   4.559   3.160  13.357 -0.6429  0.1058 -0.0758
 3593TIP3    H132194   4.586   3.183  13.268 -2.9128 -1.7788 -1.3124
 3593TIP3    H232195   4.637   3.176  13.410  0.9091  0.8149 -2.4553
 3594TIP3   OH232196   6.245   0.921  10.173 -0.1889  0.1124  0.4681
 3594TIP3    H132197   6.178   0.866  10.215 -2.6217  1.7234 -1.1346
 3594TIP3    H232198   6.267   0.875  10.092  1.1542 -0.7595  1.3309
 3595TIP3   OH232199   0.458   3.824  15.013 -0.5018 -0.3684 -0.5769
 3595TIP3    H132200   0.541   3.860  14.982  0.4062 -0.8431  1.2020
 3595TIP3    H232201   0.467   3.822  15.108 -1.4025 -3.1207 -0.4923
 3596TIP3   OH232202   4.340   5.641   3.672 -0.4237 -0.2470  0.5388
 3596TIP3    H132203   4.380   5.560   3.702  0.4293 -0.1480 -0.3081
 3596TIP3    H232204   4.253   5.642   3.713 -2.0760 -3.5684 -2.5467
 3597TIP3   OH232205   2.052   2.622   3.634  0.1952  0.1141 -0.0229
 3597TIP3    H132206   2.020   2.552   3.692 -0.0511 -1.2900 -1.8198
 3597TIP3    H232207   2.032   2.703   3.681 -2.2755 -0.8892  0.7456
 3598TIP3   OH232208   3.380   4.326   5.935  0.1354  0.9876 -0.0508
 3598TIP3    H132209   3.319   4.344   5.863 -0.4870 -0.5695  0.0485
 3598TIP3    H232210   3.338   4.363   6.012 -0.0746  1.0656 -0.2013
 3599TIP3   OH232211   1.790   6.002   3.468 -0.0078  0.4849 -0.5511
 3599TIP3    H132212   1.851   6.074   3.453 -0.1417  1.2640  2.3986
 3599TIP3    H232213   1.723   6.038   3.526 -1.6012 -1.2479 -1.2459
 3600TIP3   OH232214   2.894   2.905   0.666 -0.0607 -0.4390  0.0320
 3600TIP3    H132215   2.847   2.982   0.632 -0.4118  1.0698  3.7395
 3600TIP3    H232216   2.852   2.831   0.624 -0.4324  1.3030 -2.8239
 3601TIP3   OH232217   3.896   0.972  16.174 -0.5460  0.9229 -0.1114
 3601TIP3    H132218   3.857   0.990  16.089 -0.2472  0.2324 -0.4015
 3601TIP3    H232219   3.830   0.919  16.220  0.2590 -0.7381 -0.8189
 3602TIP3   OH232220   2.415   3.242  12.508 -1.2290  0.3318  0.1610
 3602TIP3    H132221   2.435   3.282  12.593  1.6134 -0.4242 -0.1079
 3602TIP3    H232222   2.339   3.186  12.526  0.0829 -0.7773  2.5342
 3603TIP3   OH232223   2.525   3.606   5.232  0.3209  0.4303  0.0875
 3603TIP3    H132224   2.550   3.553   5.309 -1.5017 -1.0909 -0.3211
 3603TIP3    H232225   2.555   3.555   5.157 -0.5457  0.4528 -0.2840
 3604TIP3   OH232226   3.236   4.578  13.763  0.1188  0.3782 -0.1974
 3604TIP3    H132227   3.283   4.635  13.702  0.5311  0.7990  0.5000
 3604TIP3    H232228   3.304   4.524  13.803 -0.1657  0.0013 -0.2248
 3605TIP3   OH232229   6.013   3.230  14.896  0.1653  0.0296  1.0968
 3605TIP3    H132230   5.960   3.309  14.890 -0.5093 -0.3985  1.3418
 3605TIP3    H232231   6.098   3.255  14.859 -0.4030  0.5429  0.1153
 3606TIP3   OH232232   4.702   2.805  16.812  0.1277 -0.5044 -0.1861
 3606TIP3    H132233   4.679   2.801  16.905 -3.6507  0.6264 -0.9674
 3606TIP3    H232234   4.681   2.894  16.785  0.9127 -0.8859 -2.1754
 3607TIP3   OH232235   3.185   0.201   4.415  0.1424 -0.2918  0.2903
 3607TIP3    H132236   3.276   0.222   4.435  0.0856 -0.0099  0.2618
 3607TIP3    H232237   3.142   0.286   4.409 -0.1692 -0.4338  0.5199
 3608TIP3   OH232238   5.014   0.364   0.198 -0.5965 -0.1013 -0.3537
 3608TIP3    H132239   4.973   0.294   0.249  0.5993 -1.2077 -0.8840
 3608TIP3    H232240   4.994   0.444   0.247 -0.4729 -1.0157  1.2252
 3609TIP3   OH232241   5.787   1.685  13.965  0.0174 -0.5862 -0.2029
 3609TIP3    H132242   5.814   1.759  14.020  1.7125 -0.7945 -0.7266
 3609TIP3    H232243   5.752   1.725  13.886  1.3924 -0.3342 -0.6979
 3610TIP3   OH232244   6.510   2.527   5.096 -0.3770 -0.1491  0.0521
 3610TIP3    H132245   6.591   2.544   5.048 -0.8011  1.1923 -0.2059
 3610TIP3    H232246   6.539   2.511   5.186  0.0601  1.7274  0.2491
 3611TIP3   OH232247   3.510   0.013  17.153 -0.9211  0.3010  0.9236
 3611TIP3    H132248   3.565   0.074  17.204  2.0470 -1.3951 -0.1497
 3611TIP3    H232249   3.532   0.032  17.062 -1.8631 -0.6517  0.4963
 3612TIP3   OH232250   0.657   0.208  12.690 -0.7022  0.2565 -0.1777
 3612TIP3    H132251   0.587   0.164  12.642  0.6547  0.5939 -2.6059
 3612TIP3    H232252   0.696   0.268  12.626  0.9640  1.0166  1.4796
 3613TIP3   OH232253   5.117   2.709   4.719  0.2375 -0.1752  0.2926
 3613TIP3    H132254   5.040   2.712   4.662  1.0385  0.9135 -0.7520
 3613TIP3    H232255   5.174   2.644   4.677  0.0388 -0.7219  0.8706
 3614TIP3   OH232256   0.537   2.166   4.624 -0.0304  0.2904 -0.1526
 3614TIP3    H132257   0.531   2.155   4.529 -1.6692  1.6874 -0.2550
 3614TIP3    H232258   0.620   2.211   4.638  1.9044 -2.9591 -0.5666
 3615TIP3   OH232259   4.512   6.490   0.649  0.1072 -0.0904  0.5416
 3615TIP3    H132260   4.472   6.413   0.690 -0.7223 -0.1893 -0.4524
 3615TIP3    H232261   4.549   6.457   0.567 -1.9037  0.9032 -0.8146
 3616TIP3   OH232262   2.116   2.122   4.112 -0.4840 -0.2042  0.1774
 3616TIP3    H132263   2.056   2.184   4.071 -0.3263  0.6146  1.1634
 3616TIP3    H232264   2.203   2.148   4.081 -0.5415 -0.7824 -0.4793
 3617TIP3   OH232265   5.325   2.074   5.059  0.4236  0.1580 -0.3378
 3617TIP3    H132266   5.318   2.041   4.970 -1.0940  0.3195 -0.2955
 3617TIP3    H232267   5.238   2.057   5.098  1.2450 -0.4656  1.2910
 3618TIP3   OH232268   1.283   5.949   3.438  0.2136  0.1774 -0.0509
 3618TIP3    H132269   1.252   5.861   3.459  0.1706 -0.3263 -2.0835
 3618TIP3    H232270   1.216   6.007   3.475 -0.6930 -0.7337 -0.2243
 3619TIP3   OH232271   6.058   5.385   6.965  0.2806  0.0482 -0.1582
 3619TIP3    H132272   6.150   5.408   6.948  0.8367 -1.4105  0.7902
 3619TIP3    H232273   6.044   5.304   6.917 -0.6498  0.4931 -0.6515
 3620TIP3   OH232274   0.728   0.072  14.980  0.5260 -0.3515  0.0184
 3620TIP3    H132275   0.758   0.052  14.891  0.6877  1.9095 -0.4701
 3620TIP3    H232276   0.804   0.108  15.024 -0.0649  0.4022  0.4385
 3621TIP3   OH232277   0.663   0.918  14.453  0.2639 -0.4980 -0.6378
 3621TIP3    H132278   0.694   0.985  14.514  2.3650 -0.1625 -2.0052
 3621TIP3    H232279   0.604   0.965  14.394 -0.6102 -0.5038  0.2299
 3622TIP3   OH232280   2.672   6.470   2.545 -0.2353 -0.0145 -0.3498
 3622TIP3    H132281   2.733   6.535   2.511  0.7999 -0.1771  1.1302
 3622TIP3    H232282   2.600   6.521   2.581  0.3069  0.3014  0.2996
 3623TIP3   OH232283   2.990   5.133  13.670  0.0316 -0.0498 -0.1005
 3623TIP3    H132284   3.083   5.156  13.662  0.3946 -1.2769  0.5661
 3623TIP3    H232285   2.947   5.217  13.688  0.9538  0.5906 -0.8139
 3624TIP3   OH232286   4.891   4.114  11.349 -0.3228  0.1732  0.4524
 3624TIP3    H132287   4.842   4.193  11.373  1.9199  2.0692 -0.9195
 3624TIP3    H232288   4.826   4.057  11.308 -2.1088  1.0463  1.9808
 3625TIP3   OH232289   3.013   2.541   3.055 -0.7035  0.0603 -0.8634
 3625TIP3    H132290   3.094   2.556   3.103 -1.4399  2.6713 -0.3668
 3625TIP3    H232291   2.944   2.555   3.120 -1.6053 -0.4457 -1.6994
 3626TIP3   OH232292   5.372   6.289  12.740 -0.0790  0.1298 -0.2184
 3626TIP3    H132293   5.388   6.196  12.724  0.2245  0.2600 -0.6765
 3626TIP3    H232294   5.459   6.328  12.748 -0.2015  0.4118 -0.2396
 3627TIP3   OH232295   4.873   1.118   5.103 -1.1117  0.0022 -0.0901
 3627TIP3    H132296   4.896   1.176   5.175 -2.2535  0.7721 -0.3366
 3627TIP3    H232297   4.888   1.030   5.138  1.7888  0.4308 -0.1192
 3628TIP3   OH232298   6.548   5.814   5.087  0.2901  0.4921 -0.1986
 3628TIP3    H132299   6.470   5.810   5.143 -0.4506  0.3485 -1.2081
 3628TIP3    H232300   6.607   5.748   5.122  0.4573  1.4160  1.3126
 3629TIP3   OH232301   1.843   2.534   4.864  0.3606  0.2864  0.4458
 3629TIP3    H132302   1.866   2.482   4.786 -1.6393  0.4769 -0.2975
 3629TIP3    H232303   1.794   2.474   4.919  0.2727  0.6551  0.7705
 3630TIP3   OH232304   1.460   6.300  13.406 -0.5404 -0.1093 -0.4000
 3630TIP3    H132305   1.477   6.235  13.337 -1.4755 -0.9286  0.1451
 3630TIP3    H232306   1.369   6.287  13.430 -0.1920  0.1266  1.0679
 3631TIP3   OH232307   0.003   1.932  11.036 -0.0951  0.1894 -0.0700
 3631TIP3    H132308  -0.072   1.955  10.981  0.8158  0.3106 -1.2652
 3631TIP3    H232309  -0.013   1.841  11.060 -0.9701  0.4147  0.2549
 3632TIP3   OH232310   6.099   0.778   5.355 -0.4389  0.9145  0.1510
 3632TIP3    H132311   6.171   0.716   5.349 -1.4725 -0.4643  1.5765
 3632TIP3    H232312   6.087   0.810   5.265  3.8984  3.5222  0.3654
 3633TIP3   OH232313   4.637   4.631  11.260 -0.3123 -0.3493 -0.3936
 3633TIP3    H132314   4.605   4.624  11.170 -0.7661 -1.0401 -0.1837
 3633TIP3    H232315   4.716   4.685  11.253  0.7838 -2.0327 -1.4738
 3634TIP3   OH232316   4.377   1.378  14.076  0.7246 -0.0428 -0.1723
 3634TIP3    H132317   4.409   1.453  14.025  1.3151 -1.7510 -2.3849
 3634TIP3    H232318   4.290   1.360  14.041  2.1244 -2.8008 -2.4119
 3635TIP3   OH232319   2.873   3.073  13.250  0.0348 -0.4452  0.4004
 3635TIP3    H132320   2.964   3.062  13.224  0.3900  1.6734  0.6798
 3635TIP3    H232321   2.844   3.152  13.204 -1.4300 -0.6575  0.9267
 3636TIP3   OH232322   4.536   4.109   2.242 -0.0357 -0.3421  0.0736
 3636TIP3    H132323   4.483   4.074   2.313  1.1378 -1.9429  0.1786
 3636TIP3    H232324   4.623   4.121   2.281 -0.1878  1.9319 -0.1873
 3637TIP3   OH232325   1.369   2.526  15.105  0.1436  0.1316  0.1650
 3637TIP3    H132326   1.369   2.604  15.050  0.8771  0.8315  1.1495
 3637TIP3    H232327   1.459   2.520  15.138  0.0303 -0.9879  0.2889
 3638TIP3   OH232328   6.111   2.133   4.387  0.0335  0.1643 -0.3612
 3638TIP3    H132329   6.040   2.121   4.324 -0.4998 -0.1172  0.2830
 3638TIP3    H232330   6.093   2.069   4.456 -1.0130  2.4171  1.5072
 3639TIP3   OH232331   0.030   2.374   2.390  0.7226 -0.1114  0.5400
 3639TIP3    H132332  -0.022   2.424   2.327  1.1923  0.0712  0.2907
 3639TIP3    H232333  -0.031   2.310   2.427  0.5350 -0.4738 -0.3889
 3640TIP3   OH232334   4.149   4.481   3.716  0.0376  0.1094 -0.1051
 3640TIP3    H132335   4.244   4.479   3.731 -0.3117  0.1920  2.3201
 3640TIP3    H232336   4.122   4.389   3.723  0.2923 -0.2856 -3.5634
 3641TIP3   OH232337   2.041   2.011  12.229 -0.1585 -0.4611 -0.5390
 3641TIP3    H132338   2.074   2.089  12.183 -0.3325 -0.6978 -1.0704
 3641TIP3    H232339   2.084   2.014  12.315 -2.1582  1.6104  0.4284
 3642TIP3   OH232340   4.529   5.026   1.375  0.2100  0.5701  0.1536
 3642TIP3    H132341   4.440   4.999   1.353 -0.3294  1.6843  0.9455
 3642TIP3    H232342   4.556   4.966   1.445  0.0520  0.3049 -0.0106
 3643TIP3   OH232343   5.979   2.570   5.964  0.5741 -0.0277 -0.3505
 3643TIP3    H132344   6.033   2.613   6.029 -1.3822  0.8519  0.7397
 3643TIP3    H232345   6.000   2.477   5.972 -0.0910  0.0008  1.9818
 3644TIP3   OH232346   1.770   3.873   0.114 -0.0082 -0.3409  0.4123
 3644TIP3    H132347   1.753   3.893   0.206 -0.7954  1.5862 -0.1240
 3644TIP3    H232348   1.716   3.797   0.095 -0.6436 -0.1099  1.2841
 3645TIP3   OH232349   0.994   4.844   3.196  0.0722 -0.3834 -0.1542
 3645TIP3    H132350   1.038   4.928   3.206 -2.6658  1.3504 -2.1628
 3645TIP3    H232351   1.064   4.783   3.173  2.1413  1.2418  1.6314
 3646TIP3   OH232352   4.828   0.480  12.755 -0.8727  0.6271  0.4770
 3646TIP3    H132353   4.797   0.447  12.671 -1.8565  1.4428  0.5040
 3646TIP3    H232354   4.919   0.505  12.739  0.1519 -2.7276  0.6532
 3647TIP3   OH232355   3.916   6.161   6.337  0.4095 -0.1078 -0.1549
 3647TIP3    H132356   4.009   6.153   6.318 -0.0345 -1.0168 -2.0780
 3647TIP3    H232357   3.897   6.254   6.326  0.6842 -0.2329 -1.7994
 3648TIP3   OH232358   2.476   6.034  16.704  0.3053  0.0200  0.6830
 3648TIP3    H132359   2.554   5.982  16.727  0.7185  0.0912 -0.5190
 3648TIP3    H232360   2.503   6.125  16.715 -0.5957 -0.0143  3.3403
 3649TIP3   OH232361   2.487   0.020  11.568 -0.3071 -0.4414  0.3316
 3649TIP3    H132362   2.556  -0.012  11.626 -0.7134  0.2620  1.2190
 3649TIP3    H232363   2.520   0.004  11.480 -0.8927 -4.1553  0.7165
 3650TIP3   OH232364   2.125   0.388   2.088  0.1054  0.5919 -0.0410
 3650TIP3    H132365   2.088   0.476   2.097  1.2770  1.0879  0.0618
 3650TIP3    H232366   2.107   0.345   2.171  0.1257  0.9745  0.1616
 3651TIP3   OH232367   0.842   0.538   5.490 -0.0109 -0.1630  0.4651
 3651TIP3    H132368   0.755   0.545   5.450  0.2818 -0.8934 -0.3003
 3651TIP3    H232369   0.876   0.628   5.488  0.8714 -0.5231 -2.8938
 3652TIP3   OH232370   4.801   3.445  16.653 -0.1780 -0.1066 -0.1675
 3652TIP3    H132371   4.830   3.534  16.675 -1.5824 -0.1825  2.1505
 3652TIP3    H232372   4.882   3.397  16.635  0.7034  1.2635  0.0785
 3653TIP3   OH232373   0.566   2.691   1.370  0.2559 -0.0724 -0.5951
 3653TIP3    H132374   0.597   2.656   1.454  0.1693 -1.2426 -1.0535
 3653TIP3    H232375   0.476   2.720   1.389  0.6533  0.7869  0.0217
 3654TIP3   OH232376   0.953   1.106  11.575 -0.3760  0.3764  0.1341
 3654TIP3    H132377   0.977   1.140  11.661 -0.3343  0.1956  0.1940
 3654TIP3    H232378   1.031   1.118  11.522  0.3564 -1.5954  0.7342
 3655TIP3   OH232379   5.889   1.816  12.371 -0.4352 -0.2952 -0.4260
 3655TIP3    H132380   5.854   1.804  12.282 -0.0190 -1.7949 -0.3958
 3655TIP3    H232381   5.965   1.758  12.375  1.5323  2.2111 -0.1673
 3656TIP3   OH232382   0.415   4.683   2.768  1.2317 -0.5277 -0.1275
 3656TIP3    H132383   0.445   4.621   2.834  0.9745 -1.0590 -0.5065
 3656TIP3    H232384   0.403   4.630   2.689 -1.1227 -0.4176  0.1326
 3657TIP3   OH232385   2.025   3.858  14.843  0.4577 -0.7184 -0.5016
 3657TIP3    H132386   1.990   3.771  14.824 -0.1940 -0.6835  0.4605
 3657TIP3    H232387   2.040   3.897  14.757  0.7467 -1.7717 -0.9460
 3658TIP3   OH232388   2.977   3.143  16.617  0.0930  0.0008 -0.5181
 3658TIP3    H132389   3.022   3.153  16.534  0.2880 -1.6602 -0.6233
 3658TIP3    H232390   2.895   3.192  16.606  0.7869  1.0551 -1.1330
 3659TIP3   OH232391   3.121   5.048  11.478  0.1262  0.1071  0.3806
 3659TIP3    H132392   3.122   5.028  11.384  0.2271 -1.7351  0.7606
 3659TIP3    H232393   3.135   4.963  11.521 -0.0941  0.9078  2.0680
 3660TIP3   OH232394   5.998   4.484  11.962  0.4991 -0.0698  0.2505
 3660TIP3    H132395   6.007   4.391  11.939 -1.7555 -0.0153 -1.0480
 3660TIP3    H232396   6.065   4.528  11.909 -0.6928 -0.6228 -1.7997
 3661TIP3   OH232397   4.204   6.617   3.558  0.5012 -0.2783  0.3890
 3661TIP3    H132398   4.229   6.573   3.639  0.3119  0.4737  0.8619
 3661TIP3    H232399   4.152   6.552   3.510 -1.0647 -0.0600  1.7587
 3662TIP3   OH232400   6.165   2.906   0.152 -0.6488 -0.0659  0.4218
 3662TIP3    H132401   6.178   2.819   0.189 -1.5473 -0.4597 -0.1863
 3662TIP3    H232402   6.072   2.910   0.131 -0.2139  0.2597 -1.5353
 3663TIP3   OH232403   6.036   5.310  15.706 -0.5014  0.3377  0.4380
 3663TIP3    H132404   6.015   5.397  15.740  0.2083  0.6844 -0.0085
 3663TIP3    H232405   6.055   5.324  15.614 -1.1838 -0.4173  0.1734
 3664TIP3   OH232406   2.738   0.253   4.317 -0.0759 -0.2319 -0.3694
 3664TIP3    H132407   2.698   0.331   4.278  1.2793  0.6220 -0.1056
 3664TIP3    H232408   2.664   0.200   4.346 -1.0279  0.7347 -0.9947
 3665TIP3   OH232409   3.570   2.915  14.339  0.2170 -0.1968 -0.4907
 3665TIP3    H132410   3.630   2.865  14.284 -0.0605 -2.0423  0.8511
 3665TIP3    H232411   3.541   2.854  14.407 -3.0536  0.6642 -0.9813
 3666TIP3   OH232412   0.604   5.301  11.951 -0.2800 -0.3671  0.0092
 3666TIP3    H132413   0.554   5.362  12.006  0.5001 -0.8434  1.2775
 3666TIP3    H232414   0.552   5.292  11.871  0.6730  3.6335 -1.1550
 3667TIP3   OH232415   5.012   2.461  16.545 -0.0341 -0.2846  0.2032
 3667TIP3    H132416   5.030   2.520  16.618 -1.3339  1.7926 -1.0978
 3667TIP3    H232417   4.980   2.518  16.475  1.8707 -2.1210 -2.2695
 3668TIP3   OH232418   3.308   2.447   5.266  0.1742  0.4102 -0.3189
 3668TIP3    H132419   3.334   2.530   5.226 -0.1811  0.9901  0.6524
 3668TIP3    H232420   3.280   2.470   5.354 -0.2135 -0.7020 -0.1416
 3669TIP3   OH232421   2.595   1.727  11.807 -0.2587  0.0791  0.0813
 3669TIP3    H132422   2.689   1.729  11.824 -0.3823  2.0616  0.6998
 3669TIP3    H232423   2.576   1.635  11.787  1.3928 -0.7784  2.2328
 3670TIP3   OH232424   5.339   2.748   2.605  0.6345 -0.1331 -0.0075
 3670TIP3    H132425   5.258   2.792   2.629  0.7015 -0.0150  0.0072
 3670TIP3    H232426   5.323   2.715   2.516  1.3202  1.7940 -0.8754
 3671TIP3   OH232427   5.336   4.524  13.251 -0.3449 -0.2597  0.1818
 3671TIP3    H132428   5.301   4.501  13.165 -0.3498 -2.3011  0.7124
 3671TIP3    H232429   5.430   4.538  13.236 -0.2566 -1.1093 -0.0549
 3672TIP3   OH232430   5.494   5.469   5.213 -0.0709  0.6159  0.1631
 3672TIP3    H132431   5.509   5.395   5.154  0.6990  1.4221 -0.6627
 3672TIP3    H232432   5.580   5.485   5.253 -0.6870 -0.2342  1.8885
 3673TIP3   OH232433   3.436   5.771   2.945 -0.0973  0.2375  0.1692
 3673TIP3    H132434   3.385   5.730   3.014  0.0981 -0.4236 -0.0767
 3673TIP3    H232435   3.392   5.855   2.930 -0.4806  0.1334  0.6920
 3674TIP3   OH232436   4.495   5.995   3.499 -0.2947  0.3800  0.0734
 3674TIP3    H132437   4.472   6.079   3.539 -1.1423 -0.7778  2.0857
 3674TIP3    H232438   4.414   5.966   3.457 -1.5843 -1.7967  3.7611
 3675TIP3   OH232439   2.262   1.840  16.143  0.5331 -0.1575  0.2126
 3675TIP3    H132440   2.340   1.785  16.141  0.6420  0.0098 -2.6097
 3675TIP3    H232441   2.293   1.927  16.120 -0.2458  0.2435  0.6595
 3676TIP3   OH232442   5.884   0.205   0.619  0.7091 -0.0974 -0.2039
 3676TIP3    H132443   5.831   0.284   0.628 -0.7366 -1.0404 -0.2278
 3676TIP3    H232444   5.951   0.214   0.687  1.4376  1.8122 -1.1604
 3677TIP3   OH232445   4.783   2.644   1.932  0.0444 -0.4091  0.1722
 3677TIP3    H132446   4.762   2.723   1.983 -0.3686  0.1368 -0.8509
 3677TIP3    H232447   4.771   2.669   1.841  0.5856 -1.4584 -0.2034
 3678TIP3   OH232448   5.530   6.579   5.802 -0.1103 -0.4603 -0.1116
 3678TIP3    H132449   5.434   6.581   5.803 -0.0953  2.0525  1.6929
 3678TIP3    H232450   5.554   6.534   5.883  0.2300  0.6662  0.4234
 3679TIP3   OH232451   5.064   0.009   1.385 -0.1552 -0.2680 -0.4675
 3679TIP3    H132452   5.094   0.049   1.303 -1.4121  2.7709  0.4594
 3679TIP3    H232453   5.088   0.073   1.453 -1.4493 -1.5061  1.2105
 3680TIP3   OH232454   4.594   0.672  16.469  0.0660  0.1323  0.1836
 3680TIP3    H132455   4.635   0.756  16.449  0.7302 -0.1280  0.4216
 3680TIP3    H232456   4.513   0.672  16.418  0.3565  0.6622 -0.2918
 3681TIP3   OH232457   5.556   4.532  13.990  0.0779 -0.2705 -0.3716
 3681TIP3    H132458   5.510   4.455  14.023 -1.6358  0.4257 -1.0341
 3681TIP3    H232459   5.510   4.553  13.908  0.0116  1.9289  0.2166
 3682TIP3   OH232460   3.725   5.256  13.692  0.1866  0.5030 -0.3839
 3682TIP3    H132461   3.799   5.317  13.698 -0.0461  0.8280 -0.7382
 3682TIP3    H232462   3.681   5.281  13.611 -1.4808  1.6299  0.8410
 3683TIP3   OH232463   5.630   0.641   3.063  0.1418 -0.1982  0.2004
 3683TIP3    H132464   5.563   0.574   3.067 -0.6297  0.5743  0.4453
 3683TIP3    H232465   5.655   0.656   3.155  0.5518 -0.3903  0.1210
 3684TIP3   OH232466   4.801   0.342   3.360  0.0290 -0.4057 -0.0619
 3684TIP3    H132467   4.792   0.370   3.269 -1.4013  0.9870  0.4900
 3684TIP3    H232468   4.811   0.423   3.410  2.1173 -1.2264  0.8994
 3685TIP3   OH232469   0.614   4.123  12.443 -0.1957 -0.0013  0.3390
 3685TIP3    H132470   0.656   4.136  12.528  0.3847  0.4568 -0.0167
 3685TIP3    H232471   0.523   4.151  12.457 -0.4986 -1.4162  1.2232
 3686TIP3   OH232472   6.299   0.944  15.147 -0.2476  0.0497  0.7463
 3686TIP3    H132473   6.302   0.915  15.238  1.6977 -2.1657  0.0220
 3686TIP3    H232474   6.389   0.932  15.115 -1.6529 -2.6239 -2.5076
 3687TIP3   OH232475   0.303   1.467   2.175 -0.2119 -0.3281  0.5804
 3687TIP3    H132476   0.356   1.389   2.189  1.0083  0.3042 -0.4406
 3687TIP3    H232477   0.314   1.519   2.255 -1.4157 -1.4223  1.4595
 3688TIP3   OH232478   1.899   3.441   4.821  0.4176  0.1509  0.0628
 3688TIP3    H132479   1.967   3.384   4.783  1.8095  1.3772  0.6695
 3688TIP3    H232480   1.931   3.461   4.909 -0.3675  1.3571  0.0881
 3689TIP3   OH232481   6.140   1.122  10.530 -0.1699 -0.2524  0.2302
 3689TIP3    H132482   6.091   1.040  10.524 -2.8125  1.3508 -0.8123
 3689TIP3    H232483   6.173   1.137  10.442  1.7269 -0.9907  0.7871
 3690TIP3   OH232484   0.802   0.344  10.445  0.2902 -0.0309 -0.5018
 3690TIP3    H132485   0.780   0.279  10.379 -1.5702 -0.0450  0.1091
 3690TIP3    H232486   0.896   0.334  10.459  0.2505 -1.6743 -1.3743
 3691TIP3   OH232487   6.231   5.758   1.562  0.1663  0.5514 -0.2299
 3691TIP3    H132488   6.324   5.763   1.585 -0.2706  1.4165  1.4457
 3691TIP3    H232489   6.193   5.837   1.600 -1.5649 -0.6307  0.5517
 3692TIP3   OH232490   6.397   1.570  15.099  0.5817  0.4016  0.0765
 3692TIP3    H132491   6.480   1.522  15.100  0.5648  0.3557 -0.5302
 3692TIP3    H232492   6.355   1.547  15.182  0.6011 -0.5769 -0.1809
 3693TIP3   OH232493   6.255   2.732   5.891  0.0739 -0.1011  0.3051
 3693TIP3    H132494   6.303   2.700   5.967  1.5713 -0.2513 -0.6701
 3693TIP3    H232495   6.232   2.823   5.914  0.3682 -0.1982  0.9939
 3694TIP3   OH232496   5.311   5.134  15.731  0.3795 -0.0590  0.5476
 3694TIP3    H132497   5.387   5.105  15.781  1.0838  1.3170  0.3125
 3694TIP3    H232498   5.309   5.077  15.655  0.5638 -0.7747  1.0771
 3695TIP3   OH232499   1.107   5.184  14.935  0.5057 -0.1866  0.3150
 3695TIP3    H132500   1.121   5.251  14.868  0.1632  2.2595  2.5963
 3695TIP3    H232501   1.019   5.202  14.968 -0.1944 -2.7431 -0.0499
 3696TIP3   OH232502   1.970   2.463  14.514  0.4314  0.0741  0.1001
 3696TIP3    H132503   1.931   2.384  14.551  0.6134 -0.1908 -0.2692
 3696TIP3    H232504   1.900   2.501  14.460 -0.0538  0.8169  1.2227
 3697TIP3   OH232505   5.837   4.173   0.813  0.0067  0.5011 -0.4223
 3697TIP3    H132506   5.820   4.258   0.772  1.0999  0.9262 -0.0031
 3697TIP3    H232507   5.851   4.192   0.905  3.2976  0.2850 -0.8087
 3698TIP3   OH232508   0.491   2.650   2.546 -0.6757  0.0013 -0.5718
 3698TIP3    H132509   0.586   2.660   2.551 -0.7523  1.3123 -1.5058
 3698TIP3    H232510   0.461   2.663   2.636  0.0163 -0.3199 -0.2937
 3699TIP3   OH232511   1.800   2.468   2.507  0.1735 -0.2653  0.2088
 3699TIP3    H132512   1.858   2.433   2.574  0.5675  1.6479  0.8783
 3699TIP3    H232513   1.713   2.436   2.532  0.4719 -0.4534  1.0286
 3700TIP3   OH232514   2.821   5.642  13.724  0.2119 -0.0797 -0.3389
 3700TIP3    H132515   2.878   5.685  13.787  0.6122  0.2261 -0.9076
 3700TIP3    H232516   2.747   5.611  13.776 -0.0792  1.2841  0.0861
 3701TIP3   OH232517   6.082   6.307   3.032  0.2784  0.2458 -0.2665
 3701TIP3    H132518   6.101   6.400   3.017  1.3076 -0.1182 -1.2115
 3701TIP3    H232519   6.052   6.274   2.948  1.5641 -0.6911 -0.3610
 3702TIP3   OH232520   3.033   4.615  11.713 -0.1497 -0.3414 -0.2785
 3702TIP3    H132521   2.992   4.554  11.651  0.4622  0.4860 -1.5259
 3702TIP3    H232522   2.960   4.650  11.764 -0.6866 -0.9184 -0.6324
 3703TIP3   OH232523   1.434   4.166  12.416  0.1672  0.0107 -0.0952
 3703TIP3    H132524   1.368   4.100  12.395 -0.2140 -0.1183  1.4859
 3703TIP3    H232525   1.462   4.199  12.331 -0.0766 -1.7592 -0.8894
 3704TIP3   OH232526   3.070   2.555   6.777  0.0649  0.0500 -0.1869
 3704TIP3    H132527   3.068   2.496   6.702  0.8101 -1.6047  1.0731
 3704TIP3    H232528   2.979   2.580   6.791  0.1127  1.9838 -2.8536
 3705TIP3   OH232529   1.980   2.126  17.162  0.2829 -0.3124  0.3074
 3705TIP3    H132530   1.930   2.171  17.231 -0.8870 -0.1286 -0.6362
 3705TIP3    H232531   2.049   2.079  17.209  0.5217  1.1401  1.4646
 3706TIP3   OH232532   2.820   0.680  14.981 -0.8577  0.0322  0.6297
 3706TIP3    H132533   2.765   0.697  15.058 -1.5969 -2.1533  0.6075
 3706TIP3    H232534   2.759   0.683  14.907 -0.6128 -0.5181  0.4071
 3707TIP3   OH232535   4.378   5.049   2.720 -0.3669 -0.8728  0.6864
 3707TIP3    H132536   4.406   4.967   2.680 -1.2484 -0.2287 -1.3626
 3707TIP3    H232537   4.297   5.026   2.766 -0.7547 -1.1053 -0.1000
 3708TIP3   OH232538   3.433   1.208  13.293 -0.6787  0.0081  0.0656
 3708TIP3    H132539   3.528   1.219  13.281 -0.8951  0.4246 -1.3614
 3708TIP3    H232540   3.412   1.128  13.245 -1.1245  0.1775 -0.0222
 3709TIP3   OH232541   0.269   5.502   5.758  0.2599  0.3098  0.0876
 3709TIP3    H132542   0.231   5.419   5.788 -0.4717  1.0035  1.1362
 3709TIP3    H232543   0.362   5.496   5.781 -0.1051  0.4390  1.6754
 3710TIP3   OH232544   0.464   0.815   4.867 -0.0394 -0.3844 -0.4010
 3710TIP3    H132545   0.433   0.758   4.796 -0.0366 -0.2146 -0.5371
 3710TIP3    H232546   0.514   0.756   4.924 -0.3183 -0.5906 -0.3634
 3711TIP3   OH232547   0.390   3.124  15.809 -0.0309 -0.5067 -0.2396
 3711TIP3    H132548   0.328   3.056  15.781  0.9897 -0.4784 -2.7571
 3711TIP3    H232549   0.423   3.161  15.727  0.7903  1.8064  1.0891
 3712TIP3   OH232550   5.275   5.188   0.606 -0.1644  0.1283  0.2080
 3712TIP3    H132551   5.279   5.100   0.644 -1.2609  0.2644  0.6583
 3712TIP3    H232552   5.360   5.227   0.627  0.8280 -1.2659 -1.1336
 3713TIP3   OH232553   2.166   2.109   5.090  0.6607 -0.1047  0.5651
 3713TIP3    H132554   2.149   2.032   5.036  0.0897  1.2587 -1.2664
 3713TIP3    H232555   2.155   2.079   5.180  0.8737 -2.2502 -0.1063
 3714TIP3   OH232556   4.339   6.275  15.648 -0.1007  0.1756 -0.3167
 3714TIP3    H132557   4.332   6.310  15.559  0.8087  2.5927  0.5257
 3714TIP3    H232558   4.423   6.309  15.681 -0.1172 -1.2265  1.2418
 3715TIP3   OH232559   1.986   6.637  16.263 -0.1262  0.1093  0.5354
 3715TIP3    H132560   1.978   6.546  16.236 -0.6990  0.9430 -2.2414
 3715TIP3    H232561   2.055   6.637  16.329  1.1575 -2.0437 -0.7685
 3716TIP3   OH232562   0.791   1.309  11.527  0.3651 -0.0098  0.0465
 3716TIP3    H132563   0.714   1.279  11.574  0.3707 -0.3156 -0.1322
 3716TIP3    H232564   0.857   1.241  11.544  1.2307  1.2697  1.8585
 3717TIP3   OH232565   2.907   1.891  15.079  0.3981 -0.3055  0.4702
 3717TIP3    H132566   2.903   1.967  15.021 -0.5969 -0.0193  0.9040
 3717TIP3    H232567   2.940   1.926  15.162  0.1556 -0.3935  0.6020
 3718TIP3   OH232568   5.198   3.738  17.006 -0.7511 -0.3515  0.5378
 3718TIP3    H132569   5.181   3.652  17.044  0.8833 -0.3763  1.2681
 3718TIP3    H232570   5.165   3.732  16.916  1.3814 -2.4929 -0.1512
 3719TIP3   OH232571   1.364   4.583  15.356 -0.1035 -0.6635 -0.3352
 3719TIP3    H132572   1.437   4.608  15.412  0.5426 -1.2903 -0.8969
 3719TIP3    H232573   1.328   4.504  15.398 -1.5633  0.6185  0.9151
 3720TIP3   OH232574   0.948   6.135  14.426  0.6312  0.4150  0.6344
 3720TIP3    H132575   1.032   6.091  14.417  0.3705 -0.0729  0.5806
 3720TIP3    H232576   0.903   6.089  14.497  2.0097  3.1993  3.4594
 3721TIP3   OH232577   4.914   1.626   5.410  0.1913 -0.2952 -0.7919
 3721TIP3    H132578   4.842   1.563   5.417 -0.0787  0.2286  1.7409
 3721TIP3    H232579   4.877   1.707   5.444  1.7356  0.1699 -0.1920
 3722TIP3   OH232580   0.645   1.101   0.750 -0.3311  0.0575 -0.1883
 3722TIP3    H132581   0.619   1.036   0.684  0.4597  1.7476 -2.2324
 3722TIP3    H232582   0.732   1.130   0.722  0.2475  0.4564  1.9111
 3723TIP3   OH232583   6.593   6.404  12.099 -0.4238  0.0119  0.2480
 3723TIP3    H132584   6.543   6.486  12.097  0.3573  0.5282  1.2646
 3723TIP3    H232585   6.566   6.362  12.181  0.0864 -0.1640  0.3251
 3724TIP3   OH232586   3.735   0.406   2.523 -0.8214 -0.2217  0.0577
 3724TIP3    H132587   3.666   0.466   2.495  0.3827  2.4024  2.4599
 3724TIP3    H232588   3.814   0.437   2.479 -0.5206 -1.1153 -0.0411
 3725TIP3   OH232589   5.953   2.049   3.258 -0.1877 -0.4079 -0.0505
 3725TIP3    H132590   6.031   2.083   3.214 -0.9296 -1.1189 -1.9921
 3725TIP3    H232591   5.917   1.985   3.196 -2.6464  0.3365  0.5324
 3726TIP3   OH232592   5.916   4.502   6.288  0.1356  0.2359 -0.4066
 3726TIP3    H132593   5.834   4.511   6.239 -0.3826  2.3291  0.7900
 3726TIP3    H232594   5.948   4.591   6.298  1.2229 -0.3272  1.3807
 3727TIP3   OH232595   5.675   6.615   0.055 -0.0931  0.2272 -0.7301
 3727TIP3    H132596   5.743   6.591   0.118  0.5598  1.5154 -0.9297
 3727TIP3    H232597   5.646   6.702   0.082 -2.9223 -1.0183  0.4029
 3728TIP3   OH232598   6.125   3.002  10.845 -0.4734 -0.1062  0.4801
 3728TIP3    H132599   6.220   3.010  10.852 -0.3870 -0.6292 -0.0171
 3728TIP3    H232600   6.097   2.971  10.931 -0.1171 -0.5675  0.4368
 3729TIP3   OH232601   5.144   5.289   1.432 -0.1933  0.4616  0.0821
 3729TIP3    H132602   5.090   5.279   1.353  0.6630  0.5317 -0.5235
 3729TIP3    H232603   5.199   5.365   1.414 -0.8720  1.2548  1.2789
 3730TIP3   OH232604   1.378   6.548   1.843  0.0540 -0.0561  0.6939
 3730TIP3    H132605   1.351   6.639   1.848  1.3968  0.3200  1.4793
 3730TIP3    H232606   1.406   6.527   1.932  0.6767 -0.9407  0.2938
 3731TIP3   OH232607   5.097   2.530  12.496  0.0498  0.6547  0.2645
 3731TIP3    H132608   5.165   2.555  12.434  1.2646 -2.2302  0.3699
 3731TIP3    H232609   5.091   2.605  12.556  0.9023  2.2411 -1.5869
 3732TIP3   OH232610   1.659   5.836   3.038  0.1738  0.0727  0.0404
 3732TIP3    H132611   1.743   5.836   3.084 -0.5268  0.4252  1.3285
 3732TIP3    H232612   1.604   5.896   3.088 -0.6717  0.2945 -1.1331
 3733TIP3   OH232613   4.747   1.699  17.006  0.1475  0.5598  0.2222
 3733TIP3    H132614   4.729   1.608  16.981  0.2902  0.4942  0.3537
 3733TIP3    H232615   4.809   1.692  17.079 -2.4218  0.6662  2.5125
 3734TIP3   OH232616   0.560   3.280   1.815  0.3082 -0.0771  0.3891
 3734TIP3    H132617   0.528   3.362   1.852  1.0589 -0.8752  2.8909
 3734TIP3    H232618   0.486   3.219   1.822  0.0023  0.1515 -0.7462
 3735TIP3   OH232619   3.458   0.548  16.229  0.2011  0.0962  0.2539
 3735TIP3    H132620   3.380   0.492  16.227  0.1802  0.1236  0.3174
 3735TIP3    H232621   3.424   0.637  16.227  0.2745  0.1009 -1.2531
 3736TIP3   OH232622   5.159   5.937  11.073  0.4452 -0.0386  0.1451
 3736TIP3    H132623   5.224   5.867  11.067 -0.6071 -1.0701  0.5626
 3736TIP3    H232624   5.142   5.962  10.982  2.5950  1.3602  0.0992
 3737TIP3   OH232625   1.835   0.993   4.075  0.4301  0.0137  0.0583
 3737TIP3    H132626   1.823   0.991   4.170 -1.4246  1.1950 -0.1295
 3737TIP3    H232627   1.929   1.003   4.063  0.5250  1.4322  1.7980
 3738TIP3   OH232628   2.788   5.623   4.050 -0.3028 -0.4843  0.0824
 3738TIP3    H132629   2.744   5.565   4.112 -0.9361 -3.2867 -2.8130
 3738TIP3    H232630   2.880   5.597   4.054 -0.1930 -0.0221  0.5287
 3739TIP3   OH232631   2.973   6.323  13.896  0.4304  0.3573  0.0305
 3739TIP3    H132632   2.962   6.232  13.925  0.8789 -0.3470 -1.9321
 3739TIP3    H232633   2.950   6.375  13.973  0.6482 -1.4193  1.3482
 3740TIP3   OH232634   0.581   1.465  16.941 -0.4023  0.5314  0.5226
 3740TIP3    H132635   0.629   1.417  17.009 -2.0723  0.7804  1.8891
 3740TIP3    H232636   0.650   1.503  16.886  0.9561 -1.0013  1.1185
 3741TIP3   OH232637   5.813   5.880   5.607  0.0744 -0.2810 -0.2679
 3741TIP3    H132638   5.725   5.868   5.572  0.3561 -1.0908 -0.7109
 3741TIP3    H232639   5.807   5.961   5.658 -0.7611  0.0077 -0.8067
 3742TIP3   OH232640   4.762   2.013   0.493 -0.6208  0.3850 -0.2475
 3742TIP3    H132641   4.760   2.105   0.520  0.6471  1.2449 -2.9136
 3742TIP3    H232642   4.854   1.995   0.478 -0.9462 -1.0975 -0.5136
 3743TIP3   OH232643   2.053   5.032  13.947  0.3850 -0.1236  0.5204
 3743TIP3    H132644   2.028   5.065  14.034 -1.3773  2.4721 -0.8947
 3743TIP3    H232645   2.138   5.073  13.930 -0.1848  0.9607  0.2223
 3744TIP3   OH232646   4.419   0.015  14.643 -0.0994 -0.0286  0.0233
 3744TIP3    H132647   4.497  -0.038  14.631  0.0706  0.0045  0.9348
 3744TIP3    H232648   4.404   0.015  14.738 -0.9194  0.3678 -0.0969
 3745TIP3   OH232649   2.167   0.351   2.395 -0.1488  0.1544 -0.4353
 3745TIP3    H132650   2.123   0.347   2.479  0.5391  0.0165 -0.0786
 3745TIP3    H232651   2.204   0.264   2.382  0.4414  0.4040 -0.4926
 3746TIP3   OH232652   1.549   4.032   6.569 -0.6052 -0.1731  0.5180
 3746TIP3    H132653   1.627   4.010   6.621 -1.1025  0.0681  1.3824
 3746TIP3    H232654   1.521   4.118   6.603 -1.2752 -0.2828  0.2538
 3747TIP3   OH232655   1.593   2.295  11.037  0.1436  0.2361 -0.5653
 3747TIP3    H132656   1.524   2.335  11.089  0.6026 -1.2299  1.2034
 3747TIP3    H232657   1.604   2.354  10.962 -0.2593  2.5650  1.1811
 3748TIP3   OH232658   4.368   3.905   5.417  0.2255  0.4186 -0.0850
 3748TIP3    H132659   4.341   3.957   5.342  1.1309 -0.1530 -0.8181
 3748TIP3    H232660   4.286   3.876   5.458 -0.2682 -0.1081 -1.4368
 3749TIP3   OH232661   0.021   5.129   5.356 -0.0887 -0.2495 -0.1655
 3749TIP3    H132662   0.111   5.095   5.354  0.0285  0.1222 -2.0295
 3749TIP3    H232663   0.018   5.194   5.285 -1.0362  1.8114  1.7005
 3750TIP3   OH232664   0.390   5.563   2.962  0.2127 -0.2050  0.1313
 3750TIP3    H132665   0.473   5.583   2.919  0.2464  1.4016  0.8998
 3750TIP3    H232666   0.413   5.505   3.035  0.6181  0.0240  0.1840
 3751TIP3   OH232667   2.391   6.468   1.871  0.8702 -0.2167 -0.6858
 3751TIP3    H132668   2.328   6.457   1.800  0.5591 -0.1408 -0.4234
 3751TIP3    H232669   2.426   6.556   1.858  0.9307 -0.2628 -0.8388
 3752TIP3   OH232670   2.305   6.439  11.867  0.0428 -0.2906  0.2037
 3752TIP3    H132671   2.293   6.491  11.788 -1.1900 -2.2755 -0.9445
 3752TIP3    H232672   2.399   6.418  11.867  0.1074 -0.0382 -0.5608
 3753TIP3   OH232673   3.631   5.106   4.715 -0.5077  0.0734 -0.1926
 3753TIP3    H132674   3.609   5.044   4.785  0.6498  0.7164  0.7700
 3753TIP3    H232675   3.568   5.177   4.725 -1.8693 -0.9552 -1.3311
 3754TIP3   OH232676   6.712   3.042   4.538 -0.3205  0.1017 -0.5717
 3754TIP3    H132677   6.754   2.989   4.605 -1.0455 -0.1755 -0.3357
 3754TIP3    H232678   6.781   3.058   4.473 -0.3569 -1.9952 -1.1597
 3755TIP3   OH232679   2.296   2.817   2.729 -0.5344  0.4973  0.1909
 3755TIP3    H132680   2.209   2.853   2.711 -0.8752  0.4137  1.5789
 3755TIP3    H232681   2.341   2.818   2.645 -1.8214  0.7091 -0.5019
 3756TIP3   OH232682   1.349   3.993  17.043  0.0483 -0.3384  0.0233
 3756TIP3    H132683   1.286   3.924  17.066  0.2542 -0.6812 -0.4470
 3756TIP3    H232684   1.394   3.959  16.966 -0.8051  0.9207 -1.0374
 3757TIP3   OH232685   5.630   5.793  14.990  0.0614  0.0833 -0.1293
 3757TIP3    H132686   5.548   5.839  14.973 -1.0336 -1.8144 -0.2094
 3757TIP3    H232687   5.620   5.759  15.079  0.9963  0.3229  0.0678
 3758TIP3   OH232688   4.541   4.436  15.907 -0.1013  0.4665  0.4083
 3758TIP3    H132689   4.551   4.364  15.969  1.9768  1.2358  1.0141
 3758TIP3    H232690   4.594   4.507  15.944 -0.8947  1.7989 -0.9473
 3759TIP3   OH232691   4.503   1.902  10.568  0.0887  0.1885 -0.0353
 3759TIP3    H132692   4.436   1.846  10.527  1.2226 -1.4828  0.3552
 3759TIP3    H232693   4.461   1.934  10.648  0.2881 -2.1628  1.0493
 3760TIP3   OH232694   6.105   2.664   4.344  0.6663 -0.0175 -0.3703
 3760TIP3    H132695   6.127   2.757   4.348  0.6468  0.0676 -1.8865
 3760TIP3    H232696   6.009   2.662   4.350  0.7172  0.0045  0.4643
 3761TIP3   OH232697   1.819   0.866   2.849 -0.3629 -0.5030 -0.3239
 3761TIP3    H132698   1.748   0.844   2.789 -1.9637  0.2868  1.2394
 3761TIP3    H232699   1.857   0.945   2.812  0.4752 -1.5519 -1.7849
 3762TIP3   OH232700   2.249   1.860  16.724 -0.5330 -0.1057  0.3513
 3762TIP3    H132701   2.195   1.938  16.717  0.0753  0.2865 -0.0314
 3762TIP3    H232702   2.256   1.827  16.634 -0.3698 -0.3122  0.4383
 3763TIP3   OH232703   2.762   5.271   0.186 -0.2755 -0.5636  0.1269
 3763TIP3    H132704   2.756   5.179   0.161 -2.4914 -0.3697 -0.1877
 3763TIP3    H232705   2.823   5.271   0.260  1.8305 -1.8941 -1.5512
 3764TIP3   OH232706   6.639   0.266  13.735  0.1875  0.0894 -0.0449
 3764TIP3    H132707   6.672   0.347  13.773 -0.4232 -0.0074  0.7081
 3764TIP3    H232708   6.660   0.273  13.642  0.9549  0.7007  0.1686
 3765TIP3   OH232709   0.291   6.006   0.387 -0.3594  0.5259 -0.1693
 3765TIP3    H132710   0.379   5.991   0.422  0.9478  0.8674 -3.1634
 3765TIP3    H232711   0.255   5.919   0.374  0.0766  0.3489 -0.2051
 3766TIP3   OH232712   0.292   0.858  10.596  0.5585  0.3563 -0.1058
 3766TIP3    H132713   0.381   0.840  10.566  0.4246  0.9420 -0.8777
 3766TIP3    H232714   0.288   0.954  10.602 -0.6694  0.4685 -2.1470
 3767TIP3   OH232715   5.897   0.320  16.630  0.4942  0.6590 -0.1521
 3767TIP3    H132716   5.958   0.247  16.616  0.5847  0.8176 -0.5926
 3767TIP3    H232717   5.812   0.278  16.641  0.7671  0.3973  1.0597
 3768TIP3   OH232718   0.397   5.312   3.169  0.5971  0.2566 -0.1018
 3768TIP3    H132719   0.379   5.218   3.176  1.8527 -0.0369 -0.7591
 3768TIP3    H232720   0.456   5.331   3.241 -0.3256  0.7191  0.5401
 3769TIP3   OH232721   6.502   0.469  10.778  0.1112  0.5403 -0.6941
 3769TIP3    H132722   6.495   0.398  10.714  0.3889  0.6201 -0.8160
 3769TIP3    H232723   6.569   0.527  10.742  0.8696  0.1552  0.0808
 3770TIP3   OH232724   4.112   5.110   0.772  0.2531 -0.1488 -0.4814
 3770TIP3    H132725   4.206   5.096   0.765  0.5642  1.6353  0.0429
 3770TIP3    H232726   4.077   5.080   0.688  1.5252  1.0801 -1.4743
 3771TIP3   OH232727   0.788   5.643   3.470 -0.0132  0.3394 -0.0019
 3771TIP3    H132728   0.837   5.723   3.448 -1.2598  1.0843 -0.1056
 3771TIP3    H232729   0.754   5.612   3.387  0.5361 -0.3505  0.0294
 3772TIP3   OH232730   3.734   2.684  15.937 -1.2686  0.1070 -0.0738
 3772TIP3    H132731   3.704   2.775  15.934 -0.6528  0.3933  2.0018
 3772TIP3    H232732   3.669   2.639  15.991 -0.9067 -0.4224 -0.0773
 3773TIP3   OH232733   0.283   0.433  12.237  0.4248  0.3360  0.1868
 3773TIP3    H132734   0.367   0.426  12.191  0.9526  1.2992  0.9593
 3773TIP3    H232735   0.228   0.366  12.198  0.6123  1.5851 -2.3531
 3774TIP3   OH232736   3.955   5.578  11.392 -0.8403  0.0856 -0.3745
 3774TIP3    H132737   4.017   5.601  11.323  0.0788 -0.6648  0.1926
 3774TIP3    H232738   3.890   5.522  11.348 -0.7149  0.2814 -0.8111
 3775TIP3   OH232739   0.516   6.339  11.332  0.0290  0.7057  0.1090
 3775TIP3    H132740   0.552   6.335  11.420 -0.1974 -0.5023  0.1519
 3775TIP3    H232741   0.471   6.423  11.328 -0.5579  0.4600  1.3809
 3776TIP3   OH232742   0.466   6.254   1.243  0.2060  0.3031 -0.5280
 3776TIP3    H132743   0.511   6.298   1.315  0.4991  0.2554 -0.6832
 3776TIP3    H232744   0.514   6.172   1.232 -0.7421 -0.3682  0.2063
 3777TIP3   OH232745   1.761   4.374   3.392 -0.4530  0.0341 -0.4616
 3777TIP3    H132746   1.696   4.419   3.446 -0.1846  0.5743 -0.5863
 3777TIP3    H232747   1.717   4.293   3.365 -0.1834 -0.8105  1.5067
 3778TIP3   OH232748   5.196   2.000   2.207  0.0376  0.6298  0.4783
 3778TIP3    H132749   5.171   2.022   2.118  0.9875 -0.3178 -0.0307
 3778TIP3    H232750   5.274   1.945   2.198 -1.9243 -2.4504  1.7268
 3779TIP3   OH232751   2.430   2.062  15.275  0.4092  0.0404 -0.1007
 3779TIP3    H132752   2.521   2.081  15.254  0.7023  0.1619  1.2210
 3779TIP3    H232753   2.435   1.990  15.338 -0.2757  1.6359  1.8476
 3780TIP3   OH232754   3.222   4.990   3.643 -0.0162 -0.0794 -0.0139
 3780TIP3    H132755   3.218   5.068   3.587 -1.1165 -0.8026 -0.9693
 3780TIP3    H232756   3.204   5.023   3.731  0.4563  0.8832 -0.2730
 3781TIP3   OH232757   0.013   3.395   5.781  0.3048 -0.6648 -0.2682
 3781TIP3    H132758   0.090   3.385   5.726  0.7929 -2.3065  0.6869
 3781TIP3    H232759   0.011   3.316   5.835  0.0855  1.1048  2.3959
 3782TIP3   OH232760   0.472   4.242  11.802 -0.0729  0.4273 -0.2627
 3782TIP3    H132761   0.496   4.334  11.787  0.0022  0.7495  1.7463
 3782TIP3    H232762   0.394   4.246  11.857 -0.3534 -0.7149 -0.5751
 3783TIP3   OH232763   3.524   6.002  12.570 -0.2682  0.5668 -0.5988
 3783TIP3    H132764   3.431   6.013  12.593 -0.1287  0.4425  0.0222
 3783TIP3    H232765   3.522   5.947  12.492 -0.5806 -2.9030  1.7412
 3784TIP3   OH232766   0.422   2.426   2.386  0.2109 -0.3199  0.1528
 3784TIP3    H132767   0.384   2.356   2.438 -0.5042  0.1000  0.1970
 3784TIP3    H232768   0.440   2.496   2.449  2.0079 -0.8900  0.3106
 3785TIP3   OH232769   1.324   0.768   4.988 -0.3199 -0.2135 -0.2654
 3785TIP3    H132770   1.238   0.799   5.016 -0.6625  1.6153 -3.0748
 3785TIP3    H232771   1.385   0.803   5.053 -1.5644 -0.3725  0.9884
 3786TIP3   OH232772   2.080   4.490   3.789 -0.4847  0.4996 -0.4028
 3786TIP3    H132773   2.097   4.500   3.883  0.1964 -1.5177 -0.2953
 3786TIP3    H232774   2.146   4.545   3.746  1.5123 -1.3350  0.2228
 3787TIP3   OH232775   6.478   6.125  16.561 -0.1411  0.0154 -0.7279
 3787TIP3    H132776   6.487   6.198  16.500 -2.6716  0.0564 -1.1154
 3787TIP3    H232777   6.477   6.048  16.506  0.8376 -0.2123 -0.4471
 3788TIP3   OH232778   3.106   6.120   1.890 -0.1969  0.5725 -0.2228
 3788TIP3    H132779   3.090   6.176   1.965  0.5575 -0.6905  0.9117
 3788TIP3    H232780   3.201   6.121   1.878 -0.0839 -1.0439  0.3102
 3789TIP3   OH232781   3.667   3.184  13.654  0.6626 -0.0559  0.0553
 3789TIP3    H132782   3.615   3.211  13.578  0.2740  0.2625  0.4234
 3789TIP3    H232783   3.716   3.107  13.625 -0.1997 -0.5022 -0.2341
 3790TIP3   OH232784   2.061   0.862  12.272 -0.1665 -0.4085 -0.7485
 3790TIP3    H132785   2.065   0.957  12.277  0.8386 -0.4168 -1.3459
 3790TIP3    H232786   2.031   0.834  12.359 -1.2398  0.4891 -0.8190
 3791TIP3   OH232787   6.158   1.231  11.042 -0.5111 -0.2745 -0.0269
 3791TIP3    H132788   6.160   1.199  11.133 -0.8083  1.8437  0.7541
 3791TIP3    H232789   6.200   1.317  11.046 -2.4522  0.7879 -1.4716
 3792TIP3   OH232790   4.239   2.313  12.981 -0.3850  0.4501  1.0487
 3792TIP3    H132791   4.208   2.299  12.892  0.6124 -0.9506  0.8981
 3792TIP3    H232792   4.312   2.373  12.973  1.9162 -2.3291  0.4957
 3793TIP3   OH232793   5.348   4.000  11.336 -0.1798 -0.3966 -0.0001
 3793TIP3    H132794   5.282   3.951  11.287 -0.9298 -0.9455  1.5227
 3793TIP3    H232795   5.303   4.080  11.364  0.9922  1.1570 -2.3406
 3794TIP3   OH232796   0.423   6.707   2.320  0.1492  0.2945  0.4402
 3794TIP3    H132797   0.490   6.664   2.267  0.3023 -0.2425  1.0661
 3794TIP3    H232798   0.356   6.733   2.257 -0.3858 -1.6777  0.1668
 3795TIP3   OH232799   3.038   1.527  12.789  0.5858 -0.7208  0.0096
 3795TIP3    H132800   3.108   1.560  12.846  0.0473  0.7468 -0.1590
 3795TIP3    H232801   3.081   1.514  12.705  0.2778  2.0207 -0.6261
 3796TIP3   OH232802   2.080   0.598   0.560  0.0800 -0.6280 -0.1761
 3796TIP3    H132803   2.123   0.677   0.591  0.0528 -0.6327 -0.1266
 3796TIP3    H232804   2.019   0.575   0.629  0.8763 -1.3098  0.3015
 3797TIP3   OH232805   0.816   5.652  14.073  0.5280 -0.0837  0.3347
 3797TIP3    H132806   0.832   5.681  14.163  1.6141 -0.6827  0.3439
 3797TIP3    H232807   0.887   5.690  14.022  0.8894 -1.1499  0.0207
 3798TIP3   OH232808   4.430   3.065   4.987 -0.2128 -0.4080 -0.3182
 3798TIP3    H132809   4.373   2.993   5.014  0.5265 -0.3418  1.5092
 3798TIP3    H232810   4.371   3.131   4.951 -1.1216 -0.9915  0.0905
 3799TIP3   OH232811   3.336   1.909   3.164 -0.2949  0.0560  0.0157
 3799TIP3    H132812   3.334   1.839   3.229  2.0851 -0.3789 -0.3498
 3799TIP3    H232813   3.348   1.989   3.215  2.9133 -0.4085  0.0972
 3800TIP3   OH232814   4.066   5.269   2.645 -0.4679 -0.0927  0.0639
 3800TIP3    H132815   3.977   5.232   2.644  0.4903 -2.4150 -1.4793
 3800TIP3    H232816   4.109   5.226   2.719  0.5544 -1.8806 -1.5478
 3801TIP3   OH232817   2.555   0.228   3.776 -0.1905 -0.4330 -0.0927
 3801TIP3    H132818   2.556   0.255   3.684  1.0039 -0.9569 -0.2517
 3801TIP3    H232819   2.490   0.284   3.818 -0.3007  0.2193 -1.1366
 3802TIP3   OH232820   0.945   2.463  13.728  0.5465 -0.1962 -0.3551
 3802TIP3    H132821   0.964   2.393  13.790  0.2626  0.1915  0.1805
 3802TIP3    H232822   1.023   2.470  13.674  1.1852  0.1403  0.6130
 3803TIP3   OH232823   3.492   1.988  16.783  0.2822  0.0874  0.5521
 3803TIP3    H132824   3.564   1.975  16.720  0.8359  1.9067  0.7892
 3803TIP3    H232825   3.413   1.974  16.731  0.7529  0.4514 -0.2912
 3804TIP3   OH232826   6.080   0.078  12.395 -0.3002  0.2475  0.2083
 3804TIP3    H132827   6.093   0.021  12.318 -0.5543  0.1043  0.2723
 3804TIP3    H232828   6.152   0.141  12.390  0.5454 -0.6652  0.6673
 3805TIP3   OH232829   0.937   2.541   4.454  0.0574  0.0714 -0.2572
 3805TIP3    H132830   0.964   2.620   4.502 -0.2619  2.0021 -3.1096
 3805TIP3    H232831   0.851   2.564   4.419 -1.2256 -2.5774  1.0773
 3806TIP3   OH232832   5.548   2.194   1.742 -0.6217 -0.0125 -0.3660
 3806TIP3    H132833   5.542   2.105   1.706  0.1445 -0.1296 -0.2154
 3806TIP3    H232834   5.531   2.252   1.668 -0.9413 -0.2812 -0.5038
 3807TIP3   OH232835   5.424   6.067  16.772 -0.1454 -0.3128  0.4758
 3807TIP3    H132836   5.418   6.136  16.838  0.7257  0.3572 -0.1197
 3807TIP3    H232837   5.339   6.066  16.729 -0.7010 -0.7312  1.5798
 3808TIP3   OH232838   1.911   1.085  15.764 -0.1206  0.7217 -0.1023
 3808TIP3    H132839   1.961   1.067  15.684  0.7878  1.1475  0.3574
 3808TIP3    H232840   1.970   1.138  15.817 -0.9290  0.9050  0.6212
 3809TIP3   OH232841   4.228   3.750   3.308  0.3578 -0.4037  0.6233
 3809TIP3    H132842   4.274   3.674   3.344  3.9428  1.3433  0.0403
 3809TIP3    H232843   4.240   3.742   3.213  0.3369  0.6269  0.5299
 3810TIP3   OH232844   4.541   3.193  15.894 -0.5368  0.1513 -0.1671
 3810TIP3    H132845   4.485   3.163  15.822  0.7284 -0.6338 -0.8469
 3810TIP3    H232846   4.541   3.120  15.956 -1.0861  0.5603  0.3161
 3811TIP3   OH232847   1.434   3.008  11.473 -0.3815  0.2711  0.3118
 3811TIP3    H132848   1.385   2.942  11.424  0.8785  0.9271 -1.9347
 3811TIP3    H232849   1.422   3.088  11.422  2.3798  0.5969  0.1078
 3812TIP3   OH232850   3.321   5.757  16.485 -0.1813  0.0144  0.1766
 3812TIP3    H132851   3.350   5.737  16.575 -1.1467  1.3175  0.7913
 3812TIP3    H232852   3.229   5.732  16.484  0.2040 -1.4157 -0.9163
 3813TIP3   OH232853   2.504   3.078   6.421 -0.3572 -0.2615  0.3583
 3813TIP3    H132854   2.493   3.159   6.472 -1.0788  0.5494 -1.0728
 3813TIP3    H232855   2.597   3.057   6.430 -0.0704  0.9716  0.3675
 3814TIP3   OH232856   0.983   3.458  16.018 -0.3127 -0.6871  0.1888
 3814TIP3    H132857   0.992   3.467  16.113 -2.8321  1.9347  0.2459
 3814TIP3    H232858   1.057   3.507  15.982 -1.2998  1.3013  0.8012
 3815TIP3   OH232859   0.384   4.455   5.449  0.3358 -0.6771 -0.1738
 3815TIP3    H132860   0.429   4.513   5.511 -1.1927 -0.2877  0.6076
 3815TIP3    H232861   0.452   4.426   5.389  1.7925 -0.8105  1.5065
 3816TIP3   OH232862   3.754   2.760  14.641  0.4564 -0.0895  0.4068
 3816TIP3    H132863   3.677   2.726  14.594  0.0440  0.0645  0.9620
 3816TIP3    H232864   3.798   2.682  14.674  0.6263 -0.1874 -0.0531
 3817TIP3   OH232865   6.370   0.730   0.826  0.1777 -0.1309  0.1998
 3817TIP3    H132866   6.357   0.667   0.897  2.2134 -0.2321  0.5056
 3817TIP3    H232867   6.286   0.775   0.818  0.0450  0.1289  2.9021
 3818TIP3   OH232868   0.274   4.406  15.129  0.5243  0.0739  0.2141
 3818TIP3    H132869   0.240   4.317  15.136  0.5675  0.0443  0.0396
 3818TIP3    H232870   0.200   4.461  15.156  0.3818  0.0021 -0.0208
 3819TIP3   OH232871   5.852   2.668  16.473 -0.1805 -0.3974 -0.5360
 3819TIP3    H132872   5.765   2.629  16.460 -0.3039 -0.7886  1.3431
 3819TIP3    H232873   5.843   2.757  16.438 -1.9613  0.2518  1.4350
 3820TIP3   OH232874   5.958   2.472   2.312  0.3324  0.4905 -0.4871
 3820TIP3    H132875   6.045   2.466   2.274  1.1700  2.3788  1.0257
 3820TIP3    H232876   5.921   2.551   2.273 -1.3698 -1.2128 -2.3958
 3821TIP3   OH232877   2.821   1.983  15.467  0.3253  0.0752  0.0085
 3821TIP3    H132878   2.749   2.028  15.512 -1.9717 -2.5851 -0.8130
 3821TIP3    H232879   2.893   1.983  15.530 -1.2650  0.5767  1.8786
 3822TIP3   OH232880   3.818   1.985   2.051  0.1270 -0.1704  0.1255
 3822TIP3    H132881   3.840   2.077   2.063  0.8220  0.0024 -2.1680
 3822TIP3    H232882   3.890   1.938   2.094  1.9603  0.3966 -2.2018
 3823TIP3   OH232883   4.485   2.176   0.087  0.8497 -0.0144 -0.3760
 3823TIP3    H132884   4.545   2.111   0.123  0.3661 -0.1018  0.2849
 3823TIP3    H232885   4.523   2.200   0.002  1.6959 -0.2352 -0.0651
 3824TIP3   OH232886   4.841   3.727   4.720 -0.1478 -0.3815  0.1505
 3824TIP3    H132887   4.750   3.756   4.723 -0.1957 -0.4380 -0.5719
 3824TIP3    H232888   4.841   3.644   4.768 -0.3498 -0.0637  0.7059
 3825TIP3   OH232889   4.183   2.927  13.346  0.3156  0.8524  0.9712
 3825TIP3    H132890   4.187   3.023  13.347  0.2591  0.8510  1.4154
 3825TIP3    H232891   4.161   2.905  13.256 -0.0312  1.2741  0.9512
 3826TIP3   OH232892   2.722   0.813  15.808  0.0101 -0.3371 -0.0681
 3826TIP3    H132893   2.630   0.815  15.833 -0.2871 -2.4929 -0.8942
 3826TIP3    H232894   2.767   0.772  15.882  0.2759  0.4221  0.1998
 3827TIP3   OH232895   5.212   3.901   2.255  0.5033 -0.9131  0.0598
 3827TIP3    H132896   5.192   3.842   2.327 -1.1410  0.4244  0.7525
 3827TIP3    H232897   5.202   3.989   2.292  1.5100 -0.2041 -1.3004
 3828TIP3   OH232898   5.173   4.500   0.130 -0.3497  0.3105  0.3481
 3828TIP3    H132899   5.210   4.436   0.191  0.1040  2.0115  1.9254
 3828TIP3    H232900   5.245   4.560   0.111 -0.8628  0.5882 -0.7663
 3829TIP3   OH232901   0.991   2.327  11.432  0.2906  0.0143 -0.2459
 3829TIP3    H132902   1.000   2.293  11.521 -2.1576 -0.5996 -0.2056
 3829TIP3    H232903   0.988   2.248  11.377  0.8831  0.3645 -0.7790
 3830TIP3   OH232904   6.269   3.067   1.035 -0.1585 -0.5030  0.8703
 3830TIP3    H132905   6.265   3.163   1.041 -0.9478 -0.6008  2.0816
 3830TIP3    H232906   6.263   3.037   1.125  2.6829 -1.6445  0.7231
 3831TIP3   OH232907   1.555   4.019   2.789  0.0830  0.1374 -0.2431
 3831TIP3    H132908   1.475   3.968   2.773  0.8504 -1.0469 -0.3739
 3831TIP3    H232909   1.524   4.108   2.804 -1.2804 -0.3558 -0.0696
 3832TIP3   OH232910   2.686   5.488   3.654 -0.1870  0.3796 -0.3877
 3832TIP3    H132911   2.722   5.507   3.741 -0.4028  2.1524 -0.6752
 3832TIP3    H232912   2.633   5.410   3.667 -1.3966  1.4665  1.4109
 3833TIP3   OH232913   4.133   4.589   1.313  0.0232  0.3434 -0.1765
 3833TIP3    H132914   4.041   4.560   1.317  0.8088 -2.1922  0.9152
 3833TIP3    H232915   4.128   4.684   1.311 -2.6539  0.2517 -0.7202
 3834TIP3   OH232916   4.349   4.689   3.834 -0.0384  0.6826  0.6099
 3834TIP3    H132917   4.377   4.607   3.793  0.0030  0.0185  1.9390
 3834TIP3    H232918   4.386   4.758   3.778  0.4929 -0.2063 -0.1393
 3835TIP3   OH232919   0.793   6.507   1.113  0.3040  0.0978  0.0066
 3835TIP3    H132920   0.733   6.523   1.041 -1.1717  0.0806  1.2136
 3835TIP3    H232921   0.842   6.429   1.088 -0.4944 -0.1510 -0.7666
 3836TIP3   OH232922   0.051   3.080   3.978 -0.5657  0.0809 -0.0019
 3836TIP3    H132923   0.042   3.042   3.890 -2.9965  3.4952 -1.3441
 3836TIP3    H232924   0.130   3.133   3.974 -1.3714  1.2664 -0.5878
 3837TIP3   OH232925   2.073   5.988  13.575  0.0851 -0.2078 -0.7602
 3837TIP3    H132926   2.164   6.018  13.566  0.3966 -0.4100  1.4302
 3837TIP3    H232927   2.078   5.919  13.640 -2.1006  1.9754  1.8204
 3838TIP3   OH232928   0.858   2.775   1.146  0.6622 -0.0192 -0.2517
 3838TIP3    H132929   0.865   2.728   1.063  2.5126  2.0012 -1.3067
 3838TIP3    H232930   0.928   2.840   1.142  1.0371 -0.1278  3.0679
 3839TIP3   OH232931   5.214   3.967  16.417 -0.3470  0.3429 -0.1831
 3839TIP3    H132932   5.131   3.947  16.373 -1.4209  0.0635  1.8913
 3839TIP3    H232933   5.274   3.899  16.389 -1.6359 -1.0693  0.4285
 3840TIP3   OH232934   1.174   3.232   5.409  0.2926  0.6404  0.0088
 3840TIP3    H132935   1.192   3.226   5.315 -0.5200  1.8409 -0.2427
 3840TIP3    H232936   1.250   3.278   5.445 -0.7025  2.8117 -0.5449
 3841TIP3   OH232937   3.108   0.206   0.958  0.3983  0.3106  0.0927
 3841TIP3    H132938   3.041   0.158   0.908 -0.3636  1.7067 -0.2624
 3841TIP3    H232939   3.091   0.183   1.049 -1.2682  1.4507  0.1004
 3842TIP3   OH232940   5.505   4.099   5.795  0.0215 -0.3715 -0.3879
 3842TIP3    H132941   5.583   4.100   5.740  0.5456  0.5782  0.3586
 3842TIP3    H232942   5.526   4.158   5.867 -2.0328  1.1946 -1.0355
 3843TIP3   OH232943   3.423   1.250   2.202 -0.1961  0.4135 -0.2332
 3843TIP3    H132944   3.466   1.167   2.226  0.2821  0.9306  0.7309
 3843TIP3    H232945   3.411   1.244   2.107  1.5448  0.0286 -0.4430
 3844TIP3   OH232946   0.025   1.750  11.886 -0.1518  0.0253 -0.5900
 3844TIP3    H132947  -0.035   1.802  11.939  0.3409  0.5728 -0.5665
 3844TIP3    H232948   0.057   1.811  11.820 -1.1160 -0.7692 -1.8099
 3845TIP3   OH232949   1.725   1.330  17.048 -0.1255 -0.7010  0.1239
 3845TIP3    H132950   1.731   1.249  17.098 -0.7116  1.8680  4.5998
 3845TIP3    H232951   1.813   1.342  17.011  0.7828 -1.8756  1.8707
 3846TIP3   OH232952   2.951   3.387  15.535 -0.1875  0.0740  0.0369
 3846TIP3    H132953   3.002   3.428  15.605  1.3338  1.0245 -1.5840
 3846TIP3    H232954   3.011   3.321  15.499 -0.7468 -0.0010 -0.7569
 3847TIP3   OH232955   0.901   5.784  15.107  0.0637  0.2404  0.3740
 3847TIP3    H132956   0.885   5.737  15.026  0.9130 -1.6523  1.2734
 3847TIP3    H232957   0.848   5.738  15.172  0.3658  0.9514  1.1411
 3848TIP3   OH232958   5.659   0.185   1.090 -0.6389  0.1316 -0.9531
 3848TIP3    H132959   5.741   0.196   1.041 -0.3846 -0.1623 -0.6043
 3848TIP3    H232960   5.619   0.107   1.052 -1.0073  0.5697 -1.4653
 3849TIP3   OH232961   2.319   4.490  16.173  0.2207 -0.3726  0.2464
 3849TIP3    H132962   2.380   4.427  16.211 -0.8769 -1.5779  0.0057
 3849TIP3    H232963   2.344   4.495  16.081  1.6071  1.0775  0.6751
 3850TIP3   OH232964   1.979   3.544  12.468 -0.2560 -0.4012 -0.5712
 3850TIP3    H132965   1.956   3.636  12.451  1.2766  0.6241  2.4767
 3850TIP3    H232966   2.071   3.537  12.441  0.0330 -0.6475  0.4464
 3851TIP3   OH232967   5.174   5.720  11.448 -0.4468 -0.3208  0.2803
 3851TIP3    H132968   5.155   5.807  11.412  0.8652 -0.0017  0.3588
 3851TIP3    H232969   5.215   5.672  11.376  0.5836 -0.2520  0.8154
 3852TIP3   OH232970   6.549   2.450  15.894  0.3149 -0.1994 -0.0424
 3852TIP3    H132971   6.628   2.408  15.928  0.9760 -0.6715 -2.1300
 3852TIP3    H232972   6.549   2.431  15.800 -2.2325 -0.1146 -0.0985
 3853TIP3   OH232973   0.939   3.910   1.823 -0.7686  0.4589  0.2948
 3853TIP3    H132974   0.968   3.990   1.779 -1.6034 -0.4640 -1.9998
 3853TIP3    H232975   0.844   3.920   1.831 -1.0672 -0.9159 -1.3215
 3854TIP3   OH232976   3.579   6.150  16.143  0.7211 -0.3819  0.6950
 3854TIP3    H132977   3.561   6.153  16.237  0.7444 -1.7009  0.7374
 3854TIP3    H232978   3.500   6.115  16.104  0.8242 -0.1203  0.2449
 3855TIP3   OH232979   0.739   4.423   2.313 -0.1925 -0.2543  0.1999
 3855TIP3    H132980   0.787   4.498   2.347  0.3190 -0.0045 -1.0471
 3855TIP3    H232981   0.731   4.440   2.219 -3.7690  0.3095  0.5479
 3856TIP3   OH232982   1.599   6.429  15.883  0.0730  0.5445  0.5446
 3856TIP3    H132983   1.538   6.469  15.946 -2.1390  0.4159 -1.4167
 3856TIP3    H232984   1.595   6.487  15.807 -0.2582 -1.3543 -0.9104
 3857TIP3   OH232985   1.246   1.516  14.182 -0.3510 -0.0726 -0.8002
 3857TIP3    H132986   1.159   1.537  14.217  0.2616  4.3782 -1.6101
 3857TIP3    H232987   1.306   1.534  14.255  0.2182  1.4034 -1.5970
 3858TIP3   OH232988   1.853   4.239  13.769  0.6003  0.4251 -0.1380
 3858TIP3    H132989   1.863   4.297  13.693 -0.3777  0.6545 -0.0900
 3858TIP3    H232990   1.845   4.152  13.731  0.0551  0.5454 -0.3046
 3859TIP3   OH232991   5.403   6.096   5.378  0.1256 -0.2115 -0.5117
 3859TIP3    H132992   5.313   6.121   5.357  0.3864 -0.7914 -2.3820
 3859TIP3    H232993   5.426   6.151   5.453 -0.4775  2.7723 -2.4287
 3860TIP3   OH232994   0.541   2.940   3.770  0.5779 -0.6596  0.8167
 3860TIP3    H132995   0.614   2.982   3.814 -0.2178  1.2412  0.3625
 3860TIP3    H232996   0.535   2.853   3.811  1.7956 -0.0892  2.2536
 3861TIP3   OH232997   2.323   1.965   2.027 -0.3288 -0.3251  0.5407
 3861TIP3    H132998   2.372   1.936   2.104  0.0549 -1.6352 -0.1909
 3861TIP3    H232999   2.231   1.945   2.048 -0.0244 -2.6539 -0.1736
 3862TIP3   OH233000   3.174   0.626   1.316  1.0420  0.1604  0.3828
 3862TIP3    H133001   3.158   0.576   1.235  0.2118  1.1878 -0.1062
 3862TIP3    H233002   3.182   0.559   1.384 -1.4253 -0.6161 -0.0336
 3863TIP3   OH233003   5.342   3.016   2.353 -0.1428  0.2066 -0.0843
 3863TIP3    H133004   5.253   3.050   2.359 -0.2784 -0.2232  0.3229
 3863TIP3    H233005   5.390   3.084   2.305 -0.8223  0.1607 -0.8366
 3864TIP3   OH233006   0.353   5.248   4.431  0.3405 -0.3959  0.8347
 3864TIP3    H133007   0.259   5.252   4.447  0.1935 -4.3557  1.3451
 3864TIP3    H233008   0.363   5.284   4.343 -1.7679 -0.7752  0.4054
 3865TIP3   OH233009   2.000   3.658  11.828 -0.4333 -0.2451 -0.0083
 3865TIP3    H133010   1.998   3.741  11.875 -0.6923 -0.0245 -0.4031
 3865TIP3    H233011   1.936   3.603  11.873 -0.0046 -0.3550  0.4770
 3866TIP3   OH233012   5.333   3.534   1.336  0.2819 -0.2245 -0.5196
 3866TIP3    H133013   5.374   3.601   1.391 -1.5439  1.1659 -0.8087
 3866TIP3    H233014   5.354   3.451   1.380 -0.5518  0.7920  1.9001
 3867TIP3   OH233015   5.616   2.223   1.105  0.3780 -0.5831 -0.4865
 3867TIP3    H133016   5.532   2.207   1.148  1.3372 -1.2673  1.1796
 3867TIP3    H233017   5.615   2.316   1.085 -0.1791 -0.2856  0.8511
 3868TIP3   OH233018   6.782   2.138   4.671  0.2474 -0.2834  0.4891
 3868TIP3    H133019   6.757   2.046   4.673  1.4538 -0.6447 -0.2205
 3868TIP3    H233020   6.777   2.166   4.762  0.9098 -1.3509  0.8670
 3869TIP3   OH233021   4.043   4.137  15.740 -0.5248  0.4583 -0.8761
 3869TIP3    H133022   4.070   4.150  15.649  3.1560  2.3694  0.3972
 3869TIP3    H233023   4.024   4.225  15.772  0.6321  0.0734  0.9039
 3870TIP3   OH233024   3.281   3.195   4.096  0.3341 -0.7385 -0.0997
 3870TIP3    H133025   3.371   3.225   4.083 -0.0873  0.4951 -0.2321
 3870TIP3    H233026   3.258   3.226   4.184 -0.6557  0.7779 -0.8591
 3871TIP3   OH233027   2.845   2.538  13.918  0.1723 -0.0500  0.1887
 3871TIP3    H133028   2.829   2.445  13.937  1.7454 -0.3503  0.1257
 3871TIP3    H233029   2.780   2.560  13.851 -2.4274 -0.1894  2.5979
 3872TIP3   OH233030   5.890   0.328   4.693  0.3405  0.3652  0.0500
 3872TIP3    H133031   5.963   0.270   4.673 -0.7901 -0.3888 -2.0576
 3872TIP3    H233032   5.850   0.347   4.608 -4.3006 -2.3755  1.4359
 3873TIP3   OH233033   5.960   5.628   6.793 -0.1837 -0.3762  0.5566
 3873TIP3    H133034   6.002   5.550   6.756 -0.1264 -0.0418 -0.0890
 3873TIP3    H233035   5.951   5.608   6.886  1.5101 -0.4103  0.7312
 3874TIP3   OH233036   3.901   2.155   4.775  0.1463 -0.2827  0.0650
 3874TIP3    H133037   3.832   2.119   4.830 -0.3617  0.4643 -0.0794
 3874TIP3    H233038   3.871   2.243   4.753  1.7157  0.5132  1.0195
 3875TIP3   OH233039   3.466   3.060   5.387  0.2309  0.8236  0.7931
 3875TIP3    H133040   3.376   3.067   5.418 -0.2148  0.5443 -0.3946
 3875TIP3    H233041   3.498   3.150   5.385 -0.3914  1.0397  0.1892
 3876TIP3   OH233042   6.013   0.310   3.686  0.5605  0.2137 -0.2280
 3876TIP3    H133043   5.939   0.278   3.633  1.4544 -0.6521 -0.9695
 3876TIP3    H233044   6.005   0.262   3.768  0.3235  0.0934 -0.3189
 3877TIP3   OH233045   2.334   0.058  13.270 -0.1671 -0.3422 -0.2026
 3877TIP3    H133046   2.328  -0.034  13.293  0.3807 -0.1896  0.5649
 3877TIP3    H233047   2.415   0.066  13.221 -1.3994 -0.6904 -2.3652
 3878TIP3   OH233048   5.732   3.068  13.933  0.1008  0.0954  0.1277
 3878TIP3    H133049   5.668   2.997  13.943 -0.1471  0.2549 -0.3202
 3878TIP3    H233050   5.751   3.095  14.023  1.1033 -1.3451  0.3617
 3879TIP3   OH233051   0.660   4.174  16.575 -0.1922 -0.7463 -0.0400
 3879TIP3    H133052   0.642   4.082  16.554  0.2533 -0.5274 -1.4318
 3879TIP3    H233053   0.625   4.223  16.502 -0.8659  0.2519  0.9409
 3880TIP3   OH233054   4.994   4.627   2.991  0.0148  0.4903 -0.4508
 3880TIP3    H133055   4.916   4.573   2.981 -0.4781  1.1903 -0.4237
 3880TIP3    H233056   4.968   4.714   2.959  1.1081  0.4551 -1.4661
 3881TIP3   OH233057   0.578   3.792   1.062 -0.0482  0.0226  0.6179
 3881TIP3    H133058   0.560   3.706   1.099 -3.2528  0.0847 -0.6268
 3881TIP3    H233059   0.595   3.775   0.970  1.3183  0.5423  0.7662
 3882TIP3   OH233060   1.917   5.332   4.125 -0.6686  0.5550  0.0427
 3882TIP3    H133061   1.912   5.395   4.053  0.6858 -0.9372 -1.3867
 3882TIP3    H233062   1.833   5.340   4.170 -0.6222  3.1655 -0.2817
 3883TIP3   OH233063   5.582   6.136  11.304 -0.5131 -0.2836  0.1011
 3883TIP3    H133064   5.490   6.132  11.329 -0.2843 -3.4232  0.7178
 3883TIP3    H233065   5.603   6.046  11.278  2.0976  0.6258 -1.0639
 3884TIP3   OH233066   0.464   0.753  13.398 -0.3027 -0.3704  0.1368
 3884TIP3    H133067   0.518   0.800  13.461 -1.9718  0.6079  0.8725
 3884TIP3    H233068   0.391   0.812  13.381 -1.3671 -1.8560 -0.4983
 3885TIP3   OH233069   3.381   0.470   4.299 -0.6058  0.3073  0.8782
 3885TIP3    H133070   3.385   0.468   4.394 -0.4223 -1.7139  0.8394
 3885TIP3    H233071   3.394   0.562   4.276  2.7542  0.3277  2.6446
 3886TIP3   OH233072   5.766   2.779  12.623  0.0517  0.3925 -0.8335
 3886TIP3    H133073   5.755   2.826  12.541  1.0877  1.4406 -0.3854
 3886TIP3    H233074   5.823   2.705  12.602 -0.3151  0.2205 -1.2159
 3887TIP3   OH233075   2.250   5.777   1.908 -0.1506  0.1840  0.4460
 3887TIP3    H133076   2.176   5.834   1.932 -0.3268  0.2372 -0.1961
 3887TIP3    H233077   2.254   5.783   1.812  0.7295  0.2290  0.4805
 3888TIP3   OH233078   1.012   2.163   0.160  0.4250  0.3127  0.1804
 3888TIP3    H133079   1.013   2.113   0.079  1.7195  0.1500  0.2842
 3888TIP3    H233080   0.926   2.206   0.161 -0.4571 -1.4003 -0.2122
 3889TIP3   OH233081   3.986   4.392  13.230 -0.9324  0.4300  0.7004
 3889TIP3    H133082   3.957   4.303  13.212 -0.8864  0.3170  1.1973
 3889TIP3    H233083   3.976   4.438  13.146  1.6326 -0.7321 -0.2895
 3890TIP3   OH233084   6.074   3.538   5.342  0.0345 -0.5041 -0.2823
 3890TIP3    H133085   6.017   3.613   5.326 -0.6269 -0.9407  0.0194
 3890TIP3    H233086   6.051   3.475   5.273  0.8013 -0.3122 -0.7188
 3891TIP3   OH233087   2.911   0.465   1.480 -0.0415  0.2931  0.2911
 3891TIP3    H133088   2.971   0.534   1.507  3.2542 -1.1455 -3.0372
 3891TIP3    H233089   2.946   0.385   1.520 -2.0534  0.0315  1.5846
 3892TIP3   OH233090   0.692   6.445  12.317  0.0360 -0.3248 -0.2079
 3892TIP3    H133091   0.634   6.440  12.242  0.1995  2.1023 -0.5408
 3892TIP3    H233092   0.780   6.437  12.280  0.2003  2.3467 -0.5228
 3893TIP3   OH233093   3.761   0.459  13.212  0.3898 -0.6276  0.2712
 3893TIP3    H133094   3.838   0.485  13.262  1.3769 -2.3894 -0.2818
 3893TIP3    H233095   3.771   0.364  13.201 -2.7995 -1.1891  1.7921
 3894TIP3   OH233096   5.570   1.100   0.877  0.0951  0.1667 -0.3183
 3894TIP3    H133097   5.547   1.193   0.887  0.4179  0.5550 -2.7580
 3894TIP3    H233098   5.593   1.092   0.784  0.2910 -2.3151 -0.0703
 3895TIP3   OH233099   2.111   4.732   3.141  0.0038 -0.1914  0.1768
 3895TIP3    H133100   2.050   4.719   3.068 -1.5072 -0.7600  1.4914
 3895TIP3    H233101   2.096   4.822   3.169 -0.0330 -0.2428  0.3236
 3896TIP3   OH233102   5.080   0.620  16.123 -0.1442 -0.3760 -0.5418
 3896TIP3    H133103   5.150   0.636  16.186 -0.3742 -0.2275 -0.3253
 3896TIP3    H233104   5.068   0.703  16.079  1.4611 -1.0216 -2.2560
 3897TIP3   OH233105   2.146   6.466  11.063  0.5595 -0.0314 -0.1288
 3897TIP3    H133106   2.097   6.538  11.104  0.7117  0.8723 -1.4959
 3897TIP3    H233107   2.137   6.481  10.969  1.2141 -1.3958 -0.4288
 3898TIP3   OH233108   2.807   5.430  14.247  0.3305  0.0601 -0.0573
 3898TIP3    H133109   2.743   5.370  14.286 -1.3394  1.7352 -0.1250
 3898TIP3    H233110   2.774   5.517  14.269  0.9190  1.0052 -2.7086
 3899TIP3   OH233111   0.915   0.595   2.049 -0.0264  0.4683  0.2541
 3899TIP3    H133112   0.877   0.561   2.130 -0.4789 -0.1488 -0.2160
 3899TIP3    H233113   0.847   0.652   2.012  0.2136  0.8212  0.3437
 3900TIP3   OH233114   4.696   0.286  14.563  0.3607 -0.2221  0.1351
 3900TIP3    H133115   4.620   0.341  14.582 -0.4673 -1.0901 -0.6276
 3900TIP3    H233116   4.772   0.341  14.585 -0.3923  1.8493 -2.2906
 3901TIP3   OH233117   4.123   2.053  14.425 -0.1216 -0.4931  0.6462
 3901TIP3    H133118   4.218   2.044  14.425  0.0681  1.3453  0.1331
 3901TIP3    H233119   4.107   2.140  14.389 -2.0673 -1.4827 -1.0072
 3902TIP3   OH233120   5.850   2.210   6.236 -0.3587  0.2140  0.6269
 3902TIP3    H133121   5.940   2.177   6.237 -0.0007  1.1635  0.6350
 3902TIP3    H233122   5.820   2.196   6.147  0.2363  1.0393  0.2924
 3903TIP3   OH233123   5.814   1.718  16.902 -0.6753  0.6084 -0.5708
 3903TIP3    H133124   5.880   1.778  16.937  0.7964 -0.8482 -0.7800
 3903TIP3    H233125   5.836   1.708  16.810 -0.8520 -0.3362 -0.5115
 3904TIP3   OH233126   3.569   5.746  11.949 -0.7987  0.0593  0.1645
 3904TIP3    H133127   3.660   5.715  11.945 -0.4249  1.0769  0.3912
 3904TIP3    H233128   3.520   5.673  11.986 -0.2530 -0.8768 -0.9155
 3905TIP3   OH233129   6.327   1.535  14.122  0.1366  0.1298  0.3754
 3905TIP3    H133130   6.296   1.608  14.069  0.0290 -1.3553 -1.6737
 3905TIP3    H233131   6.318   1.458  14.065 -1.2206 -1.7340  2.9758
 3906TIP3   OH233132   0.392   6.667  11.729  0.3328  0.4983 -0.1942
 3906TIP3    H133133   0.393   6.579  11.766  0.0895  1.4413  2.1290
 3906TIP3    H233134   0.469   6.670  11.672  0.5711 -1.0663  0.0241
 3907TIP3   OH233135   5.765   4.301  12.229 -0.1067  0.1610 -0.3874
 3907TIP3    H133136   5.855   4.271  12.240 -0.3207 -1.1743 -2.0841
 3907TIP3    H233137   5.771   4.396  12.229  1.4544  0.0746 -1.6719
 3908TIP3   OH233138   1.995   1.122   2.172 -0.2448 -0.1837 -0.0801
 3908TIP3    H133139   1.997   1.202   2.120  0.3844 -0.5928 -0.6834
 3908TIP3    H233140   1.949   1.059   2.116  0.1696 -0.5388 -0.0186
 3909TIP3   OH233141   0.542   1.096   3.168 -0.3402  0.0239  0.1362
 3909TIP3    H133142   0.553   1.184   3.132 -0.1942 -0.6288 -1.4552
 3909TIP3    H233143   0.631   1.060   3.169 -0.6007 -0.6681 -0.7320
 3910TIP3   OH233144   5.670   3.405  13.256  0.0271  0.1058  0.1440
 3910TIP3    H133145   5.617   3.481  13.279  0.3098  0.1488  0.6636
 3910TIP3    H233146   5.744   3.441  13.208  0.5724  0.2494  1.0748
 3911TIP3   OH233147   4.569   5.135  16.446 -0.4563 -0.1478  0.5667
 3911TIP3    H133148   4.574   5.179  16.361  0.5204  0.4388  0.9195
 3911TIP3    H233149   4.497   5.179  16.491 -0.9622 -0.4441  0.0611
 3912TIP3   OH233150   4.200   0.008  11.838 -0.2627  0.1223 -0.0340
 3912TIP3    H133151   4.188  -0.037  11.922  0.7215  1.7606  1.0013
 3912TIP3    H233152   4.292  -0.004  11.818 -0.3459  0.3448 -0.5367
 3913TIP3   OH233153   0.285   3.378  10.735 -0.3608  0.0644  0.3694
 3913TIP3    H133154   0.237   3.447  10.780  0.6028  1.9274 -1.3590
 3913TIP3    H233155   0.217   3.326  10.691 -1.2914 -1.6312  3.6122
 3914TIP3   OH233156   1.588   1.550   6.482 -0.4252 -0.3945  0.4608
 3914TIP3    H133157   1.616   1.641   6.471  0.8493 -0.7126  0.9092
 3914TIP3    H233158   1.516   1.538   6.420  0.7838  0.3181 -1.1008
 3915TIP3   OH233159   5.088   6.338   4.631 -0.3258  1.0188 -0.2183
 3915TIP3    H133160   5.114   6.260   4.582 -1.5339  0.0304  0.6681
 3915TIP3    H233161   5.033   6.304   4.702  2.5224  2.2455  2.7048
 3916TIP3   OH233162   1.033   5.079  12.651  0.0626 -0.0286 -0.0565
 3916TIP3    H133163   1.090   5.147  12.615  0.9709 -0.9857 -0.4316
 3916TIP3    H233164   1.091   5.021  12.700 -0.7560 -0.3437  0.5648
 3917TIP3   OH233165   0.780   3.286   5.155  0.1043  0.6640 -0.3583
 3917TIP3    H133166   0.709   3.233   5.117  0.8644 -0.5050 -0.1682
 3917TIP3    H233167   0.776   3.369   5.107 -1.6888  0.7911 -0.0207
 3918TIP3   OH233168   1.007   4.810  11.936 -0.2424  0.4986 -0.3675
 3918TIP3    H133169   1.080   4.824  11.996 -0.5920 -2.7805  0.9372
 3918TIP3    H233170   0.929   4.830  11.988 -0.4950 -1.2902 -0.0314
 3919TIP3   OH233171   2.930   2.128  14.909 -0.2745 -0.5971  0.3949
 3919TIP3    H133172   2.920   2.212  14.954  3.1167  0.5838 -0.9220
 3919TIP3    H233173   2.879   2.139  14.828  1.0858  0.6791 -0.3247
 3920TIP3   OH233174   5.847   4.436  14.699 -0.4255  0.0793  0.2754
 3920TIP3    H133175   5.842   4.530  14.715 -0.3824  0.0950  0.1933
 3920TIP3    H233176   5.899   4.402  14.772  2.3782  0.5642 -1.4063
 3921TIP3   OH233177   0.493   2.241  11.061  0.5284  0.0417 -0.2442
 3921TIP3    H133178   0.540   2.188  10.997 -0.0420 -1.5402  0.6126
 3921TIP3    H233179   0.401   2.217  11.049  0.1188  1.6875 -0.6070
 3922TIP3   OH233180   2.215   0.298   4.334 -0.0134  0.2639  0.3865
 3922TIP3    H133181   2.203   0.307   4.429  1.0087  1.8783  0.3760
 3922TIP3    H233182   2.130   0.322   4.296  0.3148  2.1316  0.7806
 3923TIP3   OH233183   0.365   3.679  12.168  0.2757  0.2461 -0.2045
 3923TIP3    H133184   0.426   3.646  12.102 -0.6605 -0.2699 -0.8277
 3923TIP3    H233185   0.421   3.709  12.240  1.1692 -2.6421  0.3639
 3924TIP3   OH233186   5.845   3.871  12.877 -0.0477  0.3882 -0.4574
 3924TIP3    H133187   5.759   3.830  12.867  1.7296 -3.0771 -2.2097
 3924TIP3    H233188   5.861   3.869  12.972 -1.5393  0.3755 -0.1874
 3925TIP3   OH233189   0.249   3.385  12.468  0.5012  0.0753  0.5456
 3925TIP3    H133190   0.241   3.301  12.511  0.0508 -0.5943 -0.8259
 3925TIP3    H233191   0.335   3.418  12.494  0.1372 -0.1938  2.1274
 3926TIP3   OH233192   5.622   1.125   5.782  0.1589 -0.4499  0.2153
 3926TIP3    H133193   5.643   1.212   5.818 -2.4106  0.1167  0.4406
 3926TIP3    H233194   5.637   1.134   5.688 -0.3711  0.3399  0.1984
 3927TIP3   OH233195   2.233   1.678   3.530 -0.1836 -0.9392  0.4276
 3927TIP3    H133196   2.242   1.772   3.518  1.9934 -0.8193  2.6474
 3927TIP3    H233197   2.155   1.669   3.585  0.2156 -0.3527  1.1000
 3928TIP3   OH233198   3.438   1.573  12.094 -0.0635  0.0209 -0.7107
 3928TIP3    H133199   3.452   1.504  12.030  0.8455 -0.3673 -0.0999
 3928TIP3    H233200   3.499   1.553  12.165 -0.1335  1.1695 -0.3115
 3929TIP3   OH233201   6.045   5.761   0.099 -0.0272 -0.2328 -0.3062
 3929TIP3    H133202   5.987   5.807   0.159  1.0340  0.9915 -0.1868
 3929TIP3    H233203   5.988   5.700   0.052 -1.2773  0.4618  0.2829
 3930TIP3   OH233204   1.814   4.849  11.236 -0.1202  0.1468  0.4442
 3930TIP3    H133205   1.875   4.898  11.292 -1.4377  0.7208  1.3993
 3930TIP3    H233206   1.810   4.762  11.275 -0.2932  0.2566  0.6711
 3931TIP3   OH233207   2.754   5.159  12.379  0.2052  0.0288 -0.9002
 3931TIP3    H133208   2.829   5.108  12.409  0.2757 -0.4809 -1.9253
 3931TIP3    H233209   2.678   5.105  12.401 -0.1279  1.8074  2.8055
 3932TIP3   OH233210   4.959   4.105  16.597  0.4932  0.0391  0.1340
 3932TIP3    H133211   4.969   4.135  16.688 -0.1189 -1.8913  0.8464
 3932TIP3    H233212   4.930   4.015  16.604 -1.6388  0.5182 -2.0014
 3933TIP3   OH233213   3.775   5.386   4.650 -0.1187 -0.3162 -0.5617
 3933TIP3    H133214   3.693   5.355   4.687 -0.7168 -0.3993 -1.9482
 3933TIP3    H233215   3.810   5.445   4.717 -1.7536  0.4357 -0.3417
 3934TIP3   OH233216   0.823   2.038   4.817  0.2940  0.5990  0.0706
 3934TIP3    H133217   0.838   1.958   4.868  1.3032  1.1884  0.7169
 3934TIP3    H233218   0.850   2.015   4.728 -0.2880 -0.0549  0.0598
 3935TIP3   OH233219   4.328   2.807  12.008  0.0908  0.0013 -0.4776
 3935TIP3    H133220   4.411   2.806  12.054  0.6008  0.7984 -1.3534
 3935TIP3    H233221   4.335   2.736  11.944 -0.6848 -1.2198  0.7523
 3936TIP3   OH233222   6.222   5.265   5.037 -0.3284  0.4031 -0.5540
 3936TIP3    H133223   6.149   5.257   5.099  0.0940 -2.7520 -0.3508
 3936TIP3    H233224   6.300   5.265   5.093 -0.0776  1.3491 -0.9000
 3937TIP3   OH233225   3.852   2.505  11.142 -0.8203  0.6591 -0.9493
 3937TIP3    H133226   3.921   2.523  11.078 -0.6048  0.2519 -0.8354
 3937TIP3    H233227   3.846   2.409  11.144  0.7347  0.5637  1.2605
 3938TIP3   OH233228   1.305   1.167   2.950  0.2769 -0.2763 -0.6156
 3938TIP3    H133229   1.388   1.203   2.981 -0.2612  1.3141 -0.9897
 3938TIP3    H233230   1.299   1.194   2.859 -1.2387  0.7406 -0.2408
 3939TIP3   OH233231   0.715   2.509   3.192 -0.3987  0.8794 -0.0046
 3939TIP3    H133232   0.749   2.588   3.233  0.4154 -0.4312  1.9344
 3939TIP3    H233233   0.736   2.439   3.254 -0.3022 -0.9820 -2.0912
 3940TIP3   OH233234   5.935   1.118  14.079  0.4478 -0.4160  0.1965
 3940TIP3    H133235   5.878   1.050  14.115  0.1934 -0.1765  0.2466
 3940TIP3    H233236   5.879   1.195  14.071  1.2268  0.3533  1.9752
 3941TIP3   OH233237   5.465   6.188   0.831 -0.3498  0.1676  0.3617
 3941TIP3    H133238   5.471   6.252   0.902  1.5022 -2.4416  2.7200
 3941TIP3    H233239   5.552   6.148   0.828 -0.9716 -1.0914 -2.1178
 3942TIP3   OH233240   5.741   3.550  12.721  0.1003  0.2562 -0.2696
 3942TIP3    H133241   5.817   3.549  12.780  0.1471  2.5614 -0.2627
 3942TIP3    H233242   5.761   3.482  12.656  1.7120  0.1552  0.3072
 3943TIP3   OH233243   4.451   2.987   2.422  0.0274 -0.6995  0.5210
 3943TIP3    H133244   4.537   2.960   2.454  1.4402  1.7505 -0.9782
 3943TIP3    H233245   4.414   3.039   2.494  2.1692  2.7683 -0.7222
 3944TIP3   OH233246   2.402   2.864  11.889 -0.3794 -0.5591 -0.6938
 3944TIP3    H133247   2.497   2.856  11.874 -0.2447  0.4778 -0.4448
 3944TIP3    H233248   2.367   2.891  11.804 -0.5886 -1.8809 -1.0419
 3945TIP3   OH233249   3.046   0.314  14.747  0.0462 -0.1876  0.0415
 3945TIP3    H133250   2.981   0.245  14.760 -2.7314  2.0616 -1.3768
 3945TIP3    H233251   3.042   0.367  14.826 -0.5877  0.5428 -0.4772
 3946TIP3   OH233252   0.432   6.449   3.446  0.1534 -0.4380  0.9770
 3946TIP3    H133253   0.373   6.396   3.393  0.4155  0.4492 -0.2277
 3946TIP3    H233254   0.387   6.532   3.457  1.2122  0.2958 -0.0662
 3947TIP3   OH233255   0.596   0.585   4.973 -0.0011 -0.1163 -0.0750
 3947TIP3    H133256   0.690   0.573   4.976  0.0101  0.0562  0.1843
 3947TIP3    H233257   0.568   0.586   5.064 -0.2895 -0.4619 -0.1564
 3948TIP3   OH233258   2.502   6.418  12.416 -0.2909 -0.1961  0.0549
 3948TIP3    H133259   2.449   6.370  12.479 -0.4516  1.7092  1.4335
 3948TIP3    H233260   2.521   6.501  12.460  0.4420  0.7657 -2.0224
 3949TIP3   OH233261   5.879   0.866  16.733 -0.5700  0.1542  0.5809
 3949TIP3    H133262   5.811   0.862  16.666 -0.8970  3.4963  0.6297
 3949TIP3    H233263   5.961   0.876  16.683 -0.5136 -0.2396  0.5957
 3950TIP3   OH233264   0.998   4.040   3.172  0.7453 -0.0264  0.1264
 3950TIP3    H133265   1.080   4.080   3.143  1.2854  0.1050  1.7533
 3950TIP3    H233266   0.974   3.979   3.102  2.5588 -0.5102 -0.1044
 3951TIP3   OH233267   5.784   1.603   4.929  0.1235 -0.1368  0.0388
 3951TIP3    H133268   5.710   1.544   4.914  0.4372 -0.2116 -1.2813
 3951TIP3    H233269   5.777   1.628   5.021 -0.2082 -1.9676  0.5299
 3952TIP3   OH233270   2.742   0.560   5.805  0.1887  0.0622  0.0948
 3952TIP3    H133271   2.650   0.542   5.824  0.3111 -0.5320  0.1529
 3952TIP3    H233272   2.742   0.595   5.716 -0.0550 -0.3682 -0.0792
 3953TIP3   OH233273   5.192   0.672  12.345 -0.1062 -0.2161  0.6558
 3953TIP3    H133274   5.174   0.750  12.396  0.5611 -0.6993  1.6268
 3953TIP3    H233275   5.200   0.704  12.255  0.5782  0.8837  1.1012
 3954TIP3   OH233276   3.453   1.476  12.513  0.5011  0.0046 -0.1331
 3954TIP3    H133277   3.461   1.474  12.608 -0.6276 -0.0384 -0.0288
 3954TIP3    H233278   3.489   1.393  12.484  1.1160  0.1385  0.2309
 3955TIP3   OH233279   1.800   4.671  15.057 -0.5072 -0.1905  0.0998
 3955TIP3    H133280   1.741   4.620  15.001  1.1407 -0.5740 -1.3117
 3955TIP3    H233281   1.765   4.760  15.052 -3.0501 -0.9950  2.1071
 3956TIP3   OH233282   6.144   5.867  14.840 -0.2696  1.1077 -0.1783
 3956TIP3    H133283   6.146   5.855  14.935  0.3662  0.4338 -0.2769
 3956TIP3    H233284   6.142   5.779  14.804 -1.9296  1.3780 -0.7721
 3957TIP3   OH233285   5.133   1.330  16.837 -0.2566 -0.3315  0.6193
 3957TIP3    H133286   5.161   1.395  16.773 -1.2013  0.0654  0.6145
 3957TIP3    H233287   5.098   1.380  16.910 -1.4718 -0.8390  0.3944
 3958TIP3   OH233288   0.691   2.106  14.398 -0.1196 -0.3947  0.2123
 3958TIP3    H133289   0.669   2.014  14.410  0.6230 -0.5454  0.4325
 3958TIP3    H233290   0.627   2.153  14.452 -1.0162 -0.7271 -0.5363
 3959TIP3   OH233291   1.934   1.934   4.489 -0.1755  0.4016 -0.2310
 3959TIP3    H133292   1.978   1.850   4.501  0.2352  0.4054 -1.5728
 3959TIP3    H233293   1.949   1.956   4.397 -2.0446  0.9432 -0.4174
 3960TIP3   OH233294   6.250   1.405  11.771  0.5325  0.2346  0.2252
 3960TIP3    H133295   6.247   1.357  11.854  0.8836 -0.9626 -0.4363
 3960TIP3    H233296   6.342   1.401  11.744  0.0106 -1.5356 -1.4329
 3961TIP3   OH233297   1.815   4.651  11.472 -0.7735 -0.1767  0.2612
 3961TIP3    H133298   1.760   4.665  11.550  2.4166  0.6236  2.4627
 3961TIP3    H233299   1.873   4.579  11.497  0.5902  0.3899 -1.2175
 3962TIP3   OH233300   3.013   4.278  15.871 -0.2086  0.3126  0.1887
 3962TIP3    H133301   2.927   4.245  15.898  0.0233 -1.4296 -1.0899
 3962TIP3    H233302   3.042   4.216  15.804  2.3822  0.4501  1.1423
 3963TIP3   OH233303   6.381   6.274  13.639 -0.0830  0.2882  0.0302
 3963TIP3    H133304   6.388   6.354  13.587 -2.6679  0.7192  0.2722
 3963TIP3    H233305   6.383   6.203  13.575  0.0026  0.6575 -0.3796
 3964TIP3   OH233306   1.934   1.062   2.702  0.7213  0.2868  0.1074
 3964TIP3    H133307   2.017   1.025   2.673  0.1271 -1.3508  0.4664
 3964TIP3    H233308   1.939   1.155   2.677  1.5064 -0.3925 -2.4041
 3965TIP3   OH233309   3.184   5.179  14.096 -0.0611  0.4440 -0.5623
 3965TIP3    H133310   3.213   5.252  14.150 -2.5864  0.4753  0.8414
 3965TIP3    H233311   3.163   5.109  14.159 -1.1384 -0.2116 -1.6090
 3966TIP3   OH233312   1.468   1.968  10.548  0.1938  0.5939 -0.8342
 3966TIP3    H133313   1.462   1.935  10.638  1.8487  1.6726 -0.3071
 3966TIP3    H233314   1.377   1.970  10.518 -0.2552 -1.0209  0.3521
 3967TIP3   OH233315   3.296   6.168  16.274 -0.0559  0.3093 -0.4873
 3967TIP3    H133316   3.230   6.214  16.224 -1.0309 -1.1170 -0.5374
 3967TIP3    H233317   3.352   6.237  16.310 -0.2553  1.4073 -2.2572
 3968TIP3   OH233318   3.563   0.351  12.914  0.3245 -0.0958 -0.0393
 3968TIP3    H133319   3.583   0.281  12.976 -0.2996  0.6259  0.9955
 3968TIP3    H233320   3.479   0.386  12.943  0.3012  0.6314 -0.9532
 3969TIP3   OH233321   4.591   5.077  17.042 -0.5345 -0.3212  0.4217
 3969TIP3    H133322   4.644   5.080  17.121  0.0681 -2.9405  0.1878
 3969TIP3    H233323   4.501   5.067  17.074 -0.2463 -1.8395  0.8140
 3970TIP3   OH233324   3.698   4.614  15.182 -0.1457 -0.0220  0.3653
 3970TIP3    H133325   3.782   4.615  15.227  1.9255 -2.1996 -3.2108
 3970TIP3    H233326   3.662   4.527  15.200 -0.6461  0.1524  0.2221
 3971TIP3   OH233327   0.590   5.435   4.245 -0.9135  0.6501  0.7387
 3971TIP3    H133328   0.537   5.404   4.172  2.0805 -2.3846 -0.2588
 3971TIP3    H233329   0.627   5.518   4.214 -0.9275  0.1691 -0.5970
 3972TIP3   OH233330   0.841   3.724   4.478  0.2433 -0.1816  0.2385
 3972TIP3    H133331   0.850   3.809   4.520 -0.3502  0.0374 -0.0715
 3972TIP3    H233332   0.869   3.739   4.387 -2.7557  0.4045 -0.6211
 3973TIP3   OH233333   3.398   3.298  11.404 -0.0634  0.2409  0.2763
 3973TIP3    H133334   3.442   3.381  11.423  1.4733 -0.1774 -1.3038
 3973TIP3    H233335   3.449   3.233  11.453 -1.0259  0.1569  1.1936
 3974TIP3   OH233336   3.516   5.184   1.885  0.3058  0.2963  0.3295
 3974TIP3    H133337   3.431   5.146   1.908  1.8462 -2.7402  1.2623
 3974TIP3    H233338   3.534   5.246   1.955 -0.6167  0.1583  0.7012
 3975TIP3   OH233339   1.406   4.454   5.544 -0.2939  0.1609  0.3213
 3975TIP3    H133340   1.352   4.501   5.607 -2.1744 -0.7866 -0.5350
 3975TIP3    H233341   1.469   4.519   5.513 -1.1146  1.3713  1.1524
 3976TIP3   OH233342   2.240   5.509  14.370 -0.4228 -0.2893  0.6040
 3976TIP3    H133343   2.234   5.604  14.378  1.0689 -0.1191 -0.1823
 3976TIP3    H233344   2.165   5.484  14.316 -1.1405  0.3719  1.2892
 3977TIP3   OH233345   5.085   3.095   2.384  0.3204  0.0998  0.2554
 3977TIP3    H133346   5.066   3.180   2.344 -0.3369  0.1958  0.7640
 3977TIP3    H233347   5.047   3.031   2.324  0.8877  0.1610 -0.1685
 3978TIP3   OH233348   2.654   3.561  13.013 -0.7232  0.2339 -0.1406
 3978TIP3    H133349   2.690   3.484  12.970  0.6552  0.8064 -0.0254
 3978TIP3    H233350   2.612   3.610  12.942 -0.3448  0.0877 -0.4693
 3979TIP3   OH233351   6.435   2.864  11.541 -0.7005 -0.1036 -0.0809
 3979TIP3    H133352   6.381   2.933  11.579 -0.3593  0.5416 -0.7616
 3979TIP3    H233353   6.383   2.830  11.468  0.3062  1.3537 -1.5150
 3980TIP3   OH233354   5.311   2.371  16.652  0.0720  0.2146 -0.4193
 3980TIP3    H133355   5.326   2.323  16.570 -0.8708 -1.2677  0.2651
 3980TIP3    H233356   5.330   2.463  16.629  0.3570 -0.2505 -2.1452
 3981TIP3   OH233357   3.388   3.242  16.755 -0.2733 -0.1130  0.2980
 3981TIP3    H133358   3.344   3.193  16.685 -2.1900 -1.1317  2.1541
 3981TIP3    H233359   3.479   3.249  16.726 -1.3019  0.7714 -2.9812
 3982TIP3   OH233360   6.712   6.228  10.845  0.5141  0.4174  0.8478
 3982TIP3    H133361   6.726   6.318  10.874 -1.3005  0.7642  0.7142
 3982TIP3    H233362   6.710   6.177  10.926 -2.3069  1.0651  1.2286
 3983TIP3   OH233363   1.056   3.469   4.982 -0.4294 -0.1501  0.2637
 3983TIP3    H133364   0.967   3.499   4.998 -0.4020  0.1754 -0.1792
 3983TIP3    H233365   1.062   3.461   4.887  0.1674  0.3042  0.2620
 3984TIP3   OH233366   1.980   4.618  12.926  0.7631 -0.0455 -0.3810
 3984TIP3    H133367   2.054   4.669  12.894 -0.1681  2.7532  1.7387
 3984TIP3    H233368   1.925   4.604  12.849  1.4844  1.3890 -1.1698
 3985TIP3   OH233369   3.948   5.665  13.489 -0.3178  0.5985  0.0409
 3985TIP3    H133370   3.920   5.611  13.414 -0.6898  1.3087 -0.3351
 3985TIP3    H233371   3.962   5.602  13.560 -0.1093 -0.0638 -0.5833
 3986TIP3   OH233372   1.561   2.939   2.826 -0.3159  0.1314  0.1654
 3986TIP3    H133373   1.561   2.849   2.795 -0.0175 -0.4776  1.8807
 3986TIP3    H233374   1.633   2.943   2.889  1.3259  2.2318 -1.7348
 3987TIP3   OH233375   6.533   0.329   1.640  0.1010 -0.4951 -1.1703
 3987TIP3    H133376   6.617   0.374   1.641  0.5622 -1.3562 -1.0479
 3987TIP3    H233377   6.490   0.355   1.722  0.5887 -0.6847 -0.8530
 3988TIP3   OH233378   1.065   4.680  13.765 -0.4388 -0.0155 -0.1694
 3988TIP3    H133379   1.081   4.614  13.832  0.4441  1.1954  0.8233
 3988TIP3    H233380   1.080   4.764  13.809 -0.6297  0.8185 -1.6619
 3989TIP3   OH233381   4.293   5.060  13.541 -0.3257 -0.6868  0.3377
 3989TIP3    H133382   4.358   4.997  13.571 -1.1973 -1.3535  0.8401
 3989TIP3    H233383   4.223   5.007  13.502 -0.6912  0.0105  0.0188
 3990TIP3   OH233384   2.527   6.507   6.237  0.3116  0.5105 -0.1002
 3990TIP3    H133385   2.540   6.591   6.283  0.6231  1.0036 -1.0762
 3990TIP3    H233386   2.452   6.523   6.181  0.8202  0.3615 -0.8231
 3991TIP3   OH233387   2.421   1.685  16.899  0.1009  0.2350  0.1255
 3991TIP3    H133388   2.466   1.615  16.851  0.5116  0.8340 -0.3680
 3991TIP3    H233389   2.405   1.753  16.833  0.8108  1.1304  0.8588
 3992TIP3   OH233390   5.559   4.849   3.114 -0.2545  0.4280 -0.0993
 3992TIP3    H133391   5.585   4.785   3.048 -0.0893  0.2936  0.0937
 3992TIP3    H233392   5.556   4.933   3.067 -1.3909  0.1274 -0.5585
 3993TIP3   OH233393   2.981   5.172  14.559  0.1557 -0.1350  0.0066
 3993TIP3    H133394   2.913   5.142  14.620 -1.3989  0.6585 -1.2850
 3993TIP3    H233395   3.062   5.137  14.595 -0.6139  0.7983  2.8582
 3994TIP3   OH233396   0.643   6.284   1.504  0.1367 -0.0020 -0.2730
 3994TIP3    H133397   0.632   6.371   1.543  3.1482 -0.2201  1.1670
 3994TIP3    H233398   0.678   6.230   1.575  1.4110 -1.5528 -2.0428
 3995TIP3   OH233399   3.812   3.031   2.024 -0.0494  0.1366 -0.7462
 3995TIP3    H133400   3.783   3.036   2.115  0.7464  0.6789 -0.5166
 3995TIP3    H233401   3.786   3.115   1.986 -1.1954 -0.4409 -1.2771
 3996TIP3   OH233402   1.737   2.548  14.860 -0.2166 -0.4107  0.1565
 3996TIP3    H133403   1.819   2.553  14.910  0.9223 -2.1066 -1.4348
 3996TIP3    H233404   1.675   2.505  14.919  0.4844 -0.4867  0.8461
 3997TIP3   OH233405   5.967   3.111  11.894  0.0985 -0.3740  0.2382
 3997TIP3    H133406   5.880   3.126  11.855  0.1012 -2.2221 -0.5511
 3997TIP3    H233407   6.028   3.136  11.825  0.1554 -0.8432  0.1182
 3998TIP3   OH233408   4.098   4.285   2.259 -0.4243 -0.0556 -0.2306
 3998TIP3    H133409   4.102   4.381   2.259 -0.3063 -0.0495 -1.7140
 3998TIP3    H233410   4.125   4.260   2.347  0.8921  1.2418 -0.2409
 3999TIP3   OH233411   4.769   1.336  12.926  0.3700 -0.0920  0.4973
 3999TIP3    H133412   4.710   1.377  12.863 -0.9240 -0.8255  1.2168
 3999TIP3    H233413   4.740   1.368  13.011  0.9688 -0.5128  0.8669
 4000TIP3   OH233414   0.889   6.350   5.804  0.5918  0.1862 -0.2515
 4000TIP3    H133415   0.814   6.337   5.745  1.2491  0.1573 -1.0918
 4000TIP3    H233416   0.932   6.429   5.770  1.0384  0.1012  0.1225
 4001TIP3   OH233417   3.472   6.098   5.346  0.5716  0.1921  0.0761
 4001TIP3    H133418   3.439   6.057   5.426 -0.7130 -0.4329 -0.7515
 4001TIP3    H233419   3.548   6.148   5.374  0.1129  0.0056  1.6959
 4002TIP3   OH233420   0.655   6.787   4.489 -0.4553 -0.4911 -0.1380
 4002TIP3    H133421   0.696   6.773   4.574 -1.0393  0.5979  0.3344
 4002TIP3    H233422   0.614   6.702   4.468  0.1230 -0.9134  0.4254
 4003TIP3   OH233423   1.186   6.595   2.185  0.2625 -0.0745  0.5124
 4003TIP3    H133424   1.224   6.510   2.207  0.2372 -0.5323 -1.1453
 4003TIP3    H233425   1.262   6.651   2.165  0.1981 -0.3997 -0.7318
 4004TIP3   OH233426   4.333   0.930   0.247 -0.2462  0.2469  0.5070
 4004TIP3    H133427   4.372   0.986   0.180 -1.1123 -1.1169 -1.1670
 4004TIP3    H233428   4.405   0.909   0.306  0.3419  2.1854  0.5231
 4005TIP3   OH233429   4.191   6.138  10.693  0.5208 -0.1934  0.2557
 4005TIP3    H133430   4.183   6.051  10.655 -0.4567 -0.1067  0.2640
 4005TIP3    H233431   4.282   6.143  10.722  1.3190 -0.2037 -2.2004
 4006TIP3   OH233432   1.837   3.453   0.003  0.2096  0.1665 -0.5000
 4006TIP3    H133433   1.789   3.530   0.033  0.2233  0.0721 -0.2392
 4006TIP3    H233434   1.900   3.435   0.073  0.5650  0.2370 -0.7975
 4007TIP3   OH233435   3.888   2.559   6.522  0.5118 -0.0576 -0.1243
 4007TIP3    H133436   3.975   2.550   6.483  0.2702  0.5741 -0.8072
 4007TIP3    H233437   3.863   2.650   6.506  0.9540  0.5943  2.6364
 4008TIP3   OH233438   1.892   4.594   0.232  0.2312  0.4089  0.0262
 4008TIP3    H133439   1.829   4.588   0.305  2.8898  0.0976  2.3657
 4008TIP3    H233440   1.902   4.688   0.217 -2.6078  0.4519 -2.0635
 4009TIP3   OH233441   3.946   0.197  12.582 -0.5845  0.4604 -0.2494
 4009TIP3    H133442   3.864   0.208  12.534  0.8066  0.6270 -2.6524
 4009TIP3    H233443   4.008   0.164  12.517  0.6288 -2.1242  2.1082
 4010TIP3   OH233444   1.221   0.743   0.200  0.1237  0.0839  0.4398
 4010TIP3    H133445   1.176   0.720   0.119 -1.4128 -0.2371  1.3522
 4010TIP3    H233446   1.304   0.780   0.172 -0.2136 -0.4054 -1.2651
 4011TIP3   OH233447   1.540   2.286  13.288  0.1268 -0.2810 -0.4593
 4011TIP3    H133448   1.558   2.379  13.303  1.4828 -0.5765 -0.2455
 4011TIP3    H233449   1.623   2.242  13.307 -0.9792 -1.7229  1.1419
 4012TIP3   OH233450   5.880   0.348  13.621  0.3935 -0.2585  0.6046
 4012TIP3    H133451   5.918   0.410  13.683  0.7388 -0.5206  0.6606
 4012TIP3    H233452   5.796   0.386  13.597  0.8948  0.5679  0.1315
 4013TIP3   OH233453   1.467   2.389  16.825  0.2895 -0.3209 -0.4870
 4013TIP3    H133454   1.535   2.375  16.890 -1.6066  1.0421  1.8512
 4013TIP3    H233455   1.510   2.442  16.757  1.5491  0.4901  0.9201
 4014TIP3   OH233456   6.147   1.361   5.767  0.6438 -0.1637  0.1279
 4014TIP3    H133457   6.132   1.358   5.862 -0.9418 -0.4472 -0.1145
 4014TIP3    H233458   6.061   1.344   5.729  0.6678  2.7831 -1.3723
 4015TIP3   OH233459   4.899   1.472  11.411  0.1625 -0.4397  0.1918
 4015TIP3    H133460   4.979   1.480  11.359  1.0426 -1.8814  1.2692
 4015TIP3    H233461   4.916   1.525  11.489  0.7997 -2.0975  1.2265
 4016TIP3   OH233462   5.065   1.274   5.583 -0.3836 -0.4432 -0.3497
 4016TIP3    H133463   5.018   1.208   5.634 -0.2081 -1.0015 -0.9072
 4016TIP3    H233464   5.157   1.255   5.601 -0.3551  0.1497  0.1168
 4017TIP3   OH233465   3.299   5.495  12.890 -0.4211 -0.0796  0.2956
 4017TIP3    H133466   3.278   5.429  12.823 -2.0861 -0.2306  0.9574
 4017TIP3    H233467   3.232   5.483  12.957  0.5602  0.8542  1.4467
 4018TIP3   OH233468   3.624   5.313  13.435  0.2091  0.3124  0.0595
 4018TIP3    H133469   3.629   5.315  13.339  0.4379 -0.8025  0.0457
 4018TIP3    H233470   3.535   5.343  13.455  0.4385  1.3767 -0.4571
 4019TIP3   OH233471   0.837   4.614   5.569 -0.1997  0.7069 -0.5964
 4019TIP3    H133472   0.825   4.522   5.593  1.2017  1.1148  1.9576
 4019TIP3    H233473   0.858   4.612   5.476 -1.1481 -1.4679 -0.8044
 4020TIP3   OH233474   2.498   3.305  14.658 -0.2067  0.1018 -0.1632
 4020TIP3    H133475   2.490   3.210  14.665 -3.6390  0.3541  0.0219
 4020TIP3    H233476   2.489   3.337  14.748  1.9432  0.5681 -0.0904
 4021TIP3   OH233477   5.509   1.621  14.433  0.1483  0.2711  0.0649
 4021TIP3    H133478   5.598   1.592  14.416  0.3961  1.0856 -0.0556
 4021TIP3    H233479   5.466   1.545  14.472  1.3601  0.3666  1.6384
 4022TIP3   OH233480   0.818   2.895  16.179 -0.1780 -0.0729  0.3205
 4022TIP3    H133481   0.762   2.916  16.103  0.2546  1.5023  0.4149
 4022TIP3    H233482   0.865   2.816  16.152  0.2219  0.6578 -1.1985
 4023TIP3   OH233483   0.546   3.815  15.275  0.4327 -0.2407  0.3186
 4023TIP3    H133484   0.622   3.873  15.264 -1.2659  1.8601 -0.7610
 4023TIP3    H233485   0.506   3.842  15.357  0.4988 -0.9537  0.5935
 4024TIP3   OH233486   4.574   2.842  12.101 -0.0052  0.0671  0.1921
 4024TIP3    H133487   4.563   2.933  12.073 -0.8883 -0.2963 -0.6696
 4024TIP3    H233488   4.668   2.829  12.107  0.1230  1.0771  0.4457
 4025TIP3   OH233489   2.932   1.593   0.406 -0.1655  0.6146  0.0999
 4025TIP3    H133490   2.910   1.648   0.330 -1.1245  0.9910  0.6410
 4025TIP3    H233491   2.850   1.552   0.431  0.3063 -0.1254  0.4546
 4026TIP3   OH233492   2.569   1.798   3.722  0.0227 -0.1356  0.0517
 4026TIP3    H133493   2.487   1.774   3.765 -0.3548  1.2581  0.1285
 4026TIP3    H233494   2.548   1.876   3.671  1.8355  1.5713  1.8374
 4027TIP3   OH233495   5.093   6.586  15.219 -0.1240  0.5373  0.3396
 4027TIP3    H133496   5.059   6.497  15.222 -0.4852  0.7046  1.5596
 4027TIP3    H233497   5.114   6.607  15.310  2.1070  0.8853 -0.2234
 4028TIP3   OH233498   1.699   0.648  14.187 -0.8893  0.7732 -0.0925
 4028TIP3    H133499   1.667   0.660  14.276 -3.3022  0.9834 -0.9596
 4028TIP3    H233500   1.727   0.736  14.160 -3.5813  1.4563 -0.7948
 4029TIP3   OH233501   6.687   1.077   5.582 -0.1214 -0.7005 -0.2113
 4029TIP3    H133502   6.722   1.043   5.664  1.3100 -0.1579 -0.5927
 4029TIP3    H233503   6.738   1.156   5.564 -0.1308 -1.0347 -1.8342
 4030TIP3   OH233504   3.412   0.897  12.246 -0.0886  0.7416  0.0467
 4030TIP3    H133505   3.484   0.835  12.233 -2.5863 -2.0987 -0.9450
 4030TIP3    H233506   3.370   0.868  12.327 -1.5433  0.8679 -0.6563
 4031TIP3   OH233507   4.757   3.208  13.855 -0.1250 -0.0575  0.0899
 4031TIP3    H133508   4.831   3.157  13.823 -0.6581 -1.6106  1.2841
 4031TIP3    H233509   4.685   3.145  13.858 -1.3477  1.2834 -0.4588
 4032TIP3   OH233510   3.710   2.043  12.367 -0.6084  0.3559  0.6252
 4032TIP3    H133511   3.776   2.002  12.311 -2.2362 -1.4473 -0.0468
 4032TIP3    H233512   3.715   1.995  12.450 -0.9822  0.2965  0.6156
 4033TIP3   OH233513   0.246   4.150  16.075  0.1140 -0.0981 -0.7153
 4033TIP3    H133514   0.214   4.106  16.154 -0.5315  0.5857 -0.5943
 4033TIP3    H233515   0.214   4.240  16.082 -0.9368 -0.3259 -2.3312
 4034TIP3   OH233516   2.229   5.474   4.939 -0.3504  0.3282  0.5779
 4034TIP3    H133517   2.321   5.498   4.945  0.3429 -2.1038  0.3510
 4034TIP3    H233518   2.200   5.467   5.030 -0.4303  1.4890  0.6453
 4035TIP3   OH233519   0.005   5.811   4.306  0.4373 -0.0522 -0.4606
 4035TIP3    H133520   0.037   5.740   4.362  0.3694 -1.8893 -2.6688
 4035TIP3    H233521   0.070   5.817   4.236 -1.4433 -0.4435 -2.2811
 4036TIP3   OH233522   5.302   2.964  15.171 -0.6776 -0.3103 -0.6084
 4036TIP3    H133523   5.336   2.874  15.167  2.1215  0.6890 -0.5131
 4036TIP3    H233524   5.236   2.962  15.241  1.7278 -1.5921  1.7361
 4037TIP3   OH233525   3.066   4.304  16.286 -0.6564  0.1797 -0.1243
 4037TIP3    H133526   3.079   4.379  16.228  1.4979 -0.2917 -0.3210
 4037TIP3    H233527   3.087   4.228  16.231 -2.1298 -0.5137  0.2674
 4038TIP3   OH233528   6.213   6.196  16.635  0.7543 -0.2614 -0.3377
 4038TIP3    H133529   6.301   6.172  16.606  1.3301 -0.0003  1.1836
 4038TIP3    H233530   6.223   6.279  16.681 -0.5484  0.6150 -1.5732
 4039TIP3   OH233531   0.713   2.347  11.607  0.0352 -0.3206  0.1066
 4039TIP3    H133532   0.771   2.401  11.555  0.6000 -1.1342 -0.1170
 4039TIP3    H233533   0.738   2.364  11.697 -0.7328  0.8498  0.1186
 4040TIP3   OH233534   4.430   6.289   0.809  0.5166 -0.7653  0.0147
 4040TIP3    H133535   4.376   6.341   0.868  1.3719  1.4656 -1.1365
 4040TIP3    H233536   4.421   6.199   0.842  0.4071  0.3154  3.0541
 4041TIP3   OH233537   6.454   4.362  15.320  0.5121 -0.2792 -0.0926
 4041TIP3    H133538   6.463   4.418  15.397  2.1057 -1.5387  0.6543
 4041TIP3    H233539   6.470   4.422  15.246 -1.0520  0.9358  0.5215
 4042TIP3   OH233540   3.167   4.291  12.188  0.5706 -0.0078  0.1995
 4042TIP3    H133541   3.145   4.202  12.161  0.8739 -0.5795  1.7724
 4042TIP3    H233542   3.177   4.285  12.283  2.2834  1.3510  0.1165
 4043TIP3   OH233543   5.726   0.868  14.121 -0.1624 -0.5597 -0.1529
 4043TIP3    H133544   5.641   0.827  14.137 -0.3960 -0.9771 -2.3696
 4043TIP3    H233545   5.726   0.887  14.027  2.3353 -0.8405 -0.2247
 4044TIP3   OH233546   5.000   3.379   5.840 -0.2574 -0.1943 -0.2675
 4044TIP3    H133547   5.057   3.450   5.811  0.3102 -0.2212  0.7446
 4044TIP3    H233548   4.925   3.383   5.781 -0.4428  1.5372  0.0494
 4045TIP3   OH233549   6.058   1.919   4.574 -0.2663 -0.1021 -0.5671
 4045TIP3    H133550   6.080   1.833   4.537 -0.0314  0.6440 -2.1861
 4045TIP3    H233551   6.041   1.901   4.667  0.1935 -1.8302 -0.7958
 4046TIP3   OH233552   4.523   6.470  12.679  0.6223  0.1986  0.1054
 4046TIP3    H133553   4.562   6.539  12.627 -0.0697  0.1099 -0.5393
 4046TIP3    H233554   4.499   6.402  12.616  1.0873 -0.5326  0.7059
 4047TIP3   OH233555   0.392   5.319   5.225 -0.1149  0.3128 -0.2689
 4047TIP3    H133556   0.334   5.378   5.178  1.0220  1.4612 -0.2458
 4047TIP3    H233557   0.443   5.376   5.282 -1.7078 -1.0649  2.6475
 4048TIP3   OH233558   2.331   3.497  11.440 -0.0933 -0.0954  0.0543
 4048TIP3    H133559   2.415   3.514  11.396 -0.3414  1.1553  0.0551
 4048TIP3    H233560   2.356   3.461  11.525  0.4355 -0.2493 -0.1625
 4049TIP3   OH233561   5.460   2.999  10.587 -0.1106  0.1781 -0.7180
 4049TIP3    H133562   5.517   2.942  10.534 -0.7201 -1.7393  0.6347
 4049TIP3    H233563   5.471   3.086  10.548  1.7316 -0.6332 -2.1219
 4050TIP3   OH233564   0.484   0.433  14.053 -0.2124  0.4685  0.0791
 4050TIP3    H133565   0.452   0.442  14.143  1.1442 -0.0926  0.6320
 4050TIP3    H233566   0.428   0.365  14.015  1.1841 -1.4935  1.4593
 4051TIP3   OH233567   4.789   0.310  13.141  0.3631 -0.5579 -0.3575
 4051TIP3    H133568   4.884   0.319  13.138  0.2754  1.0431  0.6188
 4051TIP3    H233569   4.759   0.393  13.178 -1.3283 -1.5427  0.5312
 4052TIP3   OH233570   2.838   6.330   1.743  0.2606  0.1018 -0.1541
 4052TIP3    H133571   2.917   6.292   1.704  1.1683  1.4882  0.3209
 4052TIP3    H233572   2.847   6.313   1.837  0.4437  1.1040  0.0054
 4053TIP3   OH233573   5.266   0.839  13.394  0.2288 -0.0073  0.0360
 4053TIP3    H133574   5.307   0.837  13.480  0.1765  1.9099  0.1207
 4053TIP3    H233575   5.333   0.872  13.335 -0.2655  0.3367 -0.3457
 4054TIP3   OH233576   0.165   0.233  13.581  0.3053  0.0247 -0.2959
 4054TIP3    H133577   0.082   0.255  13.538 -1.5328 -1.5672  2.2507
 4054TIP3    H233578   0.208   0.318  13.594 -1.1669  0.9359 -1.2150
 4055TIP3   OH233579   1.668   1.965   0.370  0.2859 -0.3081  0.8309
 4055TIP3    H133580   1.727   1.930   0.304  2.5745  3.6661  0.5639
 4055TIP3    H233581   1.721   1.969   0.450 -0.8882 -0.4486  1.6296
 4056TIP3   OH233582   1.379   1.905   4.667  0.1783 -0.2447 -0.1470
 4056TIP3    H133583   1.448   1.865   4.613  0.2985 -0.4681  0.1702
 4056TIP3    H233584   1.299   1.860   4.640  0.2014 -0.1863 -0.3130
 4057TIP3   OH233585   3.181   1.753  12.558 -0.5058  0.0299  0.3630
 4057TIP3    H133586   3.169   1.662  12.531 -1.2453  0.1667  0.2045
 4057TIP3    H233587   3.121   1.803  12.501  0.0602  0.6365  0.2912
 4058TIP3   OH233588   2.866   3.289   5.336  0.0467  0.0735  0.2405
 4058TIP3    H133589   2.805   3.351   5.297 -0.2513  1.0017  2.1365
 4058TIP3    H233590   2.811   3.228   5.385  0.4208 -1.0396 -0.6936
 4059TIP3   OH233591   1.221   4.454  14.654  0.4378  0.0874 -0.1577
 4059TIP3    H133592   1.260   4.533  14.617  1.8230 -0.6803 -0.3722
 4059TIP3    H233593   1.166   4.418  14.584 -0.3189  0.9341 -0.0050
 4060TIP3   OH233594   2.433   4.764   1.019  0.7522  0.2663  0.1017
 4060TIP3    H133595   2.423   4.673   0.989  0.5819  0.1843  0.4063
 4060TIP3    H233596   2.355   4.780   1.073  0.7381  0.6222 -0.0231
 4061TIP3   OH233597   2.222   4.030   2.546  0.0255 -0.4414  0.2041
 4061TIP3    H133598   2.305   3.995   2.578  0.2423 -0.8493 -0.7708
 4061TIP3    H233599   2.156   3.990   2.603  0.3255 -1.9681 -0.4745
 4062TIP3   OH233600   5.719   1.532   2.997 -0.0331  0.0515 -0.3408
 4062TIP3    H133601   5.732   1.441   2.970 -2.6515  0.0122 -1.6361
 4062TIP3    H233602   5.775   1.583   2.938 -0.2616 -0.5808 -1.1129
 4063TIP3   OH233603   4.553   6.636  17.000 -0.0637 -0.2607  0.0375
 4063TIP3    H133604   4.492   6.577  17.045  0.1176 -0.0731  0.5337
 4063TIP3    H233605   4.632   6.584  16.988  0.3555  0.1134  1.1433
 4064TIP3   OH233606   5.552   4.664  17.235  0.1773 -0.4206  0.2075
 4064TIP3    H133607   5.467   4.675  17.278 -0.0871  0.7422 -0.6020
 4064TIP3    H233608   5.612   4.643  17.307 -0.5840 -0.1859  0.9208
 4065TIP3   OH233609   5.257   1.356  15.872  0.2426 -0.2591  0.1985
 4065TIP3    H133610   5.209   1.438  15.877 -1.8201 -1.3557 -0.7349
 4065TIP3    H233611   5.347   1.379  15.896 -0.2126  2.3166 -0.3901
 4066TIP3   OH233612   6.688   5.043   3.318  0.4208 -0.3185  0.4325
 4066TIP3    H133613   6.674   5.001   3.404  1.4460 -0.8054  0.3699
 4066TIP3    H233614   6.729   5.126   3.339 -2.2895  1.0517  0.6070
 4067TIP3   OH233615   4.909   1.481   1.998  0.3239 -0.0020  0.1768
 4067TIP3    H133616   4.891   1.546   2.066 -0.3553 -1.2445  1.2104
 4067TIP3    H233617   4.986   1.434   2.030 -1.8367 -2.6760  1.6977
 4068TIP3   OH233618   0.971   2.739  15.799 -0.0055  0.0395  0.1103
 4068TIP3    H133619   1.046   2.708  15.749  1.1814 -0.6041  2.2399
 4068TIP3    H233620   0.986   2.833  15.809  1.4766 -0.3629  2.0338
 4069TIP3   OH233621   0.816   1.090   3.173 -0.3052 -0.4415  0.3673
 4069TIP3    H133622   0.883   1.029   3.144 -0.0406 -0.2068  0.4898
 4069TIP3    H233623   0.854   1.177   3.160 -0.4421 -0.3176  0.7712
 4070TIP3   OH233624   4.195   5.564  14.195 -0.1985  0.0150  0.2188
 4070TIP3    H133625   4.150   5.649  14.195  0.8051  0.5816 -1.4808
 4070TIP3    H233626   4.287   5.586  14.211 -0.0893 -0.8691  0.8467
 4071TIP3   OH233627   3.033   5.286  15.239  0.6286  0.2095  0.1324
 4071TIP3    H133628   3.120   5.281  15.201  0.1449  0.0783 -0.9934
 4071TIP3    H233629   2.991   5.204  15.213  0.0807  0.3905  0.4290
 4072TIP3   OH233630   3.053   2.176  14.505 -0.8543 -0.0406 -0.0784
 4072TIP3    H133631   3.054   2.260  14.460 -2.3699 -0.5022 -1.0127
 4072TIP3    H233632   2.968   2.138  14.483  0.0532 -2.0926 -0.1975
 4073TIP3   OH233633   1.453   0.423   4.507 -0.0267  0.0521  0.1901
 4073TIP3    H133634   1.516   0.395   4.573 -0.5541 -0.2800  0.5506
 4073TIP3    H233635   1.388   0.474   4.555 -0.3820 -0.1403 -0.0782
 4074TIP3   OH233636   1.565   1.540  13.096 -0.3843  0.1511 -0.0285
 4074TIP3    H133637   1.625   1.467  13.082  0.2028  0.9739 -1.8226
 4074TIP3    H233638   1.586   1.603  13.027 -2.6251  0.8878 -0.0699
 4075TIP3   OH233639   4.549   6.268   2.889 -0.1425  0.3491 -0.3423
 4075TIP3    H133640   4.508   6.315   2.816  1.7313 -0.8403 -2.1890
 4075TIP3    H233641   4.638   6.248   2.859  0.9869  0.6474  2.6210
 4076TIP3   OH233642   3.312   3.556  16.091  0.1834 -0.1603  0.0717
 4076TIP3    H133643   3.232   3.511  16.063 -0.0202  0.0605  0.2984
 4076TIP3    H233644   3.304   3.644  16.056 -0.0511  0.1043  0.7881
 4077TIP3   OH233645   3.839   6.439   3.244 -0.2991  0.0908 -0.0080
 4077TIP3    H133646   3.788   6.359   3.258 -2.1547  1.4131  1.0160
 4077TIP3    H233647   3.800   6.478   3.166  0.0385  0.4107 -0.0143
 4078TIP3   OH233648   6.146   2.944  16.916  0.5667 -0.2481  0.1905
 4078TIP3    H133649   6.228   2.961  16.870 -0.0861  1.2642 -0.4558
 4078TIP3    H233650   6.100   3.028  16.915 -2.0872 -1.6646 -1.6165
 4079TIP3   OH233651   4.613   3.920  14.464  0.1999  0.0707 -0.4150
 4079TIP3    H133652   4.684   3.972  14.426  2.0816 -0.7488  1.8464
 4079TIP3    H233653   4.618   3.837  14.418  1.6209 -0.4585  0.6464
 4080TIP3   OH233654   3.013   5.285   0.372 -0.1319  0.4288  0.4657
 4080TIP3    H133655   3.009   5.367   0.422 -0.9343  0.3401  0.5610
 4080TIP3    H233656   3.070   5.305   0.298 -1.1131  1.3772 -0.0532
 4081TIP3   OH233657   1.472   2.908   2.111  0.4831  0.2521  0.1235
 4081TIP3    H133658   1.425   2.839   2.063  2.3014 -0.8085 -0.2004
 4081TIP3    H233659   1.456   2.988   2.061 -1.1955 -0.0387  0.1869
 4082TIP3   OH233660   3.592   0.819  13.510  0.2417 -0.2219 -0.3023
 4082TIP3    H133661   3.497   0.805  13.516  0.2923 -0.6749 -0.5133
 4082TIP3    H233662   3.619   0.766  13.434  0.5458  0.5075 -0.7010
 4083TIP3   OH233663   3.138   4.565   5.008  0.3570 -0.0696  0.4552
 4083TIP3    H133664   3.151   4.625   4.935 -0.9521 -0.1878  0.1214
 4083TIP3    H233665   3.067   4.604   5.059 -0.1376 -1.0588  0.5325
 4084TIP3   OH233666   5.085   2.286  15.450  0.1912 -0.2746  0.1823
 4084TIP3    H133667   5.087   2.279  15.545  0.7458  1.1119  0.2815
 4084TIP3    H233668   4.997   2.258  15.426  0.0116 -0.5216  1.1177
 4085TIP3   OH233669   3.330   4.221  14.694  0.1001  0.4859  0.1069
 4085TIP3    H133670   3.254   4.162  14.698 -0.4319  1.2130  1.0196
 4085TIP3    H233671   3.312   4.278  14.620 -0.5554  1.0599  0.7002
 4086TIP3   OH233672   5.296   1.394  17.120 -0.1872  0.8114 -0.0491
 4086TIP3    H133673   5.208   1.358  17.113 -0.0301  0.2993  0.5305
 4086TIP3    H233674   5.345   1.327  17.169  0.1141  1.7845  1.0009
 4087TIP3   OH233675   0.858   0.021   3.119 -0.1141 -0.7144  0.3672
 4087TIP3    H133676   0.832  -0.070   3.103 -1.7527 -0.9139  3.6511
 4087TIP3    H233677   0.776   0.070   3.114  0.5397  0.3446  0.0896
 4088TIP3   OH233678   0.663   1.072  10.484 -0.0430  0.4162  0.8514
 4088TIP3    H133679   0.585   1.127  10.477  0.1801  0.5706 -0.4848
 4088TIP3    H233680   0.630   0.984  10.500 -0.5501  0.2634 -0.9194
 4089TIP3   OH233681   3.296   6.436   3.422 -0.0631  0.1532 -0.3435
 4089TIP3    H133682   3.313   6.477   3.507  0.3508  1.1611 -0.9171
 4089TIP3    H233683   3.242   6.500   3.375 -1.2127 -0.8622 -0.4464
 4090TIP3   OH233684   6.402   4.344   5.944  0.4799  0.0971  0.7197
 4090TIP3    H133685   6.340   4.413   5.920  0.8186 -0.3975 -1.6654
 4090TIP3    H233686   6.347   4.268   5.961  0.2768  0.2896  0.9342
 4091TIP3   OH233687   2.298   6.533  10.561  0.1832 -0.1410  0.1331
 4091TIP3    H133688   2.238   6.517  10.634  2.3920 -1.0131  1.8058
 4091TIP3    H233689   2.286   6.626  10.540  0.2760  0.4072  2.3495
 4092TIP3   OH233690   0.866   5.234   0.339 -0.0095 -0.2969  0.1228
 4092TIP3    H133691   0.911   5.203   0.261  0.8982  2.2616 -0.4179
 4092TIP3    H233692   0.773   5.229   0.317  0.1856 -0.9724 -0.5616
 4093TIP3   OH233693   1.822   5.000  12.863  0.1994  0.3050  0.3835
 4093TIP3    H133694   1.797   4.989  12.955 -1.8778  0.8504 -0.0883
 4093TIP3    H233695   1.891   4.935  12.849 -0.3669 -0.6667  1.9730
 4094TIP3   OH233696   2.618   4.524   0.808  0.5016 -0.2210  0.3945
 4094TIP3    H133697   2.601   4.433   0.833 -0.9880 -0.0498  0.0917
 4094TIP3    H233698   2.620   4.522   0.713  1.4612 -0.0989  0.4136
 4095TIP3   OH233699   4.360   3.575   1.920  0.0420 -0.4272  0.2619
 4095TIP3    H133700   4.395   3.498   1.876 -2.8392 -1.0231 -1.0993
 4095TIP3    H233701   4.359   3.643   1.852  0.0222  0.0331  0.7171
 4096TIP3   OH233702   1.274   4.058   3.059  0.0632 -0.5745  0.5013
 4096TIP3    H133703   1.310   4.084   3.144 -1.1947 -1.6537  1.3836
 4096TIP3    H233704   1.311   3.971   3.044  1.5143  0.2514 -0.8041
 4097TIP3   OH233705   2.241   3.883   3.851  0.3954 -0.2615 -0.1494
 4097TIP3    H133706   2.147   3.890   3.830  0.2001  1.2112  1.0675
 4097TIP3    H233707   2.245   3.818   3.921  0.4901 -1.6205 -1.4106
 4098TIP3   OH233708   1.499   5.615  12.740 -0.2458 -0.2473  0.6092
 4098TIP3    H133709   1.445   5.551  12.693  0.0053  0.0322 -0.0687
 4098TIP3    H233710   1.583   5.572  12.752 -0.4261 -0.4584  1.1379
 4099TIP3   OH233711   2.062   0.521   2.607  0.0783 -0.0519 -0.3337
 4099TIP3    H133712   2.029   0.588   2.547 -0.4934 -0.4278 -0.4409
 4099TIP3    H233713   1.986   0.466   2.627 -0.1299  1.0709  2.0810
 4100TIP3   OH233714   3.808   4.676  14.254 -0.0891  0.1027  0.5380
 4100TIP3    H133715   3.854   4.757  14.232 -1.4559  0.3873 -1.3499
 4100TIP3    H233716   3.872   4.607  14.236  0.7874  0.6937  1.3299
 4101TIP3   OH233717   2.023   3.381  13.479  0.5037 -0.5476 -0.2557
 4101TIP3    H133718   2.018   3.394  13.574 -0.3666 -0.4544 -0.3093
 4101TIP3    H233719   2.109   3.415  13.454  0.0434  1.0384  0.2546
 4102TIP3   OH233720   2.390   6.061  15.551  0.1927  0.0613 -0.0424
 4102TIP3    H133721   2.388   6.156  15.560  0.6076  0.1295 -0.6062
 4102TIP3    H233722   2.464   6.044  15.491 -1.0569 -0.4781 -1.4701
 4103TIP3   OH233723   5.714   3.064  17.185  0.3035 -0.1456 -0.4668
 4103TIP3    H133724   5.656   3.000  17.142 -1.4873  0.9552  0.2580
 4103TIP3    H233725   5.729   3.131  17.118 -0.9631  0.6184  0.0008
 4104TIP3   OH233726   1.881   6.527   2.356 -0.1479 -0.5372  0.5455
 4104TIP3    H133727   1.913   6.437   2.342 -0.7070 -0.8565  1.2762
 4104TIP3    H233728   1.852   6.528   2.448  1.1969  0.8042  0.9777
 4105TIP3   OH233729   5.358   3.299  16.364 -0.2879 -0.5570 -0.1729
 4105TIP3    H133730   5.356   3.345  16.448  0.6353  0.4502 -0.6905
 4105TIP3    H233731   5.340   3.367  16.299  0.1230 -1.1131 -0.8751
 4106TIP3   OH233732   4.392   6.031  15.528  0.0443 -0.4977 -0.3253
 4106TIP3    H133733   4.385   6.110  15.582  2.4604  0.7551 -1.7243
 4106TIP3    H233734   4.412   5.961  15.590 -1.1493  0.1629  0.8234
 4107TIP3   OH233735   1.197   6.086  14.968 -0.0600 -0.0343 -0.1950
 4107TIP3    H133736   1.149   6.168  14.972  0.9701  0.5480  0.1769
 4107TIP3    H233737   1.158   6.032  15.037 -0.1589  0.4423  0.1226
 4108TIP3   OH233738   5.441   0.684   0.394 -0.6279 -0.0462  0.1746
 4108TIP3    H133739   5.436   0.604   0.445 -0.8038  0.9408  1.7438
 4108TIP3    H233740   5.496   0.743   0.446 -0.8964  1.0219 -0.7130
 4109TIP3   OH233741   1.621   0.828  15.181  0.2617 -0.0024  0.2853
 4109TIP3    H133742   1.713   0.808  15.162  0.6093  1.0148  0.8147
 4109TIP3    H233743   1.604   0.786  15.265 -0.5442 -2.4046 -1.0444
 4110TIP3   OH233744   5.451   5.510  12.485  0.2006 -0.5100 -0.6663
 4110TIP3    H133745   5.477   5.524  12.576  1.3645  0.1141 -1.0897
 4110TIP3    H233746   5.360   5.478  12.491  0.4912 -1.1239  0.7364
 4111TIP3   OH233747   5.558   0.314   1.569  0.1070  0.5821 -0.3566
 4111TIP3    H133748   5.557   0.219   1.563  1.3884  0.4916  0.7681
 4111TIP3    H233749   5.559   0.344   1.478 -1.1059 -0.4511 -0.7259
 4112TIP3   OH233750   2.350   1.205  13.510  0.7289 -0.1221 -0.5576
 4112TIP3    H133751   2.397   1.123  13.499 -0.6823 -0.8583 -1.1597
 4112TIP3    H233752   2.413   1.273  13.485  1.9393 -1.0023  0.0742
 4113TIP3   OH233753   4.922   3.391   4.340  0.1860 -0.6767 -0.2339
 4113TIP3    H133754   5.009   3.380   4.377  1.1881  0.6083 -2.1646
 4113TIP3    H233755   4.889   3.472   4.380  0.1086 -0.8345  0.0253
 4114TIP3   OH233756   0.224   6.504  12.306  0.5304 -0.5456 -0.2871
 4114TIP3    H133757   0.251   6.594  12.323 -0.2364 -0.0467 -1.6526
 4114TIP3    H233758   0.151   6.490  12.366 -0.0202  0.0949 -0.7975
 4115TIP3   OH233759   3.915   4.757   4.943 -0.3745 -0.0905 -0.4009
 4115TIP3    H133760   3.888   4.765   4.852 -0.6963  0.0607 -0.2948
 4115TIP3    H233761   3.985   4.692   4.942  1.3439  1.7490 -1.0852
 4116TIP3   OH233762   5.533   3.150  16.231 -0.6180  0.0212  0.3172
 4116TIP3    H133763   5.507   3.169  16.141  0.4359 -0.0776 -0.0059
 4116TIP3    H233764   5.458   3.180  16.284 -1.9281 -1.4180 -0.6852
 4117TIP3   OH233765   5.374   2.821  13.503 -0.3775  0.9465 -0.0951
 4117TIP3    H133766   5.425   2.891  13.544 -0.1454 -0.5884  2.3581
 4117TIP3    H233767   5.283   2.840  13.529 -0.3614  0.5580  0.2450
 4118TIP3   OH233768   1.237   3.988  15.089  1.0624 -0.2060  0.0603
 4118TIP3    H133769   1.289   4.064  15.062  1.6751 -0.5486  0.2560
 4118TIP3    H233770   1.274   3.962  15.173  1.8301 -1.5973 -0.6800
 4119TIP3   OH233771   5.524   2.400  12.986 -0.4006 -0.1241  0.8471
 4119TIP3    H133772   5.550   2.319  13.029 -0.2641 -0.2869  0.4652
 4119TIP3    H233773   5.429   2.396  12.980 -0.2005 -2.1988 -2.8749
 4120TIP3   OH233774   3.275   2.875   1.521 -0.5080 -0.2800  0.0446
 4120TIP3    H133775   3.310   2.933   1.589  1.9088 -3.4736  1.6349
 4120TIP3    H233776   3.276   2.929   1.441  2.6225  1.5649  1.2493
 4121TIP3   OH233777   0.655   5.790   2.717 -0.5085 -0.2175  0.2176
 4121TIP3    H133778   0.566   5.816   2.692 -0.5694 -0.3519  0.2957
 4121TIP3    H233779   0.694   5.869   2.754 -0.8249 -0.3419  0.8241
 4122TIP3   OH233780   4.906   0.068  16.860  0.7703 -0.1445 -0.6663
 4122TIP3    H133781   4.907   0.130  16.787  0.0231 -0.2218 -0.7419
 4122TIP3    H233782   4.911   0.123  16.938 -1.3414  0.0915 -0.6845
 4123TIP3   OH233783   6.281   0.393  14.560 -0.0209 -0.1116  0.6170
 4123TIP3    H133784   6.252   0.475  14.599  2.4339  0.9364  0.2802
 4123TIP3    H233785   6.372   0.408  14.536  0.3983 -2.8624  0.3327
 4124TIP3   OH233786   5.749   0.892   0.981  0.0049  0.0975 -0.3125
 4124TIP3    H133787   5.706   0.962   0.932  0.9848  0.4526 -0.6974
 4124TIP3    H233788   5.781   0.833   0.913  2.5729  1.2934 -0.2223
 4125TIP3   OH233789   3.793   3.932  13.399 -0.2609 -0.0483  0.7587
 4125TIP3    H133790   3.836   3.926  13.484 -1.2656 -1.9036  1.1602
 4125TIP3    H233791   3.702   3.909  13.416 -0.5569 -0.0783 -0.7604
 4126TIP3   OH233792   6.552   1.701  11.762 -0.6980 -0.5045  0.2054
 4126TIP3    H133793   6.536   1.609  11.743  0.2493 -0.4583 -0.8687
 4126TIP3    H233794   6.629   1.702  11.818 -0.2264 -0.3231 -0.4424
 4127TIP3   OH233795   3.026   3.561   1.399 -0.1164 -0.0921  0.5516
 4127TIP3    H133796   2.948   3.543   1.452  0.1995 -0.5151  0.8763
 4127TIP3    H233797   3.040   3.655   1.407 -0.6057 -0.0124  0.4750
 4128TIP3   OH233798   2.453   1.224   4.114  0.4113 -0.2220  0.4048
 4128TIP3    H133799   2.499   1.179   4.184 -0.0919 -0.4272  0.5989
 4128TIP3    H233800   2.441   1.158   4.046  1.9544  0.2672 -0.3840
 4129TIP3   OH233801   1.818   3.873   3.108  0.5766 -0.1841 -0.1464
 4129TIP3    H133802   1.789   3.958   3.075  0.0291 -0.3993 -0.2221
 4129TIP3    H233803   1.913   3.874   3.098  0.4619 -0.0626 -1.2875
 4130TIP3   OH233804   3.331   2.185  13.128  0.0488 -0.3237  0.0698
 4130TIP3    H133805   3.413   2.228  13.149 -0.0157  0.6447 -1.5306
 4130TIP3    H233806   3.263   2.245  13.161 -0.0157 -0.6055  0.4455
 4131TIP3   OH233807   3.782   2.104   1.191  0.2185 -0.5053  0.0360
 4131TIP3    H133808   3.790   2.199   1.181  2.8450 -0.6871  0.1877
 4131TIP3    H233809   3.753   2.092   1.282 -2.7817  0.2137 -0.7545
 4132TIP3   OH233810   0.334   3.519  12.747  0.1481 -0.1667  0.2721
 4132TIP3    H133811   0.263   3.577  12.774  0.0408  0.1768 -0.7526
 4132TIP3    H233812   0.294   3.431  12.746 -0.1051 -0.0530  0.2783
 4133TIP3   OH233813   0.831   5.499  17.200 -0.2025 -0.2019  0.6595
 4133TIP3    H133814   0.806   5.573  17.144  0.1549 -0.4420  0.1814
 4133TIP3    H233815   0.748   5.467  17.236 -0.4198  0.0441  0.3794
 4134TIP3   OH233816   4.088   6.034  17.221 -0.1655 -0.0781 -0.4583
 4134TIP3    H133817   4.059   6.045  17.130 -1.0057 -0.5356 -0.2488
 4134TIP3    H233818   4.144   5.957  17.219  0.6436  0.5113 -0.7748
 4135TIP3   OH233819   1.435   0.399  14.159  0.0838  0.2455 -0.7613
 4135TIP3    H133820   1.340   0.400  14.174 -0.4513 -2.7314 -3.4528
 4135TIP3    H233821   1.452   0.478  14.109 -0.6133  1.8902  1.5388
 4136TIP3   OH233822   1.129   0.398   2.704  0.1874  0.1617 -0.8001
 4136TIP3    H133823   1.141   0.493   2.700 -0.3806  0.4380  2.9569
 4136TIP3    H233824   1.038   0.384   2.677 -0.1361  0.7988 -0.0432
 4137TIP3   OH233825   2.030   1.072  11.904 -0.1591 -0.1305 -0.4626
 4137TIP3    H133826   2.088   1.073  11.980 -1.2765  0.5243  0.3903
 4137TIP3    H233827   2.032   0.981  11.875 -0.8988 -0.7205  1.2597
 4138TIP3   OH233828   1.200   4.217  14.831 -0.1185 -0.1772 -0.4742
 4138TIP3    H133829   1.178   4.161  14.756 -1.6695 -0.5061  0.2214
 4138TIP3    H233830   1.208   4.305  14.793  0.1380 -0.5090 -1.2025
 4139TIP3   OH233831   5.270   4.677   3.524  0.2702  0.1562 -0.2413
 4139TIP3    H133832   5.333   4.651   3.592  1.1205  1.4649 -0.5230
 4139TIP3    H233833   5.289   4.620   3.450  0.3122 -0.2785  0.1023
 4140TIP3   OH233834   4.884   2.224  10.366 -0.2902  0.3996 -0.6348
 4140TIP3    H133835   4.855   2.301  10.416  0.0896  1.1687 -1.5851
 4140TIP3    H233836   4.811   2.163  10.373 -0.5668  0.8109  0.1957
 4141TIP3   OH233837   0.648   4.885   4.748  0.5624  0.2867  1.4319
 4141TIP3    H133838   0.717   4.912   4.808  0.9545 -0.8089  1.4858
 4141TIP3    H233839   0.680   4.803   4.710  0.7736  1.4772 -1.0275
 4142TIP3   OH233840   5.521   1.023   2.292  0.6147 -0.3141 -0.0916
 4142TIP3    H133841   5.499   1.042   2.384  0.8560  0.2886 -0.1543
 4142TIP3    H233842   5.600   0.969   2.298  0.7199 -0.1475  0.0555
 4143TIP3   OH233843   1.986   4.942   3.648 -0.3398 -0.1270 -0.0334
 4143TIP3    H133844   1.946   5.023   3.617  0.1359  0.0353 -0.2326
 4143TIP3    H233845   1.919   4.875   3.633 -0.7407  0.2322  0.1516
 4144TIP3   OH233846   6.658   0.328   3.847  0.0446 -0.2925 -0.7228
 4144TIP3    H133847   6.732   0.325   3.908  1.8979  2.1748 -2.7878
 4144TIP3    H233848   6.611   0.407   3.871 -1.1454 -1.1020 -0.3527
 4145TIP3   OH233849   2.160   5.275  13.818 -0.0969 -0.6057 -0.3543
 4145TIP3    H133850   2.135   5.305  13.731  0.4670  0.1276 -0.2779
 4145TIP3    H233851   2.229   5.210  13.803 -0.1187 -0.6038 -0.4646
 4146TIP3   OH233852   1.517   1.680  14.780 -0.2114  0.2082  0.0744
 4146TIP3    H133853   1.461   1.701  14.855  0.1121  1.3959 -0.0102
 4146TIP3    H233854   1.553   1.764  14.752  0.5102 -0.3626 -0.7545
 4147TIP3   OH233855   3.808   5.571   5.896 -0.0260 -0.2952 -0.0014
 4147TIP3    H133856   3.724   5.579   5.851  0.2434  1.8737 -0.1539
 4147TIP3    H233857   3.788   5.594   5.987  0.7458  2.0317 -0.4075
 4148TIP3   OH233858   3.574   2.415  14.196  0.3176 -1.0299  0.2171
 4148TIP3    H133859   3.597   2.330  14.233  0.7763 -1.3217 -0.7249
 4148TIP3    H233860   3.658   2.458  14.183  0.2091 -1.2394 -1.2067
 4149TIP3   OH233861   3.031   2.438   3.983 -0.3296  0.1298 -0.6242
 4149TIP3    H133862   2.979   2.464   3.907 -0.2140 -1.0771 -1.1409
 4149TIP3    H233863   3.096   2.376   3.947 -0.2567 -0.4365  0.4490
 4150TIP3   OH233864   4.130   2.304  11.964 -0.1032  0.6755 -0.3446
 4150TIP3    H133865   4.163   2.359  12.035 -0.7001 -0.3986  0.7834
 4150TIP3    H233866   4.047   2.345  11.939 -0.1128  0.7991 -0.1123
 4151TIP3   OH233867   1.214   5.302   0.583  0.2407 -0.2675  0.2375
 4151TIP3    H133868   1.286   5.269   0.529 -0.7847 -1.0123 -0.6996
 4151TIP3    H233869   1.220   5.252   0.664  0.2680 -0.9227 -0.1691
 4152TIP3   OH233870   4.523   4.516  13.758  0.1840 -0.4891  0.4581
 4152TIP3    H133871   4.526   4.444  13.822  0.3611  0.9827  2.1448
 4152TIP3    H233872   4.596   4.498  13.699  0.3202 -1.6193  0.9434
 4153TIP3   OH233873   5.953   2.748   0.303  0.0392  0.8671  0.3257
 4153TIP3    H133874   5.908   2.811   0.245  0.2302  2.6617  2.0707
 4153TIP3    H233875   5.883   2.696   0.341 -0.0479 -0.8060 -2.0014
 4154TIP3   OH233876   3.636   5.904  14.102  0.4922  0.1194  0.0299
 4154TIP3    H133877   3.694   5.958  14.156 -0.1503  0.1698  0.6712
 4154TIP3    H233878   3.651   5.814  14.133 -0.9689  0.2992  1.3403
 4155TIP3   OH233879   2.352   4.699  11.765 -0.0366 -0.4348 -0.2644
 4155TIP3    H133880   2.313   4.763  11.705  2.0802  0.2565 -0.9439
 4155TIP3    H233881   2.350   4.616  11.716 -0.9034 -0.4732 -0.1753
 4156TIP3   OH233882   0.570   0.576   4.236 -0.2742 -0.0174 -0.3418
 4156TIP3    H133883   0.659   0.578   4.271  0.2207  0.0108 -1.5731
 4156TIP3    H233884   0.531   0.497   4.272  0.4862 -0.4036 -0.3725
 4157TIP3   OH233885   2.240   1.590   0.048  0.1149 -0.2035 -0.1881
 4157TIP3    H133886   2.327   1.550   0.050  0.6902  1.0384 -0.3647
 4157TIP3    H233887   2.250   1.667  -0.007 -0.7903  0.6901  0.8764
 4158TIP3   OH233888   1.344   3.594  13.372 -0.3196 -0.1663 -0.2155
 4158TIP3    H133889   1.257   3.582  13.411 -1.5586 -0.9313 -3.1124
 4158TIP3    H233890   1.395   3.519  13.403 -1.2792 -0.7706 -0.0915
 4159TIP3   OH233891   4.117   1.884   2.090  0.0935  0.0023  0.0745
 4159TIP3    H133892   4.208   1.857   2.081  0.9148  2.4238  0.5866
 4159TIP3    H233893   4.077   1.862   2.006  1.0938 -1.2914 -0.0738
 4160TIP3   OH233894   2.252   5.180   0.097  0.1569  0.8146 -0.4152
 4160TIP3    H133895   2.290   5.099   0.132 -1.0077  0.4411  0.0010
 4160TIP3    H233896   2.245   5.238   0.172 -1.4904  0.3393 -0.1826
 4161TIP3   OH233897   2.494   5.598  15.273  0.1447 -0.1945 -0.1837
 4161TIP3    H133898   2.464   5.522  15.323 -1.7492 -0.2475 -1.3775
 4161TIP3    H233899   2.574   5.568  15.230 -0.4089 -1.4136 -0.3799
 4162TIP3   OH233900   1.859   1.439  10.842 -0.0782  0.1371  0.4282
 4162TIP3    H133901   1.933   1.380  10.855  0.3562  1.0227  2.1584
 4162TIP3    H233902   1.791   1.407  10.902 -0.9512 -0.3991 -0.8246
 4163TIP3   OH233903   5.406   0.017  15.880  0.0486  0.1164 -0.5564
 4163TIP3    H133904   5.473  -0.026  15.826 -0.0459 -0.1833 -0.4370
 4163TIP3    H233905   5.456   0.057  15.951  0.1208  0.0412 -0.5641
 4164TIP3   OH233906   4.328   1.674   4.189  0.5617  0.1377 -0.0342
 4164TIP3    H133907   4.397   1.609   4.174 -0.5510 -0.5167 -2.6046
 4164TIP3    H233908   4.247   1.627   4.169 -0.3455  1.9576 -0.6902
 4165TIP3   OH233909   5.707   4.443   5.453 -0.8705 -0.7078 -0.3590
 4165TIP3    H133910   5.733   4.392   5.530 -0.2343 -0.3769 -0.3527
 4165TIP3    H233911   5.623   4.482   5.477 -0.5749 -0.4408  0.2511
 4166TIP3   OH233912   5.714   3.852   5.666  0.1658  0.2555 -0.3550
 4166TIP3    H133913   5.753   3.907   5.734 -0.5163 -0.5079  0.6765
 4166TIP3    H233914   5.784   3.791   5.641 -0.4086 -1.3731  1.7745
 4167TIP3   OH233915   5.084   3.885  15.209  0.2615  0.5874 -0.3538
 4167TIP3    H133916   5.053   3.940  15.137  0.8039  1.3183 -0.0396
 4167TIP3    H233917   5.098   3.946  15.282  3.1267  0.4097 -0.6933
 4168TIP3   OH233918   0.715   2.078  12.876  0.1690  0.0444 -0.2591
 4168TIP3    H133919   0.677   2.125  12.802 -1.0673 -0.1021  0.2814
 4168TIP3    H233920   0.649   2.013  12.900  1.7565 -1.8680 -0.8782
 4169TIP3   OH233921   4.913   2.392  17.016 -0.4117 -0.0171 -0.7124
 4169TIP3    H133922   4.976   2.431  16.955 -0.7531  1.4591 -0.1307
 4169TIP3    H233923   4.834   2.378  16.963  0.2937 -1.6039 -1.3725
 4170TIP3   OH233924   1.257   1.610  16.457  0.0382 -0.3801 -0.4629
 4170TIP3    H133925   1.287   1.639  16.543  0.2549 -3.0443  0.4102
 4170TIP3    H233926   1.205   1.683  16.423  2.4535  1.9122  0.6022
 4171TIP3   OH233927   2.212   1.632   2.288 -0.4233  0.4052 -0.5297
 4171TIP3    H133928   2.198   1.541   2.264  0.1311  0.7738 -2.3067
 4171TIP3    H233929   2.158   1.645   2.366 -1.8332 -0.9824 -1.2492
 4172TIP3   OH233930   1.193   1.267   3.674 -0.4778  0.1456  0.1433
 4172TIP3    H133931   1.223   1.199   3.613 -1.8133  0.2955 -0.6818
 4172TIP3    H233932   1.098   1.267   3.666 -0.4052  3.3316 -1.1723
 4173TIP3   OH233933   3.247   0.079  15.365 -0.2873  0.1345  0.1075
 4173TIP3    H133934   3.160   0.041  15.378  0.6883 -2.0091  0.5544
 4173TIP3    H233935   3.284   0.030  15.293  1.0495  0.1639  0.7638
 4174TIP3   OH233936   1.927   5.067  11.435 -0.3590 -0.5511 -0.3955
 4174TIP3    H133937   1.848   5.064  11.488 -0.1492 -1.4998 -0.1153
 4174TIP3    H233938   1.955   5.158  11.438 -1.1093 -0.3324 -0.0057
 4175TIP3   OH233939   3.425   2.113   0.374 -0.6174 -0.2292 -0.1714
 4175TIP3    H133940   3.442   2.172   0.447 -0.3543 -0.4294 -0.0704
 4175TIP3    H233941   3.446   2.163   0.296  1.1473 -0.7026 -0.0311
 4176TIP3   OH233942   1.795   5.663  17.239 -0.6517 -0.1874  0.0023
 4176TIP3    H133943   1.775   5.754  17.260 -2.0214 -0.8219  1.6068
 4176TIP3    H233944   1.820   5.664  17.147 -0.5466  1.8181  0.0329
 4177TIP3   OH233945   3.258   6.028  12.568  0.5901 -0.0018  0.1296
 4177TIP3    H133946   3.180   6.047  12.621  1.4709  1.1894  0.9967
 4177TIP3    H233947   3.246   6.080  12.488  1.2757  1.4569  0.9658
 4178TIP3   OH233948   3.579   1.460   4.341 -0.2802 -0.1468  0.4402
 4178TIP3    H133949   3.561   1.449   4.435 -0.0542  0.8661  0.6094
 4178TIP3    H233950   3.493   1.459   4.300 -0.3645 -0.8723  0.6266
 4179TIP3   OH233951   4.690   4.924  16.182  0.3199  0.5812  0.0445
 4179TIP3    H133952   4.737   4.941  16.100 -0.1199 -2.1687 -0.8271
 4179TIP3    H233953   4.644   5.006  16.200 -0.2892  0.9722 -2.9597
 4180TIP3   OH233954   2.265   5.048  12.419  0.2352 -0.6406 -0.0253
 4180TIP3    H133955   2.307   5.009  12.342 -2.1976  1.8975 -2.7715
 4180TIP3    H233956   2.306   5.134  12.428  1.3202 -1.3547  2.2995
 4181TIP3   OH233957   3.847   3.238   0.535  1.0021  0.4471  0.2145
 4181TIP3    H133958   3.844   3.146   0.507  1.2419  1.0281 -1.8328
 4181TIP3    H233959   3.770   3.278   0.494  0.9032  1.1660  1.0883
 4182TIP3   OH233960   2.958   2.570   2.789  0.1253 -0.4111 -0.1677
 4182TIP3    H133961   2.987   2.590   2.878 -0.5610  0.6046 -0.1724
 4182TIP3    H233962   3.036   2.580   2.736  0.0790  1.0014  0.0201
 4183TIP3   OH233963   1.745   1.587  14.253  0.6754  0.0302 -0.2213
 4183TIP3    H133964   1.668   1.599  14.309 -0.3907 -0.6341 -1.5099
 4183TIP3    H233965   1.709   1.573  14.166  2.3148  1.2506 -1.1361
 4184TIP3   OH233966   2.583   1.757  12.624 -0.0508 -0.6823  0.5742
 4184TIP3    H133967   2.601   1.670  12.590  0.3094 -0.0605 -0.8742
 4184TIP3    H233968   2.492   1.774  12.600  0.3337 -0.0722 -0.4766
 4185TIP3   OH233969   2.063   2.994  15.620  0.6279 -0.1982  0.0408
 4185TIP3    H133970   2.058   3.069  15.679  2.5166 -0.6597  0.8290
 4185TIP3    H233971   2.043   3.029  15.534 -0.5763  0.7950  0.7079
 4186TIP3   OH233972   3.314   1.581  14.172  0.2977  0.3509 -0.2522
 4186TIP3    H133973   3.304   1.672  14.143  2.9547  0.3133 -1.4563
 4186TIP3    H233974   3.408   1.564  14.166 -0.2749 -2.8871 -1.2757
 4187TIP3   OH233975   0.697   4.795  16.152 -0.0390 -0.2444 -0.1297
 4187TIP3    H133976   0.646   4.715  16.163  1.7662 -1.1985  1.8356
 4187TIP3    H233977   0.720   4.797  16.059  0.1676 -2.2104 -0.1487
 4188TIP3   OH233978   6.386   1.532  17.239 -0.1992 -1.0698 -0.0584
 4188TIP3    H133979   6.443   1.583  17.182  2.3150 -1.4288  2.0605
 4188TIP3    H233980   6.304   1.581  17.242  0.2406 -0.1533 -2.5434
 4189TIP3   OH233981   5.381   0.257  16.493  0.1084  0.0629  0.0576
 4189TIP3    H133982   5.315   0.317  16.527  0.1729  1.5887 -2.3952
 4189TIP3    H233983   5.346   0.170  16.513 -1.7864  0.8711  0.3873
 4190TIP3   OH233984   1.421   3.971   3.593  0.0727 -0.2596 -0.3262
 4190TIP3    H133985   1.514   3.995   3.588  0.2534 -1.2711 -2.4509
 4190TIP3    H233986   1.374   4.050   3.567  0.2744  0.5533  1.6919
 4191TIP3   OH233987   4.116   2.695  11.749  0.3522  0.0000  0.0045
 4191TIP3    H133988   4.204   2.672  11.779 -0.0741  0.2972  1.5030
 4191TIP3    H233989   4.057   2.645  11.806 -0.4479 -1.4482 -2.0173
 4192TIP3   OH233990   3.950   5.895   3.525 -0.2066  0.0654 -0.0641
 4192TIP3    H133991   4.012   5.835   3.483  0.1197  1.4034 -1.5378
 4192TIP3    H233992   3.898   5.839   3.583  0.8371 -1.4520 -0.5630
 4193TIP3   OH233993   1.863   1.162  16.841 -0.0558 -0.0569 -0.3890
 4193TIP3    H133994   1.912   1.113  16.907 -1.6200 -1.2419 -0.0808
 4193TIP3    H233995   1.927   1.223  16.804  1.1889 -0.3474  1.2345
 4194TIP3   OH233996   5.194   4.878  16.924  0.0783 -0.0804 -0.1672
 4194TIP3    H133997   5.289   4.885  16.917  0.3504 -2.3916  0.6012
 4194TIP3    H233998   5.164   4.863  16.835  0.5474 -0.3739 -0.2750
 4195TIP3   OH233999   1.191   6.408   1.346  0.3441  0.1042 -0.0123
 4195TIP3    H134000   1.254   6.475   1.373 -0.5904  0.2129  1.9830
 4195TIP3    H234001   1.141   6.449   1.275 -0.3374  1.6207  1.3053
 4196TIP3   OH234002   3.286   0.094  13.215  0.3009  0.2668  0.5545
 4196TIP3    H134003   3.270   0.001  13.227  2.1572 -0.0721  0.6319
 4196TIP3    H234004   3.226   0.138  13.276  0.0014 -0.9033  1.1063
 4197TIP3   OH234005   6.062   3.189  13.371  0.1423  0.0064  0.6782
 4197TIP3    H134006   6.008   3.168  13.294  2.4795 -0.4961 -0.8985
 4197TIP3    H234007   6.096   3.276  13.353  0.1558  0.1699  1.4826
 4198TIP3   OH234008   2.506   5.293   0.350  0.1239  0.2411  0.0192
 4198TIP3    H134009   2.529   5.322   0.438  0.5605 -2.4240  0.8274
 4198TIP3    H234010   2.583   5.313   0.297  0.3470  0.6916  0.5054
 4199TIP3   OH234011   5.491   1.880  14.696 -0.0316 -0.1548 -0.3301
 4199TIP3    H134012   5.578   1.841  14.704  0.3201  0.4131 -1.3042
 4199TIP3    H234013   5.462   1.892  14.786  0.6208 -0.9573  0.0021
 4200TIP3   OH234014   6.551   0.013  15.309 -0.1260  0.9083  0.3917
 4200TIP3    H134015   6.463   0.048  15.291 -0.5577 -0.4463 -0.1808
 4200TIP3    H234016   6.601   0.033  15.231 -0.0585  1.2386  0.5179
 4201TIP3   OH234017   5.442   5.538   1.549 -0.0502  0.1261  0.5133
 4201TIP3    H134018   5.528   5.566   1.580  0.5611 -0.5170 -0.5869
 4201TIP3    H234019   5.458   5.500   1.463 -1.6463  1.3885 -0.3791
 4202TIP3   OH234020   4.276   6.075  12.373 -0.1464  0.3866  0.0329
 4202TIP3    H134021   4.288   5.980  12.370  3.0566  0.6736  1.1305
 4202TIP3    H234022   4.249   6.092  12.463 -0.4218  0.5473 -0.0802
 4203TIP3   OH234023   2.028   2.751   2.894  0.1720 -0.2592 -0.1369
 4203TIP3    H134024   2.113   2.718   2.867 -0.5983 -0.8956 -1.8505
 4203TIP3    H234025   2.025   2.736   2.989  2.4260  0.8898  0.1595
 4204TIP3   OH234026   1.015   6.684  16.018  0.0719  0.1634  0.0151
 4204TIP3    H134027   0.932   6.697  15.973 -1.3137 -0.2210  2.3921
 4204TIP3    H234028   1.049   6.772  16.033 -0.4102  0.3658 -0.0766
 4205TIP3   OH234029   1.748   2.254   4.903 -0.0830  0.3629 -0.4520
 4205TIP3    H134030   1.781   2.165   4.898  0.3269  0.4090  1.0868
 4205TIP3    H234031   1.653   2.244   4.899 -0.0049 -0.0578 -1.2965
 4206TIP3   OH234032   3.055   4.960  12.003 -0.0986 -0.3550  0.2952
 4206TIP3    H134033   3.023   4.873  11.978 -2.0115 -0.4170  2.8265
 4206TIP3    H234034   3.151   4.951  12.000 -0.2649 -2.0634 -1.0244
 4207TIP3   OH234035   5.274   4.723  15.051  0.0380  0.1391 -0.1324
 4207TIP3    H134036   5.233   4.637  15.055  1.1455 -0.3434  1.5530
 4207TIP3    H234037   5.226   4.776  15.115  0.8670  0.0760  0.5598
 4208TIP3   OH234038   1.271   3.965  16.598  0.3127  0.2930  0.2500
 4208TIP3    H134039   1.282   3.891  16.658  1.8405  1.5311  1.5291
 4208TIP3    H234040   1.185   4.000  16.620 -1.1919 -2.1050 -1.5446
 4209TIP3   OH234041   0.924   3.891  13.045  0.0970  0.3742  0.3207
 4209TIP3    H134042   0.878   3.965  13.003 -0.9647 -0.2477  0.3554
 4209TIP3    H234043   0.986   3.861  12.979 -1.4286 -0.4768 -0.7840
 4210TIP3   OH234044   5.329   1.954   1.795  0.1643  0.6954  0.1537
 4210TIP3    H134045   5.288   2.040   1.789 -0.9056  0.2903  1.3938
 4210TIP3    H234046   5.416   1.971   1.833  0.9915  1.4975 -2.0171
 4211TIP3   OH234047   6.317   4.318   5.177 -0.3496  0.3276 -0.2452
 4211TIP3    H134048   6.346   4.229   5.157 -0.1559  0.6816 -1.5815
 4211TIP3    H234049   6.319   4.364   5.092 -0.6618  1.5372  0.3887
 4212TIP3   OH234050   1.198   6.720   4.665 -0.5550  0.0398  0.2534
 4212TIP3    H134051   1.291   6.700   4.675 -0.4124  0.6279  0.1318
 4212TIP3    H234052   1.189   6.810   4.696 -0.9966  0.1521 -0.1829
 4213TIP3   OH234053   6.687   0.905  12.814 -0.5042 -0.6688 -0.1592
 4213TIP3    H134054   6.692   0.961  12.736  0.1456  0.0156  0.3626
 4213TIP3    H234055   6.688   0.967  12.887  2.2278 -1.4160  0.5018
 4214TIP3   OH234056   4.542   3.876   5.914  0.5623 -0.3198 -0.0305
 4214TIP3    H134057   4.510   3.948   5.859 -0.7742 -2.1965 -1.7733
 4214TIP3    H234058   4.535   3.910   6.004 -0.0264  1.7218 -0.8142
 4215TIP3   OH234059   4.853   3.630  16.066  0.0947 -0.3639 -0.2758
 4215TIP3    H134060   4.795   3.705  16.074 -0.0136 -0.3771 -0.9148
 4215TIP3    H234061   4.936   3.660  16.104 -0.5890 -0.6604  1.5067
 4216TIP3   OH234062   2.817   2.047  12.699  0.4083  0.2450 -0.5197
 4216TIP3    H134063   2.897   2.052  12.752  0.1967 -2.1212  0.0479
 4216TIP3    H234064   2.790   1.955  12.703 -1.0051  0.5224 -2.7057
 4217TIP3   OH234065   0.751   2.515   0.714 -0.4451  0.1395 -0.0817
 4217TIP3    H134066   0.775   2.549   0.628 -1.2795  1.6937  0.2827
 4217TIP3    H234067   0.658   2.492   0.705 -0.4179 -0.1166  0.2889
 4218TIP3   OH234068   1.023   4.984   5.104  0.3090  0.0789  0.7500
 4218TIP3    H134069   0.953   4.971   5.168  0.3858  1.4899  1.1408
 4218TIP3    H234070   1.061   5.069   5.128  2.3300 -0.7865  0.7137
 4219TIP3   OH234071   4.321   4.148  14.797 -0.5497 -0.2026 -0.4171
 4219TIP3    H134072   4.323   4.150  14.893  1.0968 -0.6474 -0.4317
 4219TIP3    H234073   4.362   4.065  14.774 -0.7813 -0.0124 -1.5149
 4220TIP3   OH234074   6.535   2.057   3.936  0.3320 -0.6766  0.3472
 4220TIP3    H134075   6.533   2.043   3.841 -0.6376  0.8369  0.1302
 4220TIP3    H234076   6.600   2.126   3.948 -2.0149  1.6044  0.4146
 4221TIP3   OH234077   4.375   0.013   1.749 -0.2713 -0.3201  0.4731
 4221TIP3    H134078   4.317  -0.057   1.720 -0.1457 -0.1221 -0.2545
 4221TIP3    H234079   4.441  -0.031   1.803  0.4602 -0.9242 -0.8967
 4222TIP3   OH234080   3.756   3.645   2.021 -0.3863  0.6109  0.3364
 4222TIP3    H134081   3.802   3.563   2.041 -2.3017 -0.8763 -1.1146
 4222TIP3    H234082   3.825   3.710   2.012  1.2898 -1.1782 -0.0349
 4223TIP3   OH234083   0.692   1.548  16.655  0.7007 -0.0244  0.2399
 4223TIP3    H134084   0.629   1.604  16.609 -1.3531 -1.0490  1.6758
 4223TIP3    H234085   0.675   1.460  16.620 -0.0480 -0.6152  2.0426
 4224TIP3   OH234086   2.848   4.106  14.727 -0.4317 -0.5920 -0.1867
 4224TIP3    H134087   2.887   4.027  14.689  1.2963 -2.0186  4.2342
 4224TIP3    H234088   2.923   4.160  14.751 -1.4666  0.3855  0.8978
 4225TIP3   OH234089   3.980   5.221  14.544  0.5627 -0.2993  0.2158
 4225TIP3    H134090   3.923   5.168  14.488 -0.5491  0.3477  0.7259
 4225TIP3    H234091   4.037   5.267  14.482  0.2553 -0.6246 -0.3169
 4226TIP3   OH234092   1.357   4.477  15.061 -0.4375 -0.0453 -0.4125
 4226TIP3    H134093   1.379   4.519  15.144 -4.7839  1.2992  0.1857
 4226TIP3    H234094   1.328   4.549  15.005  0.7967 -1.1627 -2.5565
 4227TIP3   OH234095   0.886   4.154   3.441 -0.4807 -0.0567  0.5228
 4227TIP3    H134096   0.900   4.110   3.357  1.4154  1.4389  0.0330
 4227TIP3    H234097   0.865   4.244   3.417  2.5648  1.0072  1.6972
 4228TIP3   OH234098   6.059   4.225   2.868 -0.1205  0.4514 -0.2849
 4228TIP3    H134099   6.151   4.206   2.850 -0.4409  0.1753 -1.7489
 4228TIP3    H234100   6.025   4.255   2.783 -1.2788  0.9263  0.3482
 4229TIP3   OH234101   1.843   2.814  12.044  0.0806 -0.3472 -0.0593
 4229TIP3    H134102   1.774   2.855  12.096  0.8820  0.6659  0.2335
 4229TIP3    H234103   1.821   2.838  11.954  0.4852  0.6697  0.0998
 4230TIP3   OH234104   5.208   5.467   3.023 -0.2483  0.8670 -0.2652
 4230TIP3    H134105   5.248   5.486   3.107  1.6441  0.7704 -1.1311
 4230TIP3    H234106   5.243   5.382   2.997 -0.8229  0.8844 -1.1497
 4231TIP3   OH234107   1.735   5.656   5.210  0.1891 -0.6722  0.8729
 4231TIP3    H134108   1.803   5.661   5.144 -1.2601 -1.0304 -0.6748
 4231TIP3    H234109   1.704   5.566   5.208 -1.5489 -0.0850  0.2951
 4232TIP3   OH234110   2.709   3.462   0.035  0.0531 -0.5894 -0.2640
 4232TIP3    H134111   2.746   3.482   0.121  0.7527 -0.2851 -0.6336
 4232TIP3    H234112   2.616   3.443   0.053  0.3429 -1.1875  0.6392
 4233TIP3   OH234113   1.652   2.326  15.712 -0.4974  0.0650  0.4255
 4233TIP3    H134114   1.664   2.342  15.619 -2.9531  2.3839  0.4877
 4233TIP3    H234115   1.632   2.232  15.718  0.3818 -0.2457 -1.2656
 4234TIP3   OH234116   4.056   2.698  13.641  0.2163  0.2118 -0.4675
 4234TIP3    H134117   4.093   2.786  13.639 -0.2104  0.6134  4.0236
 4234TIP3    H234118   4.125   2.643  13.678 -0.6268 -0.7059 -0.2265
 4235TIP3   OH234119   5.490   0.426   1.798  0.6161  0.4179 -0.4202
 4235TIP3    H134120   5.498   0.518   1.773  1.2167  0.8665  1.3818
 4235TIP3    H234121   5.506   0.377   1.717 -0.8247  1.9202 -1.6325
 4236TIP3   OH234122   1.593   1.164   0.701  0.4126 -0.0084  0.2056
 4236TIP3    H134123   1.622   1.100   0.765 -1.4279 -0.7317  0.3471
 4236TIP3    H234124   1.590   1.116   0.618  0.9868  0.4439 -0.0879
 4237TIP3   OH234125   5.016   6.539   1.413  0.2543  0.0198  0.9133
 4237TIP3    H134126   4.966   6.601   1.360  0.4456  0.0125  0.7232
 4237TIP3    H234127   5.107   6.553   1.387  0.0515 -2.5780 -1.5140
 4238TIP3   OH234128   5.068   1.837   4.609 -0.2220 -0.2370 -0.0263
 4238TIP3    H134129   5.055   1.750   4.571 -0.5531 -0.6114  0.9312
 4238TIP3    H234130   5.013   1.895   4.556  0.6892 -0.4524 -1.2333
 4239TIP3   OH234131   4.028   2.311   1.947  0.2597  0.4948  0.4778
 4239TIP3    H134132   4.101   2.369   1.926  0.6514  0.5866  2.0616
 4239TIP3    H234133   4.012   2.263   1.865  1.4242  1.1872 -0.1739
 4240TIP3   OH234134   1.531   3.547   3.999  0.3758 -0.1120 -0.1837
 4240TIP3    H134135   1.529   3.532   3.904 -0.8238  1.6520 -0.4583
 4240TIP3    H234136   1.452   3.598   4.017  0.8710  0.0261  1.6978
 4241TIP3   OH234137   0.229   1.811  12.415  0.5747  0.3737  0.1892
 4241TIP3    H134138   0.267   1.896  12.437  0.5134 -0.0173  1.9146
 4241TIP3    H234139   0.295   1.769  12.359  1.8144  0.5096  1.5054
 4242TIP3   OH234140   4.873   4.420  15.412  0.4014 -0.1599  0.3867
 4242TIP3    H134141   4.795   4.416  15.468  1.4907  0.7652  2.0008
 4242TIP3    H234142   4.865   4.343  15.355 -1.9952  0.2509  0.1044
 4243TIP3   OH234143   0.676   0.563  12.447  0.3624  1.0922 -0.2150
 4243TIP3    H134144   0.720   0.557  12.362  2.4058  0.1979  0.8780
 4243TIP3    H234145   0.586   0.537  12.429  1.6216 -2.7098 -1.4514
 4244TIP3   OH234146   2.243   3.448   1.655  0.6150 -0.1907 -0.2548
 4244TIP3    H134147   2.241   3.521   1.593 -0.8261 -0.6864 -0.8206
 4244TIP3    H234148   2.248   3.370   1.600 -1.2644 -0.6630  0.1950
 4245TIP3   OH234149   6.469   2.754   3.542  0.0624 -0.8304  0.6928
 4245TIP3    H134150   6.515   2.835   3.520 -1.0610 -1.0295 -2.6222
 4245TIP3    H234151   6.539   2.692   3.562  0.9817  0.5241  1.7524
 4246TIP3   OH234152   5.496   2.289   0.219 -0.6957  0.1292 -0.1425
 4246TIP3    H134153   5.479   2.205   0.176 -0.3823  0.9568 -1.9594
 4246TIP3    H234154   5.584   2.280   0.255 -0.1275  0.1054 -1.4882
 4247TIP3   OH234155   0.804   1.361  14.703 -0.8872  0.8818 -0.9553
 4247TIP3    H134156   0.724   1.376  14.753 -1.1041  0.6537 -1.2353
 4247TIP3    H234157   0.788   1.280  14.655 -1.1248  1.7003 -2.2738
 4248TIP3   OH234158   3.246   4.019   5.358  0.1001 -0.0699 -0.4418
 4248TIP3    H134159   3.177   4.034   5.422 -0.7896 -1.3466 -1.0672
 4248TIP3    H234160   3.210   4.053   5.276  0.2789 -0.5382 -0.7204
 4249TIP3   OH234161   6.648   0.985  10.201 -0.0597  0.1784  0.8204
 4249TIP3    H134162   6.671   1.077  10.212  0.5592 -0.0242  1.2829
 4249TIP3    H234163   6.644   0.951  10.291  1.5629 -0.6819  0.5857
 4250TIP3   OH234164   3.696   4.224   2.724 -0.1381 -0.0002 -1.0220
 4250TIP3    H134165   3.706   4.222   2.819 -1.6810  0.8100 -0.8243
 4250TIP3    H234166   3.691   4.132   2.698 -1.0253 -0.2099 -0.1510
 4251TIP3   OH234167   4.142   4.036   6.953 -0.4562  0.6238  0.4769
 4251TIP3    H134168   4.057   4.070   6.981 -1.4782 -0.3676 -1.3154
 4251TIP3    H234169   4.183   4.108   6.906 -0.7679  0.7780  0.4377
 4252TIP3   OH234170   5.016   4.397  14.802  0.5002  0.4912  0.0633
 4252TIP3    H134171   5.056   4.324  14.850  0.5179 -1.1293 -2.3108
 4252TIP3    H234172   4.923   4.392  14.824  0.2300 -1.3312 -1.3841
 4253TIP3   OH234173   2.462   6.516  17.231  0.6592  0.4779  0.1135
 4253TIP3    H134174   2.479   6.601  17.272 -0.0030  1.0058 -0.6913
 4253TIP3    H234175   2.376   6.526  17.191  0.9869 -0.2749 -0.7796
 4254TIP3   OH234176   3.275   2.893   4.725 -0.2931  0.2704  0.2864
 4254TIP3    H134177   3.330   2.852   4.792  0.0784  1.3756  0.6635
 4254TIP3    H234178   3.202   2.931   4.774 -0.4857  0.3216 -0.0381
 4255TIP3   OH234179   6.199   0.323  10.883  0.5327 -0.3066 -0.3794
 4255TIP3    H134180   6.107   0.294  10.890  1.1242 -2.6220 -1.5452
 4255TIP3    H234181   6.195   0.405  10.835 -0.8045 -1.3968 -2.2023
 4256TIP3   OH234182   6.054   0.617  15.829 -0.0292  0.0062  0.6102
 4256TIP3    H134183   6.038   0.557  15.756  2.3826 -1.8580  1.5562
 4256TIP3    H234184   6.118   0.679  15.795  0.0491 -0.0219  0.7079
 4257TIP3   OH234185   5.453   4.824   2.197 -0.4488  0.7618 -0.4948
 4257TIP3    H134186   5.451   4.730   2.214 -2.2345  0.4274 -2.3216
 4257TIP3    H234187   5.515   4.833   2.124  1.0141  1.2196  0.7891
 4258TIP3   OH234188   5.833   5.598  15.176 -0.6782  0.1323 -0.0053
 4258TIP3    H134189   5.759   5.651  15.204  1.3253  3.1453 -0.2495
 4258TIP3    H234190   5.793   5.525  15.127 -3.4837  1.2668  0.4952
 4259TIP3   OH234191   4.887   2.223   1.632  0.4944 -0.2313  0.3278
 4259TIP3    H134192   4.884   2.204   1.726 -1.0602  0.1619  0.3662
 4259TIP3    H234193   4.826   2.161   1.593 -2.6763  2.8166  0.1624
 4260TIP3   OH234194   3.396   6.065  13.441  0.1125 -0.0628 -0.1472
 4260TIP3    H134195   3.422   6.021  13.522 -0.0870 -1.1310 -0.6424
 4260TIP3    H234196   3.327   6.125  13.468 -0.6780 -1.1515  0.3323
 4261TIP3   OH234197   5.657   5.687  11.230 -0.2279  0.3776 -0.0719
 4261TIP3    H134198   5.656   5.678  11.135  0.0803  0.4013 -0.0770
 4261TIP3    H234199   5.623   5.603  11.262 -0.0947  0.2749 -0.1974
 4262TIP3   OH234200   5.987   2.428  11.082  0.1581  0.0079  0.1975
 4262TIP3    H134201   6.004   2.438  11.176 -0.4891  0.3512  0.2823
 4262TIP3    H234202   6.070   2.449  11.040 -0.0499  1.7154  0.6016
 4263TIP3   OH234203   1.403   6.588  12.028  0.0371 -0.3452  0.7210
 4263TIP3    H134204   1.328   6.647  12.019 -0.4272 -1.0149  0.2029
 4263TIP3    H234205   1.473   6.644  12.062  0.2411  1.0236 -1.8043
 4264TIP3   OH234206   0.064   6.160   6.222  0.2232 -0.1709  0.4350
 4264TIP3    H134207   0.144   6.204   6.252  0.2266  1.3729 -1.6995
 4264TIP3    H234208   0.027   6.120   6.301  2.1382  0.6350  1.7798
 4265TIP3   OH234209   3.585   0.477   0.677 -0.0110  0.3834 -0.7659
 4265TIP3    H134210   3.532   0.397   0.676 -0.1954  0.5068 -1.6270
 4265TIP3    H234211   3.619   0.483   0.587  1.9963 -0.0428 -0.0579
 4266TIP3   OH234212   5.528   1.674  16.327 -0.4674  0.2201 -0.2268
 4266TIP3    H134213   5.522   1.715  16.413  0.3756 -1.9802  0.9025
 4266TIP3    H234214   5.506   1.582  16.342  2.7742 -0.8660 -1.7868
 4267TIP3   OH234215   2.283   2.510  15.707 -0.1216 -0.0624 -0.1202
 4267TIP3    H134216   2.264   2.602  15.690 -1.5000 -0.4318 -0.6737
 4267TIP3    H234217   2.197   2.471  15.724  0.4810 -1.1940  0.3759
 4268TIP3   OH234218   1.235   4.466   5.285 -0.2239 -0.0773  0.4473
 4268TIP3    H134219   1.205   4.557   5.293  1.6767  0.5544  0.4393
 4268TIP3    H234220   1.284   4.450   5.365  1.0422 -0.4915 -0.4142
 4269TIP3   OH234221   6.475   2.487  12.698  0.7779 -0.5295  0.1248
 4269TIP3    H134222   6.484   2.411  12.755  1.3142 -1.5693 -1.3205
 4269TIP3    H234223   6.391   2.474  12.655  0.3022  0.3355  0.7715
 4270TIP3   OH234224   5.747   0.828   6.467  0.1588  0.5454 -0.1704
 4270TIP3    H134225   5.711   0.815   6.379  0.6778  4.2331 -0.9887
 4270TIP3    H234226   5.835   0.862   6.452  0.5948  0.3493  1.8095
 4271TIP3   OH234227   5.068   4.985   4.702 -0.2422  0.3710 -0.4236
 4271TIP3    H134228   5.044   4.915   4.762  0.0407 -1.1809 -2.0865
 4271TIP3    H234229   5.129   5.040   4.753 -0.1532 -0.7919  0.7527
 4272TIP3   OH234230   4.493   0.701  16.787 -0.1348  0.1568 -0.8152
 4272TIP3    H134231   4.443   0.675  16.864 -2.0463  0.7012 -1.8437
 4272TIP3    H234232   4.548   0.626  16.768 -0.2076 -0.2856  0.6152
 4273TIP3   OH234233   5.253   2.920   1.989 -0.4772 -0.5277  0.5010
 4273TIP3    H134234   5.341   2.904   1.955 -0.5296 -1.1879  0.6808
 4273TIP3    H234235   5.227   3.003   1.949 -0.6797 -1.4669 -1.3282
 4274TIP3   OH234236   5.805   5.956  12.232 -0.0976 -0.8007 -0.1578
 4274TIP3    H134237   5.725   5.912  12.261 -0.1985 -0.6144 -0.1572
 4274TIP3    H234238   5.789   5.977  12.140  0.1349 -1.1915 -0.2909
 4275TIP3   OH234239   4.058   0.672   2.685  0.0079  0.1233  0.3056
 4275TIP3    H134240   4.031   0.589   2.723 -2.0747  0.9765  0.7883
 4275TIP3    H234241   4.021   0.738   2.744  2.8188  1.3936  0.7352
 4276TIP3   OH234242   3.596   4.278   0.270 -0.0845 -0.1860  0.2059
 4276TIP3    H134243   3.662   4.213   0.293  2.4092  2.1223 -0.1101
 4276TIP3    H234244   3.608   4.348   0.335 -1.7872  0.5475 -0.2468
 4277TIP3   OH234245   2.998   0.097  14.473 -0.3547  0.0139 -0.4943
 4277TIP3    H134246   3.031   0.012  14.441  2.2906  1.1129 -0.8292
 4277TIP3    H234247   2.957   0.077  14.557  0.1247 -1.6406 -0.6340
 4278TIP3   OH234248   1.789   4.246  12.629 -0.3234  0.4005  0.3259
 4278TIP3    H134249   1.742   4.257  12.712  1.6811 -2.4962  1.9392
 4278TIP3    H234250   1.820   4.156  12.630  1.5210  0.9147 -2.6539
 4279TIP3   OH234251   4.038   6.567  12.882 -0.6308  0.5249  0.1103
 4279TIP3    H134252   4.122   6.532  12.853 -0.1047  0.7935  1.2673
 4279TIP3    H234253   3.992   6.492  12.919 -0.6695  0.4915 -0.0059
 4280TIP3   OH234254   5.121   1.379   3.718 -0.0149  0.3585  0.4872
 4280TIP3    H134255   5.096   1.393   3.626  0.6210  1.6994  0.5160
 4280TIP3    H234256   5.040   1.356   3.762  0.0020 -2.4687 -0.8220
 4281TIP3   OH234257   3.049   6.155  11.208 -0.1585  0.7259  0.5919
 4281TIP3    H134258   2.954   6.154  11.201 -0.1721  1.3558  0.6262
 4281TIP3    H234259   3.079   6.123  11.123 -0.4010  0.9528  0.4176
 4282TIP3   OH234260   2.355   2.824  12.955  0.1520 -0.1956  0.2678
 4282TIP3    H134261   2.349   2.735  12.989 -1.1337 -0.1782  0.1045
 4282TIP3    H234262   2.366   2.878  13.034 -4.1276 -0.0313  0.8619
 4283TIP3   OH234263   4.190   5.507  17.125  0.0577  0.4550  0.1987
 4283TIP3    H134264   4.097   5.485  17.114 -0.5445  1.9432  2.0175
 4283TIP3    H234265   4.214   5.466  17.208  0.7203  0.9974  0.2764
 4284TIP3   OH234266   5.140   0.143   3.533  0.0511 -0.8093 -0.0244
 4284TIP3    H134267   5.082   0.132   3.608  1.9369 -1.4788  1.3607
 4284TIP3    H234268   5.148   0.238   3.523 -0.2073 -0.7186  0.6127
 4285TIP3   OH234269   4.110   2.799   3.338  0.3329 -0.3643  0.2515
 4285TIP3    H134270   4.122   2.768   3.249  1.8995  0.2791  0.2272
 4285TIP3    H234271   4.077   2.888   3.329 -3.5509 -1.7175  0.3254
 4286TIP3   OH234272   0.298   4.450  13.374 -0.1463  0.3128  0.1575
 4286TIP3    H134273   0.213   4.427  13.413 -0.8230  0.7359 -1.0345
 4286TIP3    H234274   0.289   4.427  13.282  1.5607 -1.0028  0.2959
 4287TIP3   OH234275   3.724   2.677   5.020 -0.0236  0.1270 -0.4715
 4287TIP3    H134276   3.777   2.664   5.098  1.0424  1.1106 -1.0230
 4287TIP3    H234277   3.761   2.755   4.978 -1.9556  0.8673 -0.8274
 4288TIP3   OH234278   6.715   2.567  10.213  0.4829  0.0153  0.2283
 4288TIP3    H134279   6.691   2.624  10.286 -0.0571 -0.5896  0.5228
 4288TIP3    H234280   6.811   2.560  10.219  0.2879 -1.3754  1.8722
 4289TIP3   OH234281   4.299   1.847   3.764  0.2347  0.1639  0.3767
 4289TIP3    H134282   4.260   1.934   3.752 -1.6170 -0.8052 -0.7591
 4289TIP3    H234283   4.341   1.852   3.850  2.4700  3.0417 -0.7794
 4290TIP3   OH234284   6.270   0.589   1.017  0.1256  0.4081 -0.9980
 4290TIP3    H134285   6.184   0.548   1.032  0.8537 -1.8622 -2.8840
 4290TIP3    H234286   6.263   0.674   1.063 -3.0287  0.1947 -0.9235
 4291TIP3   OH234287   6.570   5.557   0.471 -0.1536 -0.5256  0.2361
 4291TIP3    H134288   6.585   5.632   0.414 -0.2718  0.1189  1.0414
 4291TIP3    H234289   6.576   5.593   0.560 -1.4252 -1.2250  0.6196
 4292TIP3   OH234290   1.600   6.523  13.405  0.0425 -0.1770  0.4443
 4292TIP3    H134291   1.571   6.432  13.415  1.7720 -0.4161  3.7845
 4292TIP3    H234292   1.583   6.564  13.489  1.9900  1.8303 -0.0842
 4293TIP3   OH234293   5.991   0.160   3.950 -0.4128 -0.0237  0.0660
 4293TIP3    H134294   5.955   0.246   3.972  2.0095  1.3155 -0.8758
 4293TIP3    H234295   5.984   0.109   4.030  0.7632  2.0402  1.5415
 4294TIP3   OH234296   1.093   2.184  13.527  0.4217 -0.1131  0.2195
 4294TIP3    H134297   1.004   2.210  13.500  0.8181  0.5698 -0.4389
 4294TIP3    H234298   1.141   2.266  13.531  0.9628 -0.4626  0.8240
 4295TIP3   OH234299   2.082   0.400  11.502  0.4605  0.2829  0.2039
 4295TIP3    H134300   2.087   0.450  11.583  0.2470  0.4262  0.1288
 4295TIP3    H234301   2.143   0.445  11.443  1.4513 -0.4709  0.6276
 4296TIP3   OH234302   1.572   4.667   5.498  0.2165 -0.4911 -0.3759
 4296TIP3    H134303   1.533   4.713   5.423 -0.8009 -2.0258 -0.8018
 4296TIP3    H234304   1.665   4.687   5.492 -0.5872  4.8805  1.7549
 4297TIP3   OH234305   4.631   0.915   4.607 -0.1459  0.0119 -0.5047
 4297TIP3    H134306   4.635   0.858   4.684 -1.1798  0.0115 -0.4427
 4297TIP3    H234307   4.545   0.956   4.612  0.2026  0.8323 -1.0853
 4298TIP3   OH234308   5.004   5.744  15.607  0.1312 -0.5883  0.3895
 4298TIP3    H134309   5.042   5.720  15.691 -1.4155 -0.2144  1.2097
 4298TIP3    H234310   5.065   5.810  15.571  0.7004 -0.6221  1.2798
 4299TIP3   OH234311   5.408   0.195  17.096 -0.0030  0.0249 -0.5011
 4299TIP3    H134312   5.440   0.284  17.080 -2.1739  0.8193 -0.5698
 4299TIP3    H234313   5.481   0.138  17.070  0.4435  1.6897 -3.0359
 4300TIP3   OH234314   6.457   1.799   4.034  0.0410  0.2224 -0.4038
 4300TIP3    H134315   6.530   1.739   4.050 -0.5765 -0.4106  0.0683
 4300TIP3    H234316   6.498   1.876   3.995  1.1677  0.5086  1.2915
 4301TIP3   OH234317   2.106   2.367   0.375 -0.0102 -0.1079 -0.1858
 4301TIP3    H134318   2.138   2.451   0.405 -0.7200 -0.2298  0.9277
 4301TIP3    H234319   2.161   2.302   0.420  1.5747 -0.2451 -2.2172
 4302TIP3   OH234320   0.322   5.978  16.889  0.4421 -0.3029 -0.2643
 4302TIP3    H134321   0.256   5.915  16.920  0.5087 -1.0014 -1.5150
 4302TIP3    H234322   0.289   6.007  16.804  0.8364  0.7297 -0.0746
 4303TIP3   OH234323   2.270   4.432  17.102 -0.2086  0.2746 -0.4679
 4303TIP3    H134324   2.209   4.371  17.060 -0.1060 -0.2837  0.1822
 4303TIP3    H234325   2.214   4.489  17.155 -0.3681  1.1777 -1.5948
 4304TIP3   OH234326   1.882   3.272   2.441 -0.0079  1.0498 -0.0242
 4304TIP3    H134327   1.967   3.290   2.481 -0.0045  1.3324 -0.1587
 4304TIP3    H234328   1.852   3.192   2.483  1.0859  0.0307 -1.1670
 4305TIP3   OH234329   2.012   3.617   4.367  0.2383 -0.4823  0.2138
 4305TIP3    H134330   1.979   3.652   4.284  1.2430 -1.4304 -0.5967
 4305TIP3    H234331   1.945   3.554   4.395  0.6818 -1.3727 -0.7130
 4306TIP3   OH234332   0.399   1.564  14.591 -0.0066 -0.6021  0.3564
 4306TIP3    H134333   0.413   1.498  14.659  1.5346  0.4235  1.0533
 4306TIP3    H234334   0.482   1.567  14.543 -0.7720 -0.6495 -0.9964
 4307TIP3   OH234335   4.281   6.436  12.822  0.2948 -0.1413  0.3123
 4307TIP3    H134336   4.356   6.479  12.861 -1.2343  1.2475  1.8155
 4307TIP3    H234337   4.301   6.431  12.728  1.3206  2.0943  0.3967
 4308TIP3   OH234338   3.787   4.789  16.667 -0.1608 -0.1918 -0.1237
 4308TIP3    H134339   3.804   4.706  16.622  1.7530  0.3448 -0.4110
 4308TIP3    H234340   3.865   4.842  16.651 -0.8424  1.2209  1.0985
 4309TIP3   OH234341   2.131   4.664  16.244  0.2802 -0.2853  0.1647
 4309TIP3    H134342   2.188   4.703  16.310 -0.3159  0.1187  0.4479
 4309TIP3    H234343   2.184   4.595  16.204  1.5184  1.1250 -0.6765
 4310TIP3   OH234344   4.869   0.611   3.406  0.4192  0.2256  0.7313
 4310TIP3    H134345   4.821   0.653   3.477 -2.0732 -1.6737  0.2272
 4310TIP3    H234346   4.836   0.652   3.326 -0.1586 -0.8653  0.4024
 4311TIP3   OH234347   1.605   6.272  16.415  0.1123  0.4037 -0.5306
 4311TIP3    H134348   1.511   6.255  16.421  0.2703  0.1196  1.6884
 4311TIP3    H234349   1.644   6.188  16.391  0.0762 -0.3241  1.8081
 4312TIP3   OH234350   4.587   4.733   5.179 -0.5144  0.7325  0.1167
 4312TIP3    H134351   4.640   4.734   5.099 -1.0905 -2.1632 -0.3601
 4312TIP3    H234352   4.516   4.672   5.160 -0.5885 -0.0940  2.8534
 4313TIP3   OH234353   0.472   4.350   4.698 -0.0945  0.0364 -0.0225
 4313TIP3    H134354   0.493   4.294   4.623  1.6318 -0.8754  1.0961
 4313TIP3    H234355   0.392   4.312   4.735 -0.5123  0.0166 -0.9452
 4314TIP3   OH234356   3.075   5.602   1.220 -0.2737  0.4199 -0.0901
 4314TIP3    H134357   3.060   5.669   1.153  2.6024 -0.7448 -1.9860
 4314TIP3    H234358   3.115   5.650   1.293  1.0299  0.9196 -1.1158
 4315TIP3   OH234359   5.295   6.708  16.333  0.1025  0.1309  0.3659
 4315TIP3    H134360   5.373   6.682  16.381  0.0526 -1.8875 -0.5837
 4315TIP3    H234361   5.288   6.644  16.262 -1.1785  1.5965 -0.8736
 4316TIP3   OH234362   3.173   1.152  14.295  0.0514  0.0695 -0.3061
 4316TIP3    H134363   3.079   1.171  14.294  0.4032  2.0118 -0.0713
 4316TIP3    H234364   3.179   1.059  14.315 -1.7972  0.1894  0.9091
 4317TIP3   OH234365   2.824   2.833   5.451  0.1945 -0.3717  0.4564
 4317TIP3    H134366   2.860   2.769   5.391  0.3360  0.7531 -0.6804
 4317TIP3    H234367   2.839   2.796   5.538  3.3215 -0.3509 -0.0005
 4318TIP3   OH234368   6.007   4.233  13.264 -0.1776 -0.3292 -0.3151
 4318TIP3    H134369   5.985   4.326  13.271 -0.2489 -0.2060 -1.9234
 4318TIP3    H234370   6.001   4.200  13.353  0.0570  1.2559  0.3064
 4319TIP3   OH234371   2.329   2.153   3.941 -0.2636 -0.1366 -0.3963
 4319TIP3    H134372   2.367   2.084   3.995 -1.7141  0.8379  1.9450
 4319TIP3    H234373   2.364   2.234   3.978 -1.1923  0.5395 -0.9978
 4320TIP3   OH234374   0.917   2.096   0.695 -0.1471 -0.2745 -0.3718
 4320TIP3    H134375   0.906   2.098   0.600  0.1093 -0.6719 -0.4080
 4320TIP3    H234376   0.874   2.015   0.723 -0.0247 -0.2719 -0.1728
 4321TIP3   OH234377   0.929   3.840   3.010 -0.2096  0.0237  0.3709
 4321TIP3    H134378   0.931   3.744   3.008 -0.7943  0.0266 -0.5212
 4321TIP3    H234379   0.938   3.867   2.919 -0.9274  0.7923  0.5141
 4322TIP3   OH234380   3.164   0.609   0.181  0.2301  0.2185  0.1839
 4322TIP3    H134381   3.087   0.578   0.134  0.8973 -0.2426 -0.6357
 4322TIP3    H234382   3.131   0.672   0.245 -1.0304 -1.3673  1.1143
 4323TIP3   OH234383   2.258   3.733   4.346  0.5329 -0.0492  0.1673
 4323TIP3    H134384   2.167   3.715   4.372  0.3760 -0.5690 -0.7364
 4323TIP3    H234385   2.261   3.711   4.253  1.3567  0.8411 -0.0178
 4324TIP3   OH234386   0.888   1.244  15.054  0.4449 -0.0201 -0.2654
 4324TIP3    H134387   0.805   1.215  15.091  0.9775 -1.2939 -0.0196
 4324TIP3    H234388   0.901   1.189  14.977  0.5770  0.8649 -0.8817
 4325TIP3   OH234389   4.129   3.421   5.843 -0.3551  0.0159  0.1502
 4325TIP3    H134390   4.148   3.501   5.893 -0.0772 -0.0727  0.1861
 4325TIP3    H234391   4.049   3.442   5.795 -1.7636 -0.6126  2.1871
 4326TIP3   OH234392   5.438   2.834  11.736  0.3308 -0.4088 -0.2950
 4326TIP3    H134393   5.447   2.810  11.643 -0.2214 -0.1107 -0.4293
 4326TIP3    H234394   5.353   2.798  11.762  0.7267 -0.9605  0.2481
 4327TIP3   OH234395   3.384   6.324   2.737 -0.1980 -0.6282 -0.5709
 4327TIP3    H134396   3.410   6.300   2.648  1.3131  0.7074 -0.5090
 4327TIP3    H234397   3.454   6.291   2.792 -0.9683 -1.1580  0.1079
 4328TIP3   OH234398   5.060   4.367   0.951 -0.5811  0.2134 -0.4114
 4328TIP3    H134399   5.099   4.287   0.986 -0.7627 -0.0725 -0.8676
 4328TIP3    H234400   5.047   4.349   0.858 -1.7044  0.3492 -0.2838
 4329TIP3   OH234401   0.205   0.435   3.550 -0.1120  0.2365  0.2886
 4329TIP3    H134402   0.119   0.459   3.583  0.1546 -0.5447  1.5910
 4329TIP3    H234403   0.229   0.356   3.599  1.0269  0.0165 -0.5802
 4330TIP3   OH234404   4.029   4.641  11.756 -0.1418  0.1309 -0.1895
 4330TIP3    H134405   3.999   4.595  11.834 -0.6778 -0.1553 -0.5649
 4330TIP3    H234406   3.953   4.692  11.727  0.4314  1.2228  0.2012
 4331TIP3   OH234407   6.523   5.530  14.659 -1.0156 -0.3195 -0.6030
 4331TIP3    H134408   6.569   5.458  14.616  0.6316 -1.8895  3.5048
 4331TIP3    H234409   6.435   5.496  14.674  0.1792 -2.1671  2.6549
 4332TIP3   OH234410   3.480   2.195  14.517 -0.4856  0.7588 -0.0924
 4332TIP3    H134411   3.473   2.146  14.599 -3.0204  1.2944  0.0352
 4332TIP3    H234412   3.449   2.283  14.538 -0.7070  1.0353 -1.5124
 4333TIP3   OH234413   0.586   0.824  12.550 -0.4996 -0.0518  0.0008
 4333TIP3    H134414   0.590   0.793  12.641  0.3003  2.2143  0.7642
 4333TIP3    H234415   0.624   0.753  12.499 -1.0439 -1.4016  1.4240
 4334TIP3   OH234416   5.647   4.634   1.547  0.2069  0.0464 -0.8054
 4334TIP3    H134417   5.556   4.606   1.535  0.0617  0.0972  0.1416
 4334TIP3    H234418   5.697   4.580   1.485 -0.7480  1.8914 -3.2762
 4335TIP3   OH234419   6.099   4.954   4.541 -0.1102 -0.1180  0.0600
 4335TIP3    H134420   6.133   5.024   4.485 -0.0944 -1.1645 -1.2568
 4335TIP3    H234421   6.025   4.918   4.492  0.0068 -1.1496  0.6255
 4336TIP3   OH234422   0.101   4.296   1.813  0.0166  0.3493 -0.3777
 4336TIP3    H134423   0.075   4.357   1.744 -0.0383 -0.1949 -0.8418
 4336TIP3    H234424   0.039   4.313   1.884  0.3559  1.2233 -0.2904
 4337TIP3   OH234425   4.713   2.247   0.953 -0.3947 -0.3702  0.6827
 4337TIP3    H134426   4.689   2.274   1.042 -2.7219 -0.4550  0.1090
 4337TIP3    H234427   4.714   2.152   0.956  0.9255 -0.3590  0.9523
 4338TIP3   OH234428   5.842   2.656  11.542  0.0147 -0.3552  0.1096
 4338TIP3    H134429   5.814   2.705  11.466  1.0229  0.2285  0.0991
 4338TIP3    H234430   5.774   2.590  11.556 -0.6257  0.1333 -0.7310
 4339TIP3   OH234431   3.504   2.141   4.472  0.1068  0.1460 -0.1303
 4339TIP3    H134432   3.546   2.117   4.390  0.9279  0.0664  0.3096
 4339TIP3    H234433   3.560   2.103   4.540 -0.8730 -0.2903  0.4491
 4340TIP3   OH234434   4.825   6.497  17.033 -0.1502  0.3156  0.3668
 4340TIP3    H134435   4.862   6.552  16.964 -0.1336  0.6815  0.6661
 4340TIP3    H234436   4.851   6.408  17.009  0.2351  0.4875  0.1382
 4341TIP3   OH234437   1.951   5.900  15.397  0.3382  0.7717  0.4484
 4341TIP3    H134438   2.046   5.906  15.389  0.2589 -1.0254 -2.4851
 4341TIP3    H234439   1.936   5.816  15.441  0.1145  1.1215  1.0411
 4342TIP3   OH234440   2.838   4.237  16.865  0.0758  0.1739  0.7735
 4342TIP3    H134441   2.834   4.187  16.784 -0.4033  2.2691 -0.5305
 4342TIP3    H234442   2.830   4.328  16.837  0.5882  0.9629  3.1198
 4343TIP3   OH234443   1.846   2.242   3.157 -0.0503  0.2630 -0.3370
 4343TIP3    H134444   1.752   2.237   3.177  0.2735 -0.1081  1.1810
 4343TIP3    H234445   1.855   2.318   3.099 -1.6303 -1.2219 -2.6024
 4344TIP3   OH234446   5.111   1.968   5.236 -1.0205 -0.5450  0.1882
 4344TIP3    H134447   5.131   1.875   5.248 -1.2871 -0.8893 -1.9242
 4344TIP3    H234448   5.017   1.970   5.219 -1.3798  0.3170  2.1592
 4345TIP3   OH234449   0.783   6.500   6.336  0.1188  0.1696  0.2061
 4345TIP3    H134450   0.758   6.471   6.424 -0.7420 -1.7899 -0.6569
 4345TIP3    H234451   0.703   6.489   6.284  1.3589 -1.3137 -1.4337
 4346TIP3   OH234452   0.800   5.755   4.738  0.0784  0.7894  0.1726
 4346TIP3    H134453   0.790   5.750   4.833 -2.3333  2.1220  0.0192
 4346TIP3    H234454   0.724   5.804   4.708  0.5786  0.0248 -2.5054
 4347TIP3   OH234455   5.599   3.418  10.585  0.0971  0.3886 -0.0689
 4347TIP3    H134456   5.555   3.500  10.608 -0.9018  0.1597 -1.1212
 4347TIP3    H234457   5.690   3.443  10.568 -0.2745  1.3340 -0.6900
 4348TIP3   OH234458   6.733   2.194  14.496 -0.1519  0.6748  0.1174
 4348TIP3    H134459   6.779   2.231  14.572  1.8559 -4.5874  1.6599
 4348TIP3    H234460   6.642   2.185  14.526  0.1952  0.5849  1.1801
 4349TIP3   OH234461   4.869   4.624   4.372  0.2675  0.3256 -0.2170
 4349TIP3    H134462   4.821   4.622   4.455 -0.4204  0.4982 -0.6079
 4349TIP3    H234463   4.954   4.662   4.395  0.0047  0.5733  0.3682
 4350TIP3   OH234464   1.342   6.480   3.282 -0.6326 -0.4080  0.2160
 4350TIP3    H134465   1.336   6.421   3.206 -1.5222 -0.0929  0.0287
 4350TIP3    H234466   1.436   6.487   3.300 -0.4568 -1.0319 -0.4296
 4351TIP3   OH234467   2.430   4.805   2.435 -0.5250  0.1064  0.0075
 4351TIP3    H134468   2.441   4.808   2.530  2.9021  1.6152 -0.3819
 4351TIP3    H234469   2.447   4.713   2.412 -2.1677 -0.4478  0.8942
 4352TIP3   OH234470   5.962   5.642   1.544 -0.5754  0.5048 -0.1742
 4352TIP3    H134471   6.045   5.687   1.558 -0.8994  0.8039  0.8128
 4352TIP3    H234472   5.964   5.616   1.451  1.2020 -0.6849  0.1579
 4353TIP3   OH234473   4.144   2.047   2.347 -0.1456  0.1150 -0.4383
 4353TIP3    H134474   4.086   2.007   2.282 -0.9178 -2.0598  1.5080
 4353TIP3    H234475   4.225   1.997   2.341 -0.5675 -0.7597  0.9342
 4354TIP3   OH234476   3.179   1.176   4.846  0.2753  0.4370 -0.4403
 4354TIP3    H134477   3.256   1.166   4.902 -0.4376 -0.4983  0.3616
 4354TIP3    H234478   3.160   1.270   4.848  1.3678  0.6678 -0.6106
 4355TIP3   OH234479   1.948   1.114  12.924  0.0259 -0.2634  0.3431
 4355TIP3    H134480   1.937   1.061  12.845  1.5702  1.1892 -0.8901
 4355TIP3    H234481   1.900   1.195  12.905  1.1785  0.4619  0.5162
 4356TIP3   OH234482   1.189   1.799  17.236 -0.1795 -0.5110  0.6460
 4356TIP3    H134483   1.127   1.829  17.302 -0.6056 -0.1108  0.0667
 4356TIP3    H234484   1.198   1.873  17.176 -1.5145 -1.6637 -0.9894
 4357TIP3   OH234485   0.062   6.498   1.606 -0.3662  0.0410  0.7520
 4357TIP3    H134486   0.156   6.483   1.600 -0.1702  0.7345  1.9233
 4357TIP3    H234487   0.024   6.435   1.545  0.7442 -1.4412  1.5521
 4358TIP3   OH234488   4.187   1.445  16.787 -0.4140  0.0254  0.0031
 4358TIP3    H134489   4.267   1.462  16.736  0.3917 -0.3437  1.1223
 4358TIP3    H234490   4.136   1.525  16.778  0.6298  0.7364  0.2490
 4359TIP3   OH234491   2.701   0.992   4.723 -0.4559  0.3146 -0.1208
 4359TIP3    H134492   2.794   1.014   4.728 -0.5925  1.0751 -0.8289
 4359TIP3    H234493   2.680   0.957   4.810  0.0791  1.7738  0.6172
 4360TIP3   OH234494   3.097   2.182  12.069 -0.4664  0.0280 -0.2238
 4360TIP3    H134495   3.138   2.175  12.156 -0.5836 -2.8663 -0.3768
 4360TIP3    H234496   3.005   2.160  12.084 -0.9124  1.4498 -0.7792
 4361TIP3   OH234497   1.704   1.818   3.592  0.4345 -0.2838 -0.3083
 4361TIP3    H134498   1.645   1.781   3.658  0.5047 -0.6494 -0.4453
 4361TIP3    H234499   1.657   1.894   3.557 -0.5074 -1.3117 -1.3193
 4362TIP3   OH234500   6.033   3.631   3.130  0.0387 -0.3686 -0.0563
 4362TIP3    H134501   5.949   3.584   3.134  0.6889 -1.3912  2.8032
 4362TIP3    H234502   6.018   3.710   3.182  0.7988 -0.5442  0.4440
 4363TIP3   OH234503   4.457   6.092  15.266 -0.6875 -0.1035 -0.1424
 4363TIP3    H134504   4.542   6.052  15.247 -0.9502 -0.3407 -0.8313
 4363TIP3    H234505   4.439   6.068  15.356 -0.3874 -0.7158 -0.2445
 4364TIP3   OH234506   2.905   1.638   2.930  0.2062 -0.0299  0.5273
 4364TIP3    H134507   2.983   1.633   2.985  1.1230 -1.6933 -0.8456
 4364TIP3    H234508   2.928   1.698   2.860  0.4310 -0.9149 -0.1569
 4365TIP3   OH234509   2.295   6.253  15.228  0.5333 -0.0220  0.2220
 4365TIP3    H134510   2.348   6.330  15.248  0.1763  0.0671  0.8522
 4365TIP3    H234511   2.235   6.245  15.302 -0.7143  0.2148 -0.7378
 4366TIP3   OH234512   6.638   0.782  16.012  0.6695  0.6866  0.1648
 4366TIP3    H134513   6.559   0.746  16.053  0.1892  1.6690  0.1155
 4366TIP3    H234514   6.611   0.804  15.923  1.1305  0.5543 -0.0047
 4367TIP3   OH234515   1.276   0.852  11.326 -0.3994 -0.0384 -0.0101
 4367TIP3    H134516   1.263   0.780  11.388 -1.3916 -1.5771 -1.9517
 4367TIP3    H234517   1.241   0.819  11.243  3.2443  0.9733 -2.0498
 4368TIP3   OH234518   3.421   3.369   5.312 -0.1447  0.1358  0.2748
 4368TIP3    H134519   3.327   3.348   5.308 -0.0188 -0.1824 -1.0860
 4368TIP3    H234520   3.441   3.405   5.226  1.0602 -0.1026  0.4522
 4369TIP3   OH234521   1.149   3.784  12.936  0.1601  0.3752  0.1040
 4369TIP3    H134522   1.205   3.744  13.002 -0.5579 -0.7968  0.0241
 4369TIP3    H234523   1.125   3.711  12.878 -0.7436  1.0207 -0.3399
 4370TIP3   OH234524   0.614   5.746   4.510  0.2163 -0.7643  0.4620
 4370TIP3    H134525   0.629   5.839   4.527 -1.3164 -0.6493  1.2219
 4370TIP3    H234526   0.539   5.744   4.450 -0.6691 -1.5591  1.5883
 4371TIP3   OH234527   2.668   2.184   2.887 -0.2345 -0.2112 -0.1726
 4371TIP3    H134528   2.619   2.203   2.967  0.7127 -0.1285  0.3940
 4371TIP3    H234529   2.748   2.235   2.894 -0.0706 -0.3210 -1.1080
 4372TIP3   OH234530   5.718   3.416  13.967  0.1926  0.0633  0.7013
 4372TIP3    H134531   5.777   3.473  14.016  0.9590 -0.6297  0.5941
 4372TIP3    H234532   5.759   3.329  13.972 -0.7669 -0.4065  0.5560
 4373TIP3   OH234533   4.718   0.008  14.595 -0.2117 -0.6077  0.2434
 4373TIP3    H134534   4.690  -0.000  14.504  2.6637  0.1429 -0.7550
 4373TIP3    H234535   4.727   0.102  14.609  1.2203 -0.8071  0.7000
 4374TIP3   OH234536   6.427   6.268  10.204  0.0515  0.3719  0.0392
 4374TIP3    H134537   6.357   6.328  10.178 -2.3708 -2.7493 -1.0429
 4374TIP3    H234538   6.507   6.311  10.176 -1.4220  3.8960  0.9626
 4375TIP3   OH234539   3.685   1.750  15.554  0.0591  0.2024 -0.4104
 4375TIP3    H134540   3.772   1.784  15.577  0.1093  0.2744 -0.7019
 4375TIP3    H234541   3.632   1.764  15.633  0.4694 -0.3977 -0.0118
 4376TIP3   OH234542   4.490   0.581   5.849  0.1269 -0.4013 -0.1532
 4376TIP3    H134543   4.520   0.493   5.825  0.3981  0.4376 -3.0199
 4376TIP3    H234544   4.398   0.570   5.873  0.1560 -1.4454 -0.5184
 4377TIP3   OH234545   2.419   6.458  12.787 -0.6021 -0.0608  0.1984
 4377TIP3    H134546   2.504   6.482  12.823 -0.2721  1.5920 -1.6015
 4377TIP3    H234547   2.357   6.519  12.829 -0.6464 -0.1108  0.2056
 4378TIP3   OH234548   4.686   2.300   0.502  0.3555  0.2187  0.2475
 4378TIP3    H134549   4.615   2.364   0.499  0.6175  0.6888  3.2140
 4378TIP3    H234550   4.766   2.351   0.490  0.3642  0.0075 -0.6340
 4379TIP3   OH234551   3.192   5.767  12.472 -0.3717 -0.1693  0.1515
 4379TIP3    H134552   3.219   5.851  12.509  1.8861  0.0143 -1.7935
 4379TIP3    H234553   3.131   5.790  12.402  1.6903  0.0316 -1.6420
 4380TIP3   OH234554   3.906   5.774   3.952 -0.0462  0.4478 -0.3788
 4380TIP3    H134555   3.907   5.690   3.999  3.1892 -0.5489 -2.0278
 4380TIP3    H234556   3.954   5.834   4.009  0.9832  0.1211 -0.8830
 4381TIP3   OH234557   6.306   1.324   3.752  0.3355  0.4515  0.1774
 4381TIP3    H134558   6.214   1.344   3.769  0.4782  1.4605 -0.2564
 4381TIP3    H234559   6.326   1.367   3.670  1.2901  0.5136  0.4348
 4382TIP3   OH234560   1.741   1.568   3.441 -0.2178 -0.0108  0.4218
 4382TIP3    H134561   1.783   1.494   3.485  0.1734 -1.7955 -2.8342
 4382TIP3    H234562   1.742   1.638   3.507 -0.5124 -2.8205  3.5440
 4383TIP3   OH234563   0.935   6.660  10.315  0.7467 -0.0844 -0.3855
 4383TIP3    H134564   0.845   6.630  10.304  0.7979  0.0933 -1.3632
 4383TIP3    H234565   0.930   6.755  10.300  1.0780 -0.0543 -0.3094
 4384TIP3   OH234566   5.640   3.451  14.392  0.5051 -0.2269 -0.3447
 4384TIP3    H134567   5.550   3.483  14.388  0.6480  0.2035 -0.1709
 4384TIP3    H234568   5.693   3.530  14.406  0.7737 -0.6776  1.2375
 4385TIP3   OH234569   5.130   3.000   4.606  0.2569  0.2194 -0.2542
 4385TIP3    H134570   5.121   2.905   4.607 -1.2075  0.3476  1.2861
 4385TIP3    H234571   5.224   3.015   4.600  0.4506 -1.3186 -1.2275
 4386TIP3   OH234572   6.641   5.776  14.549  0.0920  0.3732 -0.1482
 4386TIP3    H134573   6.615   5.683  14.548 -0.3260  0.4995 -0.9939
 4386TIP3    H234574   6.619   5.805  14.638 -0.6097 -0.1062 -0.1563
 4387TIP3   OH234575   4.594   4.529   1.414  0.0067  0.1081  0.6827
 4387TIP3    H134576   4.591   4.530   1.510 -1.3499 -0.6720  0.6555
 4387TIP3    H234577   4.643   4.450   1.392  1.9293  1.2604  0.7534
 4388TIP3   OH234578   3.536   4.396   4.821 -0.4639  0.3579  0.6561
 4388TIP3    H134579   3.478   4.468   4.795 -0.7820 -0.5224 -1.1566
 4388TIP3    H234580   3.615   4.409   4.769 -1.6562 -2.2405 -1.9967
 4389TIP3   OH234581   4.287   5.645  16.897  0.0407  0.2984 -0.0478
 4389TIP3    H134582   4.277   5.602  16.982 -0.8073 -1.1792 -0.8538
 4389TIP3    H234583   4.378   5.629  16.872  0.1717  0.3595  0.3866
 4390TIP3   OH234584   2.109   3.892   2.318 -0.8434  0.8996  0.2383
 4390TIP3    H134585   2.025   3.847   2.317 -0.6849  0.6291 -0.6866
 4390TIP3    H234586   2.127   3.907   2.411 -0.3807 -1.9112  0.6352
 4391TIP3   OH234587   3.898   0.756  17.037  0.1491 -0.7401  0.1327
 4391TIP3    H134588   3.885   0.837  17.086  1.8139 -0.8529  0.7942
 4391TIP3    H234589   3.933   0.785  16.952 -1.5281 -0.6294 -0.5454
 4392TIP3   OH234590   0.440   3.514  14.740  0.2462 -0.1182  0.8038
 4392TIP3    H134591   0.475   3.425  14.744  0.3663 -0.1891 -1.1187
 4392TIP3    H234592   0.517   3.569  14.727 -0.0198  0.0478 -0.1196
 4393TIP3   OH234593   1.018   3.214  13.974 -0.6525 -0.0502 -0.0415
 4393TIP3    H134594   0.945   3.247  14.027  0.0788  0.2226  0.8162
 4393TIP3    H234595   0.992   3.231  13.884 -1.4486  0.4627  0.2793
 4394TIP3   OH234596   0.079   5.755  16.459  0.2008 -0.1857  0.0232
 4394TIP3    H134597   0.132   5.691  16.505 -0.0592 -0.8577 -0.5969
 4394TIP3    H234598   0.048   5.814  16.527  0.9155 -0.3846  0.5199
 4395TIP3   OH234599   1.349   3.706  13.109  0.0151  0.0297  0.0413
 4395TIP3    H134600   1.392   3.791  13.122  0.6452 -0.2964  0.1111
 4395TIP3    H234601   1.370   3.656  13.188  0.7679 -0.6610 -0.5922
 4396TIP3   OH234602   4.152   5.080  16.420 -0.5790  0.1203  0.5762
 4396TIP3    H134603   4.125   5.028  16.345 -1.6984  1.3084  0.1287
 4396TIP3    H234604   4.090   5.056  16.490  2.0130 -2.8746  1.9491
 4397TIP3   OH234605   1.173   1.084  11.420 -0.0895 -0.2420 -0.0778
 4397TIP3    H134606   1.246   1.142  11.396 -0.4280  0.1785 -0.1076
 4397TIP3    H234607   1.204   0.996  11.401  0.4729 -0.0770  0.0587
 4398TIP3   OH234608   1.307   4.946   2.250 -0.4180  0.3029  0.4866
 4398TIP3    H134609   1.394   4.923   2.282 -0.7519  0.5796  1.6298
 4398TIP3    H234610   1.284   4.875   2.191  0.3237 -0.1061  0.6835
 4399TIP3   OH234611   0.947   5.331   4.825 -0.4239  0.5158  0.0213
 4399TIP3    H134612   0.869   5.369   4.785  0.3318  1.2580 -0.7560
 4399TIP3    H234613   0.976   5.397   4.888 -1.8799 -0.8454  2.1743
 4400TIP3   OH234614   2.799   1.527  11.112 -0.3408 -0.5992  0.0657
 4400TIP3    H134615   2.830   1.442  11.081 -2.7467 -1.3814 -0.3112
 4400TIP3    H234616   2.728   1.550  11.052 -0.1192  1.4072  0.5253
 4401TIP3   OH234617   2.607   6.420  11.468  0.1087 -0.3193  0.2769
 4401TIP3    H134618   2.630   6.446  11.558 -2.2927  0.3689  0.7219
 4401TIP3    H234619   2.603   6.503  11.420  0.6816 -0.6278 -0.3065
 4402TIP3   OH234620   0.264   0.783  11.246 -0.1968  0.1992 -0.0398
 4402TIP3    H134621   0.325   0.757  11.177 -0.6468  0.5756 -0.5862
 4402TIP3    H234622   0.287   0.874  11.265 -0.3085  0.2078  0.0519
 4403TIP3   OH234623   1.114   3.798   0.621  0.7093  1.3035 -0.1726
 4403TIP3    H134624   1.032   3.766   0.658  0.5992  0.5239 -1.0672
 4403TIP3    H234625   1.087   3.854   0.548  0.9815  0.6677 -0.7637
 4404TIP3   OH234626   6.288   2.613  14.056 -0.1814  0.0912 -0.1264
 4404TIP3    H134627   6.205   2.632  14.012 -0.3615 -0.7156 -0.1421
 4404TIP3    H234628   6.326   2.542  14.004  0.5252  0.4648 -0.1240
 4405TIP3   OH234629   1.372   5.964  11.808  0.2501  0.1565  0.7843
 4405TIP3    H134630   1.352   6.003  11.723 -2.0320  0.1281  1.2776
 4405TIP3    H234631   1.426   6.030  11.852 -0.3272  1.0793  0.1359
 4406TIP3   OH234632   1.523   5.761  13.278 -0.0103  0.2539 -0.6365
 4406TIP3    H134633   1.481   5.742  13.195  0.0595  0.7199 -0.7803
 4406TIP3    H234634   1.523   5.857  13.284  0.2585  0.2328 -0.2459
 4407TIP3   OH234635   1.884   3.388  11.682  0.7496 -0.0366  0.0270
 4407TIP3    H134636   1.958   3.330  11.668  1.1263  0.5488 -0.4290
 4407TIP3    H234637   1.819   3.360  11.617  0.8559 -0.0694 -0.0658
 4408TIP3   OH234638   5.506   5.973   0.098  0.3979 -0.0282 -0.6975
 4408TIP3    H134639   5.475   5.967   0.008 -2.3808 -0.7166  0.2749
 4408TIP3    H234640   5.523   5.883   0.124  2.9232  0.3004 -1.0732
 4409TIP3   OH234641   6.768   3.935   1.181 -0.3772 -0.4935 -0.1444
 4409TIP3    H134642   6.801   3.868   1.242 -1.5875 -0.1725  0.8777
 4409TIP3    H234643   6.713   3.886   1.120  0.8773 -0.8237 -1.0484
 4410TIP3   OH234644   2.040   0.734   1.493 -0.2448 -0.4843 -0.4632
 4410TIP3    H134645   2.128   0.700   1.480  0.4787  1.1422  0.1250
 4410TIP3    H234646   2.013   0.764   1.406  1.1006  2.1061 -0.0165
 4411TIP3   OH234647   5.059   1.010   0.238 -0.8074 -0.4490 -0.2347
 4411TIP3    H134648   5.104   0.946   0.294 -1.4340 -0.5119  0.1995
 4411TIP3    H234649   5.006   0.958   0.179  0.9592 -0.4431 -1.8731
 4412TIP3   OH234650   1.216   3.083   0.955 -0.4878  0.0259 -0.0814
 4412TIP3    H134651   1.213   3.083   0.859 -0.6610 -0.0366 -0.0745
 4412TIP3    H234652   1.310   3.090   0.975 -0.2313 -2.2453 -0.2667
 4413TIP3   OH234653   5.315   4.298   0.779  0.3185 -0.1036 -0.1836
 4413TIP3    H134654   5.345   4.387   0.760 -0.6816  0.9780  2.8993
 4413TIP3    H234655   5.228   4.294   0.739  0.3963  0.3144 -0.4025
 4414TIP3   OH234656   6.311   4.198  15.632 -0.2820  0.1587 -0.0061
 4414TIP3    H134657   6.257   4.121  15.648  1.5054 -0.8382  1.3510
 4414TIP3    H234658   6.393   4.164  15.596 -0.0040  1.5367 -0.7281
 4415TIP3   OH234659   0.263   2.534  14.178 -0.7836 -0.0648  0.1636
 4415TIP3    H134660   0.236   2.516  14.088  0.7999 -0.8192 -0.1659
 4415TIP3    H234661   0.357   2.550  14.172 -0.4849 -1.1557  1.8488
 4416TIP3   OH234662   2.191   1.519  14.998 -0.5201  0.0567 -0.3597
 4416TIP3    H134663   2.227   1.608  14.995  1.1789 -0.5001  1.9290
 4416TIP3    H234664   2.125   1.522  15.066  0.2117 -0.6570  0.3910
 4417TIP3   OH234665   2.677   1.500   2.666  0.5078 -0.3135 -0.0881
 4417TIP3    H134666   2.623   1.463   2.736  1.3720 -0.6817  0.3964
 4417TIP3    H234667   2.758   1.449   2.669  1.5107  1.2648  0.2314
 4418TIP3   OH234668   6.512   0.341   1.356 -0.1261 -0.4761  0.1709
 4418TIP3    H134669   6.583   0.287   1.391 -0.4010 -1.5932 -0.9537
 4418TIP3    H234670   6.486   0.297   1.275  1.1525  2.5650 -1.9730
 4419TIP3   OH234671   1.915   0.995   4.740 -0.4489 -0.4814  0.4537
 4419TIP3    H134672   1.948   1.040   4.662 -1.3131  0.6206  0.7141
 4419TIP3    H234673   1.976   0.922   4.752 -0.9930 -1.3856 -1.9418
 4420TIP3   OH234674   3.333   6.435   1.023  0.0294  0.1407  0.0476
 4420TIP3    H134675   3.318   6.500   0.955 -2.3075  0.9066  1.2449
 4420TIP3    H234676   3.272   6.364   1.003  0.2018 -0.1914  0.6735
 4421TIP3   OH234677   4.556   3.584   4.188  0.2927  0.4078 -0.1821
 4421TIP3    H134678   4.559   3.623   4.101 -0.0468  0.0414 -0.3595
 4421TIP3    H234679   4.551   3.658   4.248  0.9348  0.6718 -0.4568
 4422TIP3   OH234680   2.022   2.428   1.361  0.1703 -0.3628  0.3256
 4422TIP3    H134681   2.040   2.396   1.272  1.4941  0.4017  0.3018
 4422TIP3    H234682   2.085   2.499   1.374  0.4086 -0.8787  2.1039
 4423TIP3   OH234683   3.733   3.088   6.288  0.5913 -0.2507 -0.2540
 4423TIP3    H134684   3.759   3.004   6.249 -0.0621 -0.4830 -0.1974
 4423TIP3    H234685   3.643   3.073   6.317  0.2608  0.6620 -0.7976
 4424TIP3   OH234686   4.409   5.741   4.790 -0.6404  0.4822  0.1987
 4424TIP3    H134687   4.476   5.792   4.836  0.6917 -1.2462  0.2265
 4424TIP3    H234688   4.452   5.712   4.709 -1.4239 -0.4914  0.1214
 4425TIP3   OH234689   6.616   1.712   2.195  0.0721 -0.3582 -0.9054
 4425TIP3    H134690   6.661   1.764   2.128  0.9963 -0.7560 -0.5888
 4425TIP3    H234691   6.660   1.627   2.194 -0.5594 -0.6986 -0.4725
 4426TIP3   OH234692   0.297   1.868  14.856 -0.5579 -0.0441 -0.5024
 4426TIP3    H134693   0.249   1.938  14.901  2.6857  2.5474 -0.9052
 4426TIP3    H234694   0.261   1.869  14.767 -1.5655  0.0630 -0.1089
 4427TIP3   OH234695   3.235   2.124   3.690 -0.0818  0.1972 -0.2041
 4427TIP3    H134696   3.208   2.038   3.721 -2.9861  0.4260 -1.9013
 4427TIP3    H234697   3.242   2.177   3.769  0.7301 -1.2911  0.7561
 4428TIP3   OH234698   2.518   5.812  11.221 -0.1312 -0.0596  0.4627
 4428TIP3    H134699   2.445   5.859  11.182 -0.5837 -0.5964  0.6579
 4428TIP3    H234700   2.477   5.740  11.270  0.5897 -0.9886 -0.2891
 4429TIP3   OH234701   1.240   3.055   0.663 -0.4305 -0.2820 -0.3390
 4429TIP3    H134702   1.253   2.960   0.661  4.3359  0.0891  3.3179
 4429TIP3    H234703   1.294   3.088   0.591 -0.6512 -0.2290 -0.4805
 4430TIP3   OH234704   4.830   3.854   4.066 -0.5159  1.0592 -0.3120
 4430TIP3    H134705   4.870   3.907   3.997  0.0252  0.3246 -0.5791
 4430TIP3    H234706   4.763   3.802   4.020  1.5105 -1.2546 -0.7917
 4431TIP3   OH234707   3.103   2.618  16.173  0.1804 -0.2548 -0.0168
 4431TIP3    H134708   3.130   2.635  16.082 -1.0714 -0.8600 -0.5143
 4431TIP3    H234709   3.166   2.553  16.205  0.7416  0.1005 -0.3868
 4432TIP3   OH234710   5.091   2.878   2.586  0.3796  0.4721 -0.1119
 4432TIP3    H134711   5.118   2.964   2.552 -0.5132  0.7322 -0.1618
 4432TIP3    H234712   5.083   2.823   2.509 -0.1636  0.6526 -0.1846
 4433TIP3   OH234713   6.606   6.338   1.736  0.1371  0.3031 -0.3960
 4433TIP3    H134714   6.663   6.354   1.661 -0.6611  1.5656 -0.7423
 4433TIP3    H234715   6.583   6.245   1.730  1.5407 -0.0337 -0.6761
 4434TIP3   OH234716   6.161   2.198   3.165 -0.6022  0.5032  0.4820
 4434TIP3    H134717   6.248   2.210   3.205 -1.4366  1.7656  1.9627
 4434TIP3    H234718   6.175   2.217   3.072  0.5017  1.8190  0.8890
 4435TIP3   OH234719   1.582   5.161  14.612  0.2773 -0.0923 -0.0538
 4435TIP3    H134720   1.675   5.169  14.635  0.7054 -0.2937 -1.6931
 4435TIP3    H234721   1.545   5.109  14.684  1.1779  0.9604  1.2072
 4436TIP3   OH234722   5.614   3.742  12.257 -0.2147 -0.5015  0.3125
 4436TIP3    H134723   5.527   3.780  12.264  0.4160  1.0251  0.2238
 4436TIP3    H234724   5.666   3.790  12.322  0.8951 -0.3683 -0.6506
 4437TIP3   OH234725   5.474   1.337  11.453 -0.1648 -0.0191 -0.0381
 4437TIP3    H134726   5.435   1.423  11.467 -0.5697  0.0200 -1.3191
 4437TIP3    H234727   5.433   1.304  11.373  0.4244 -1.1480  0.1028
 4438TIP3   OH234728   5.185   6.689  14.044  0.1269 -0.1847 -0.3614
 4438TIP3    H134729   5.098   6.728  14.038 -0.4468 -1.5948 -1.3601
 4438TIP3    H234730   5.168   6.596  14.055  1.5224 -0.4328 -0.2740
 4439TIP3   OH234731   0.565   3.553  12.037 -0.0101 -0.1738  0.0433
 4439TIP3    H134732   0.612   3.593  11.964  2.5270 -1.2754  0.9976
 4439TIP3    H234733   0.518   3.479  11.998  0.7647 -0.3203 -0.6268
 4440TIP3   OH234734   4.891   1.482   1.596 -0.2857 -0.2302  0.1150
 4440TIP3    H134735   4.865   1.451   1.509 -1.5772 -1.0136  0.7603
 4440TIP3    H234736   4.903   1.576   1.586 -2.0733 -0.0632 -0.5355
 4441TIP3   OH234737   4.838   2.357  16.031 -0.2467  0.2959  0.5787
 4441TIP3    H134738   4.752   2.324  16.005  0.9996 -1.1656 -1.9148
 4441TIP3    H234739   4.875   2.391  15.949  2.7708 -1.9392  0.9525
 4442TIP3   OH234740   3.845   5.634  14.554 -0.6192  0.3862 -0.6696
 4442TIP3    H134741   3.826   5.609  14.645  0.7793 -0.9680 -0.7272
 4442TIP3    H234742   3.780   5.586  14.503  1.1726 -2.1544 -0.6656
 4443TIP3   OH234743   1.950   6.633  16.676  0.1613  0.3164  0.6344
 4443TIP3    H134744   1.945   6.725  16.700  2.5708  0.1090  2.1362
 4443TIP3    H234745   1.879   6.591  16.725 -1.4126  1.4660 -0.6263
 4444TIP3   OH234746   0.933   3.396   2.420  0.5325 -0.5617 -0.0764
 4444TIP3    H134747   0.886   3.404   2.503  0.1433  0.1566 -0.3671
 4444TIP3    H234748   0.925   3.303   2.396  2.0516 -1.1463  1.5146
 4445TIP3   OH234749   1.467   2.410  11.866  0.1542  0.3392 -0.4287
 4445TIP3    H134750   1.448   2.394  11.959 -0.9394  1.3748 -0.4652
 4445TIP3    H234751   1.553   2.369  11.852  0.1040 -0.2602  0.9108
 4446TIP3   OH234752   1.467   3.788   5.016 -0.1471  0.0288  0.2374
 4446TIP3    H134753   1.406   3.750   4.953 -1.2219 -0.4074  1.5140
 4446TIP3    H234754   1.554   3.762   4.984 -0.7202 -1.0275 -0.5119
 4447TIP3   OH234755   2.138   3.947  16.470 -0.3435  0.0666 -1.4142
 4447TIP3    H134756   2.203   4.004  16.428 -0.9130  1.6943 -0.1186
 4447TIP3    H234757   2.175   3.926  16.555 -0.3148 -1.1958 -1.7345
 4448TIP3   OH234758   5.882   6.212   0.501  0.2281 -0.1043 -0.0833
 4448TIP3    H134759   5.869   6.251   0.414 -1.0189 -2.1635 -0.8496
 4448TIP3    H234760   5.957   6.154   0.490 -0.6591 -1.2581 -0.0992
 4449TIP3   OH234761   4.194   1.620  14.604 -0.1146  0.6628 -0.2128
 4449TIP3    H134762   4.160   1.599  14.517  1.7687  0.3295 -0.8928
 4449TIP3    H234763   4.268   1.679  14.587  1.8612 -1.3788  0.9754
 4450TIP3   OH234764   0.235   4.251   6.273 -0.1220  0.0307  0.0260
 4450TIP3    H134765   0.306   4.211   6.324  0.6298  0.8518 -0.3637
 4450TIP3    H234766   0.155   4.222   6.317  0.4587 -0.7407  0.5933
 4451TIP3   OH234767   1.807   1.542   3.845  0.2047  0.2278 -0.0425
 4451TIP3    H134768   1.738   1.484   3.810 -0.3896  0.5206  0.6390
 4451TIP3    H234769   1.829   1.504   3.930  2.0459 -0.8024 -0.9490
 4452TIP3   OH234770   3.245   2.903   3.391  0.5605  0.2284 -0.3933
 4452TIP3    H134771   3.184   2.926   3.460 -0.6677  0.5010 -1.5411
 4452TIP3    H234772   3.331   2.926   3.425  0.2181 -1.8252  1.9548
 4453TIP3   OH234773   2.210   1.524  16.901 -0.4263  0.0141 -0.6440
 4453TIP3    H134774   2.291   1.574  16.897 -0.5730  0.3670  0.4940
 4453TIP3    H234775   2.143   1.583  16.865 -0.8337  1.1653  1.9159
 4454TIP3   OH234776   5.302   0.886   2.874  0.6745  0.2701 -0.0573
 4454TIP3    H134777   5.363   0.835   2.821  0.5998  1.1206 -0.9820
 4454TIP3    H234778   5.216   0.850   2.852  0.6822  0.3146 -0.1585
 4455TIP3   OH234779   4.565   2.334  14.679 -0.5355 -0.1747  0.0668
 4455TIP3    H134780   4.501   2.405  14.678  0.4461  0.7306  1.3426
 4455TIP3    H234781   4.553   2.290  14.595 -0.6690  1.9188 -1.0325
 4456TIP3   OH234782   5.891   1.880   0.629 -0.8757  0.0837 -0.3049
 4456TIP3    H134783   5.975   1.835   0.641 -0.4950  0.8279 -0.1575
 4456TIP3    H234784   5.825   1.814   0.653 -0.3486 -0.5716 -0.6253
 4457TIP3   OH234785   3.091   5.640  16.892 -0.6306  0.2981  0.2140
 4457TIP3    H134786   3.109   5.719  16.943 -0.0435 -0.0861  0.6209
 4457TIP3    H234787   3.016   5.663  16.837 -0.2760  1.2259  0.1112
 4458TIP3   OH234788   4.973   6.506  14.787 -0.1366  0.3392 -0.6504
 4458TIP3    H134789   4.915   6.470  14.854  0.2936 -0.2705 -0.6010
 4458TIP3    H234790   5.054   6.528  14.833 -0.4568  1.5350 -0.6508
 4459TIP3   OH234791   0.435   5.014   4.561  0.4392 -0.6778 -0.7702
 4459TIP3    H134792   0.370   4.960   4.517 -0.3443  0.0602 -0.5275
 4459TIP3    H234793   0.431   5.098   4.515 -1.4902  0.6209  1.6685
 4460TIP3   OH234794   3.443   0.951  14.164  0.1443 -0.0765 -0.1307
 4460TIP3    H134795   3.402   1.017  14.219 -0.4967 -0.0522 -0.6284
 4460TIP3    H234796   3.397   0.869  14.184  0.9882 -0.3947  0.5440
 4461TIP3   OH234797   3.716   3.223  11.942  0.3264  0.1291  0.7580
 4461TIP3    H134798   3.782   3.265  11.887  0.1186  0.5447  0.8295
 4461TIP3    H234799   3.754   3.137  11.964  0.9830  0.5010  1.0800
 4462TIP3   OH234800   3.397   6.213  15.067 -0.4532  0.4609 -0.1359
 4462TIP3    H134801   3.469   6.152  15.049 -0.1825  0.7948 -0.1974
 4462TIP3    H234802   3.401   6.276  14.996 -0.2160  1.0224  0.3675
 4463TIP3   OH234803   5.920   2.561   5.327 -0.2365 -0.2883 -0.1178
 4463TIP3    H134804   5.974   2.569   5.406 -0.6293 -0.3067  0.1507
 4463TIP3    H234805   5.834   2.592   5.354  0.2855  2.2391 -1.2277
 4464TIP3   OH234806   6.112   3.629   1.899  0.2574  0.0707  0.1894
 4464TIP3    H134807   6.108   3.558   1.962  1.7851 -0.2692 -0.0710
 4464TIP3    H234808   6.103   3.586   1.814 -0.5572  0.3922  0.1073
 4465TIP3   OH234809   2.553   2.436  12.364  0.5444  0.0737 -0.2667
 4465TIP3    H134810   2.607   2.360  12.389 -1.4013 -0.9722  0.8539
 4465TIP3    H234811   2.601   2.476  12.292  2.7376 -0.9421  0.5844
 4466TIP3   OH234812   1.840   6.043   6.097  0.4518  0.4136  0.1807
 4466TIP3    H134813   1.787   5.966   6.075  0.5175  1.0344 -2.3081
 4466TIP3    H234814   1.919   6.033   6.044 -0.3267  3.0710 -1.5789
 4467TIP3   OH234815   1.667   3.415  15.518  0.0463  0.0537  0.5424
 4467TIP3    H134816   1.618   3.482  15.470 -0.6232 -0.6483  0.2342
 4467TIP3    H234817   1.624   3.333  15.495  1.4422 -0.5897  0.1936
 4468TIP3   OH234818   1.551   6.633  11.341  0.1879  0.4214 -0.2976
 4468TIP3    H134819   1.485   6.686  11.296  1.6418  0.7637 -2.0829
 4468TIP3    H234820   1.500   6.570  11.393 -1.5321  1.3809 -0.8008
 4469TIP3   OH234821   5.972   1.764   5.611  0.0295 -0.2652  0.2252
 4469TIP3    H134822   5.995   1.727   5.696  1.9850  0.2631 -0.0555
 4469TIP3    H234823   5.949   1.855   5.630  0.4959 -0.1387  0.1847
 4470TIP3   OH234824   4.964   2.627   1.461 -0.2102 -0.6226 -0.8878
 4470TIP3    H134825   5.044   2.630   1.409  0.1123 -0.8030 -0.4058
 4470TIP3    H234826   4.917   2.706   1.436 -0.7426 -1.4315 -2.5309
 4471TIP3   OH234827   2.467   0.809  12.947  0.4351  0.0912  0.3863
 4471TIP3    H134828   2.517   0.811  13.029 -1.2560 -2.0214  1.5260
 4471TIP3    H234829   2.458   0.716  12.927 -2.8260  0.4078  0.1320
 4472TIP3   OH234830   1.328   6.689  11.009  0.0511  0.4299 -0.3532
 4472TIP3    H134831   1.304   6.668  11.099 -0.6884  0.5159 -0.5227
 4472TIP3    H234832   1.413   6.732  11.016  0.2183  0.0103  0.2595
 4473TIP3   OH234833   4.257   1.014   1.054  0.0523 -0.2909  0.6323
 4473TIP3    H134834   4.257   0.954   0.979 -1.6005 -0.1288  0.4811
 4473TIP3    H234835   4.214   1.093   1.021  2.3727  1.0807  0.7669
 4474TIP3   OH234836   1.434   2.380   4.750 -0.4164  0.6364  0.2704
 4474TIP3    H134837   1.342   2.408   4.757  0.3147  3.7639 -1.5098
 4474TIP3    H234838   1.482   2.445   4.801  0.9753  0.0668 -0.3084
 4475TIP3   OH234839   1.820   5.215   3.223 -0.4243  0.0492 -0.5209
 4475TIP3    H134840   1.852   5.260   3.144  0.5369  0.4839  0.1043
 4475TIP3    H234841   1.731   5.187   3.200 -0.6514  1.3380 -1.2983
 4476TIP3   OH234842   5.201   3.943  14.141  0.5564 -0.2116  0.0085
 4476TIP3    H134843   5.196   4.031  14.179 -0.6778 -0.5883  0.7700
 4476TIP3    H234844   5.168   3.954  14.052 -1.3420 -0.1959  0.6750
 4477TIP3   OH234845   3.989   4.568  13.000 -0.0721 -0.3864 -0.2772
 4477TIP3    H134846   3.950   4.654  12.991  1.0906  0.4526  2.0415
 4477TIP3    H234847   4.003   4.537  12.911 -1.5339  1.3387 -1.1185
 4478TIP3   OH234848   5.875   2.074   2.941 -0.0419  0.1583 -0.0790
 4478TIP3    H134849   5.952   2.131   2.935  1.0214 -1.3413 -1.2030
 4478TIP3    H234850   5.855   2.052   2.850 -2.0620  0.8213  0.1782
 4479TIP3   OH234851   6.041   3.613  12.327  0.1151 -0.1763 -0.3244
 4479TIP3    H134852   6.062   3.564  12.406  1.9727 -0.4774 -0.9747
 4479TIP3    H234853   5.952   3.585  12.304  0.0481 -1.0317  0.9317
 4480TIP3   OH234854   2.851   5.427  15.931  0.1232 -0.0365 -0.3831
 4480TIP3    H134855   2.874   5.383  16.013 -0.7593 -0.7297 -0.4997
 4480TIP3    H234856   2.877   5.367  15.862 -1.3341 -0.5298 -0.5340
 4481TIP3   OH234857   0.808   1.800  15.744 -0.1146 -0.2256 -0.0771
 4481TIP3    H134858   0.828   1.811  15.837  1.0600  0.4533 -0.3941
 4481TIP3    H234859   0.720   1.834  15.734  0.1388  0.6495  0.6027
 4482TIP3   OH234860   0.401   6.644  10.216  0.1301 -0.5177 -0.2471
 4482TIP3    H134861   0.375   6.700  10.289 -2.1669 -1.8762 -0.0096
 4482TIP3    H234862   0.337   6.662  10.147  2.0883  0.5317 -1.8740
 4483TIP3   OH234863   4.981   0.400  13.973  0.0918 -0.6528 -0.0114
 4483TIP3    H134864   5.042   0.387  13.899  0.2546 -2.2215  0.3875
 4483TIP3    H234865   4.966   0.495  13.975  2.9021 -0.1623  0.1684
 4484TIP3   OH234866   5.429   0.784  16.798  0.4365 -0.3119 -0.3179
 4484TIP3    H134867   5.459   0.729  16.871 -0.1862  0.0626  0.2399
 4484TIP3    H234868   5.351   0.739  16.766  0.8021 -0.5590 -0.8569
 4485TIP3   OH234869   4.810   0.737   4.403 -0.0476 -0.0745 -0.4335
 4485TIP3    H134870   4.892   0.779   4.428 -0.1186 -1.2778  1.8971
 4485TIP3    H234871   4.742   0.793   4.442 -0.3222  0.3334 -1.4718
 4486TIP3   OH234872   2.582   0.651   0.888 -0.2980  0.5355  0.2800
 4486TIP3    H134873   2.539   0.585   0.942  0.7994  0.9632  1.7111
 4486TIP3    H234874   2.596   0.725   0.947  2.4366  0.3883 -0.0762
 4487TIP3   OH234875   1.726   0.065  15.757 -0.1644  0.2518  0.1130
 4487TIP3    H134876   1.749  -0.003  15.820  0.5923  0.5459  0.1556
 4487TIP3    H234877   1.776   0.043  15.678 -1.0043 -0.0412 -0.3494
 4488TIP3   OH234878   4.856   3.805  14.568  0.1216 -0.8120 -0.8319
 4488TIP3    H134879   4.929   3.846  14.616  1.0248 -1.8704 -1.2685
 4488TIP3    H234880   4.817   3.877  14.518 -1.5311  0.5588  2.2846
 4489TIP3   OH234881   3.140   4.009  14.655 -0.2939  0.3189 -0.7179
 4489TIP3    H134882   3.164   3.927  14.698  1.4526 -0.1855 -2.5572
 4489TIP3    H234883   3.108   3.983  14.569 -0.8802  1.4906 -0.8652
 4490TIP3   OH234884   6.045   5.014   4.096  1.0170 -0.3607 -0.0396
 4490TIP3    H134885   6.027   5.020   4.190 -0.6450 -1.1143 -0.2746
 4490TIP3    H234886   5.997   5.088   4.058  1.3414 -0.3030 -0.3361
 4491TIP3   OH234887   5.564   3.249  12.662 -0.1161  0.3629 -0.2296
 4491TIP3    H134888   5.537   3.340  12.667  0.4939  0.5697 -0.5781
 4491TIP3    H234889   5.608   3.232  12.745  0.0084  0.4699 -0.2722
 4492TIP3   OH234890   3.245   0.067  14.798  0.1594  0.3722 -0.5191
 4492TIP3    H134891   3.194   0.132  14.847 -1.4011  0.3818 -2.0856
 4492TIP3    H234892   3.185  -0.007  14.787  1.5027 -0.8504  0.1581
 4493TIP3   OH234893   0.693   5.014   3.135 -0.3859 -0.4597  0.1799
 4493TIP3    H134894   0.767   5.002   3.076 -0.0054  0.4176  0.4712
 4493TIP3    H234895   0.709   4.951   3.206  1.7450  1.8806  1.8480
 4494TIP3   OH234896   5.305   6.477  13.625  0.8627 -0.0287  0.0607
 4494TIP3    H134897   5.279   6.554  13.677  1.6326  0.9812 -1.0289
 4494TIP3    H234898   5.371   6.433  13.679 -2.6268 -2.3698  2.6597
 4495TIP3   OH234899   6.684   4.470  15.573 -0.4619 -0.0324  0.0845
 4495TIP3    H134900   6.589   4.467  15.586 -0.6497  3.0535 -0.1863
 4495TIP3    H234901   6.710   4.554  15.611  2.0162 -0.3667 -0.8213
 4496TIP3   OH234902   5.940   1.030   1.983  0.8286 -0.3380  0.0502
 4496TIP3    H134903   5.876   1.040   1.913  1.5024 -2.0657 -0.8608
 4496TIP3    H234904   5.897   1.065   2.061  0.2493  2.0416 -1.3034
 4497TIP3   OH234905   3.387   6.391  11.504 -0.1818  0.5554 -0.0824
 4497TIP3    H134906   3.324   6.322  11.480  1.8662 -2.4018  2.6028
 4497TIP3    H234907   3.458   6.382  11.440  0.5952 -0.6306  0.9158
 4498TIP3   OH234908   2.933   6.551  15.226 -0.1945 -0.2106 -0.2856
 4498TIP3    H134909   3.003   6.514  15.172 -1.3534 -2.1288 -0.5212
 4498TIP3    H234910   2.965   6.638  15.250  1.6689 -0.5199 -1.5172
 4499TIP3   OH234911   1.796   2.755   0.905 -0.4548 -0.3138  0.5074
 4499TIP3    H134912   1.819   2.734   0.996 -0.5005  1.1424  0.8686
 4499TIP3    H234913   1.880   2.765   0.861 -0.4227 -0.1739  0.5989
 4500TIP3   OH234914   0.031   2.064   0.101  0.1438 -0.0101 -0.6865
 4500TIP3    H134915  -0.051   2.022   0.077  0.0890  1.1871 -2.7471
 4500TIP3    H234916   0.010   2.117   0.177 -0.7056 -0.6065 -0.5009
 4501TIP3   OH234917   4.106   1.016   5.981 -0.0087  0.5242  0.1631
 4501TIP3    H134918   4.113   0.995   5.887  2.9295 -0.0052  0.4382
 4501TIP3    H234919   4.194   1.045   6.005 -0.5789  0.1008  2.8980
 4502TIP3   OH234920   2.495   3.725  11.615 -0.0705  0.3974  0.1956
 4502TIP3    H134921   2.427   3.676  11.570  1.2283 -2.2278  1.0089
 4502TIP3    H234922   2.543   3.770  11.546 -0.3761 -0.6364 -0.6916
 4503TIP3   OH234923   2.226   1.241  13.758  0.2963  0.0747 -0.1357
 4503TIP3    H134924   2.292   1.243  13.689  2.0274 -0.8210  1.4461
 4503TIP3    H234925   2.235   1.153  13.796 -1.0512  0.3441  0.8263
 4504TIP3   OH234926   1.533   4.902  15.278  0.3714  0.1627 -0.1587
 4504TIP3    H134927   1.517   4.997  15.279  0.2905  0.1506 -0.2804
 4504TIP3    H234928   1.472   4.868  15.213  0.8577  0.1102 -0.5944
 4505TIP3   OH234929   0.679   0.232   4.043 -0.1451  0.3744  0.1734
 4505TIP3    H134930   0.750   0.270   3.992  0.3871 -0.4700  0.2741
 4505TIP3    H234931   0.723   0.188   4.116 -0.8389  0.7935  0.8562
 4506TIP3   OH234932   4.308   2.832   3.799  0.8651 -0.1260  0.9405
 4506TIP3    H134933   4.225   2.874   3.778  1.1794 -0.0742 -0.2092
 4506TIP3    H234934   4.286   2.741   3.817  0.5174 -0.0428  0.9299
 4507TIP3   OH234935   2.219   6.689  12.025 -0.2860 -0.0726  0.0745
 4507TIP3    H134936   2.288   6.705  11.961  1.4120 -1.1362  1.5768
 4507TIP3    H234937   2.247   6.739  12.102 -0.3417 -1.8262  1.2410
 4508TIP3   OH234938   0.770   3.370  16.629  0.1977 -0.3590 -0.9522
 4508TIP3    H134939   0.764   3.277  16.609 -1.8644 -0.4160 -0.1858
 4508TIP3    H234940   0.753   3.376  16.723 -0.3322  0.8508 -1.1127
 4509TIP3   OH234941   0.125   5.196   0.539 -0.6042 -0.2362  0.5274
 4509TIP3    H134942   0.069   5.259   0.492  0.1704  0.9044  1.1067
 4509TIP3    H234943   0.087   5.193   0.627 -1.5661 -1.7624  0.0788
 4510TIP3   OH234944   5.083   5.642   2.625  0.4097  0.2404 -0.3588
 4510TIP3    H134945   5.121   5.645   2.537 -0.4532 -1.0828 -0.7866
 4510TIP3    H234946   5.077   5.734   2.652  0.4284  0.6685 -1.7927
 4511TIP3   OH234947   3.941   4.433   0.351  0.1227  0.5434 -0.2745
 4511TIP3    H134948   3.876   4.385   0.402  1.2925 -1.0391 -0.2398
 4511TIP3    H234949   3.945   4.520   0.391 -0.9649  0.2049  0.5700
 4512TIP3   OH234950   1.990   0.010  15.122  0.0757  0.6185 -0.0568
 4512TIP3    H134951   1.904  -0.022  15.148  0.7089 -0.3836  0.8976
 4512TIP3    H234952   2.000  -0.019  15.031  0.3028 -1.2352  0.5419
 4513TIP3   OH234953   5.177   0.350  16.682 -0.5037 -0.3223  0.0095
 4513TIP3    H134954   5.137   0.320  16.764 -0.0325 -1.3990 -0.1451
 4513TIP3    H234955   5.104   0.359  16.621 -0.6814 -0.9269  0.1323
 4514TIP3   OH234956   5.133   3.669  11.425 -0.3570  0.4735 -0.1389
 4514TIP3    H134957   5.068   3.740  11.417 -0.1473  0.8255  1.2514
 4514TIP3    H234958   5.112   3.627  11.508 -0.1007 -0.7312 -0.6817
 4515TIP3   OH234959   1.633   4.339  15.545 -0.1983 -0.0090 -0.5649
 4515TIP3    H134960   1.613   4.429  15.569  0.6399  0.4450 -1.5411
 4515TIP3    H234961   1.691   4.346  15.469 -0.8176 -1.3754 -1.1966
 4516TIP3   OH234962   1.238   0.410  12.025 -0.0387  0.0143  0.2994
 4516TIP3    H134963   1.146   0.416  11.997  0.6548 -1.3376 -2.4373
 4516TIP3    H234964   1.250   0.317  12.047  1.0229 -0.0947 -0.6902
 4517TIP3   OH234965   2.726   1.216   3.785 -0.0531 -0.0753  0.3417
 4517TIP3    H134966   2.746   1.204   3.877 -0.6787  2.6365  0.8681
 4517TIP3    H234967   2.810   1.211   3.741  0.1958 -1.8843  0.9523
 4518TIP3   OH234968   4.233   0.783  16.659  0.2327  0.6783 -0.5429
 4518TIP3    H134969   4.277   0.710  16.615 -1.1658 -0.5103 -0.0047
 4518TIP3    H234970   4.293   0.807  16.729  0.0365 -0.9505  0.2059
 4519TIP3   OH234971   4.712   3.301   2.484 -0.2701  0.1399 -0.8130
 4519TIP3    H134972   4.781   3.243   2.517  0.5443  1.0005 -0.9860
 4519TIP3    H234973   4.677   3.344   2.562  1.7294  2.2569 -1.0243
 4520TIP3   OH234974   6.172   3.612   0.420  0.0507 -0.0499 -0.2096
 4520TIP3    H134975   6.207   3.526   0.398  0.2874  0.4080 -1.6487
 4520TIP3    H234976   6.132   3.600   0.506  0.8818 -1.3733  0.0068
 4521TIP3   OH234977   0.385   4.871  16.856  0.3446 -0.2539  0.5229
 4521TIP3    H134978   0.388   4.792  16.910 -0.7275 -0.9811 -0.4589
 4521TIP3    H234979   0.336   4.934  16.909 -3.9530 -2.1062 -0.9801
 4522TIP3   OH234980   1.614   3.010   0.563 -0.0780 -0.1958  0.1669
 4522TIP3    H134981   1.675   3.018   0.636  0.7901  1.0787 -0.6846
 4522TIP3    H234982   1.662   2.961   0.496 -0.4668 -0.3542  0.0015
 4523TIP3   OH234983   4.763   4.533   1.064  0.2065  0.7786  0.1815
 4523TIP3    H134984   4.854   4.556   1.079  0.0926  0.7065  1.0044
 4523TIP3    H234985   4.727   4.607   1.015  0.7059  0.7974 -0.1607
 4524TIP3   OH234986   5.357   5.250   3.023  0.2726 -0.3059  0.0748
 4524TIP3    H134987   5.439   5.204   3.004  0.0501 -0.6490 -0.0774
 4524TIP3    H234988   5.370   5.289   3.109  0.4668 -0.6591  0.2065
 4525TIP3   OH234989   2.158   2.194  13.865  0.3793 -0.4062 -0.3565
 4525TIP3    H134990   2.194   2.115  13.826 -1.8229 -1.3468 -0.5838
 4525TIP3    H234991   2.067   2.171  13.886 -0.0834  1.8291  0.2471
 4526TIP3   OH234992   4.696   2.900   5.355 -0.2130 -0.5108 -0.3749
 4526TIP3    H134993   4.678   2.911   5.449  0.0260 -1.6318 -0.1883
 4526TIP3    H234994   4.640   2.964   5.312  0.0325  0.3463  0.5677
 4527TIP3   OH234995   1.267   4.735  14.518  0.0019  0.2691 -0.7503
 4527TIP3    H134996   1.201   4.749  14.450 -0.3133  2.2269 -0.1004
 4527TIP3    H234997   1.233   4.785  14.593  0.9613 -0.8211  0.4199
 4528TIP3   OH234998   5.475   6.353  16.081 -0.2183 -0.5010  0.0004
 4528TIP3    H134999   5.415   6.308  16.021 -1.0352  2.2880 -1.3522
 4528TIP3    H235000   5.529   6.408  16.025 -0.2571  1.3409  1.7156
 4529TIP3   OH235001   3.672   3.236   5.787 -0.2544  0.0498  0.0544
 4529TIP3    H135002   3.658   3.183   5.708  3.2357  1.8166 -1.8810
 4529TIP3    H235003   3.706   3.174   5.852 -0.7880 -0.9785 -0.6274
 4530TIP3   OH235004   5.980   4.141  16.242  0.0225  0.1734  0.6589
 4530TIP3    H135005   5.892   4.176  16.227  0.4014  1.0209  0.4426
 4530TIP3    H235006   6.035   4.185  16.178  0.2911 -1.6569 -0.3926
 4531TIP3   OH235007   3.624   4.722   4.443 -0.0830  0.5448 -0.7101
 4531TIP3    H135008   3.571   4.710   4.365 -1.8302  1.3915  0.3255
 4531TIP3    H235009   3.575   4.784   4.497 -0.5197 -2.4223  2.4971
 4532TIP3   OH235010   0.004   2.688   3.752  0.0859 -0.0035  0.0448
 4532TIP3    H135011  -0.050   2.646   3.819 -1.4914  0.9208 -0.6116
 4532TIP3    H235012   0.011   2.623   3.682  0.5349 -0.4353  0.4858
 4533TIP3   OH235013   6.342   6.689  16.035 -0.3331 -0.4930 -0.3227
 4533TIP3    H135014   6.319   6.680  16.127 -1.0924  0.9599 -0.3569
 4533TIP3    H235015   6.268   6.650  15.987 -1.1806  1.1224 -0.3588
 4534TIP3   OH235016   0.375   2.108  11.753  0.1425  0.2744  0.2941
 4534TIP3    H135017   0.458   2.062  11.768 -0.6460 -1.0406  0.7167
 4534TIP3    H235018   0.397   2.176  11.690  1.5960  0.0695  0.5523
 4535TIP3   OH235019   1.598   1.564   0.007  0.4769  0.1799 -0.7733
 4535TIP3    H135020   1.670   1.540   0.065  0.7795  0.8612 -0.8588
 4535TIP3    H235021   1.595   1.495  -0.059  0.1063 -0.6240  0.0716
 4536TIP3   OH235022   4.200   3.519   6.582  0.3861 -0.8317 -0.2328
 4536TIP3    H135023   4.138   3.588   6.562 -0.1787 -1.4392 -0.5924
 4536TIP3    H235024   4.218   3.477   6.498  0.2909 -1.4843  0.0658
 4537TIP3   OH235025   1.546   1.084  12.846  0.5165  0.3111  0.7229
 4537TIP3    H135026   1.601   1.044  12.913  0.8996  0.5631  0.5618
 4537TIP3    H235027   1.515   1.011  12.792  1.3973  0.2532  0.2899
 4538TIP3   OH235028   5.393   2.328   5.116 -0.3964 -0.2532 -0.0329
 4538TIP3    H135029   5.314   2.358   5.160  0.7572  0.9023  1.2761
 4538TIP3    H235030   5.379   2.233   5.106 -1.7006 -0.1569  0.6854
 4539TIP3   OH235031   5.502   0.039   1.428 -0.0062  0.2448  0.6079
 4539TIP3    H135032   5.592   0.034   1.458 -0.4687 -0.8461  1.8596
 4539TIP3    H235033   5.482  -0.050   1.398 -1.1817  0.0512  1.9131
 4540TIP3   OH235034   3.561   5.578  15.447 -0.5197  0.0706  0.0548
 4540TIP3    H135035   3.588   5.670  15.444 -0.6989  0.0872 -1.2996
 4540TIP3    H235036   3.607   5.538  15.373 -1.4513 -0.6588 -0.1288
 4541TIP3   OH235037   5.504   5.579   5.843 -0.5309 -0.2415  0.3292
 4541TIP3    H135038   5.413   5.602   5.822  0.6099  1.5371 -3.0043
 4541TIP3    H235039   5.530   5.643   5.910 -1.2229  0.2973  0.0867
 4542TIP3   OH235040   3.920   2.367  11.392 -0.2372 -0.1453 -0.1586
 4542TIP3    H135041   3.973   2.415  11.455 -0.3772 -1.5440  1.0524
 4542TIP3    H235042   3.892   2.433  11.328  0.0216  1.2564  1.1587
 4543TIP3   OH235043   4.859   1.494  10.820 -0.0349 -0.0048  0.1479
 4543TIP3    H135044   4.934   1.455  10.776  1.2681  1.5225  0.9583
 4543TIP3    H235045   4.808   1.535  10.750  0.6373  0.1727 -0.2400
 4544TIP3   OH235046   5.970   2.652   3.515  0.2467  0.3941  0.1308
 4544TIP3    H135047   5.941   2.635   3.425  0.3052  0.1881  0.1507
 4544TIP3    H235048   5.892   2.636   3.568  0.7646 -1.5880  0.3325
 4545TIP3   OH235049   3.239   3.510  11.747 -0.3769  0.1292  0.2012
 4545TIP3    H135050   3.238   3.543  11.657  1.2092 -1.9206 -0.6054
 4545TIP3    H235051   3.152   3.533  11.782 -1.6387 -0.5106 -2.3864
 4546TIP3   OH235052   0.991   0.100  12.456  0.4794  0.8446  0.1826
 4546TIP3    H135053   0.930   0.162  12.497 -2.2661 -2.4120  1.2769
 4546TIP3    H235054   0.960   0.094  12.365 -0.3673 -0.1906  0.5279
 4547TIP3   OH235055   0.663   6.643  12.841 -0.2460 -0.0032 -0.2144
 4547TIP3    H135056   0.593   6.698  12.878  0.1896 -0.3353  1.1215
 4547TIP3    H235057   0.716   6.703  12.790 -0.4076  0.6176  0.3426
 4548TIP3   OH235058   2.119   5.561   3.954 -0.1947 -0.0766  0.7330
 4548TIP3    H135059   2.055   5.633   3.956 -0.6843 -0.5313  1.8610
 4548TIP3    H235060   2.173   5.580   3.878 -1.4232  0.5347 -0.0065
 4549TIP3   OH235061   3.624   3.482   5.595 -0.0202 -0.0288 -0.0498
 4549TIP3    H135062   3.645   3.446   5.681  1.4586 -0.6878 -0.6684
 4549TIP3    H235063   3.637   3.408   5.534 -0.3002  0.6332 -0.9228
 4550TIP3   OH235064   2.042   0.715   5.623 -0.3113  0.3923 -0.1463
 4550TIP3    H135065   2.011   0.805   5.610  0.0911  0.7878  1.5063
 4550TIP3    H235066   1.976   0.661   5.579 -0.9489  1.4548 -0.5341
 4551TIP3   OH235067   6.595   1.095   1.773  0.1218 -0.3686 -0.0087
 4551TIP3    H135068   6.685   1.076   1.744  0.5426  1.2344  0.1852
 4551TIP3    H235069   6.606   1.138   1.858 -0.6697  1.8244 -0.9634
 4552TIP3   OH235070   2.803   5.816  11.586  0.4867 -0.6361  0.4733
 4552TIP3    H135071   2.808   5.911  11.587  0.6738 -0.6315 -0.6096
 4552TIP3    H235072   2.718   5.796  11.624  0.7002 -0.0607  1.2579
 4553TIP3   OH235073   1.419   5.599   2.718 -0.2373  0.2328  0.0922
 4553TIP3    H135074   1.428   5.510   2.752 -0.4864 -0.0589 -0.6116
 4553TIP3    H235075   1.326   5.608   2.696  0.1232  0.0364 -1.5785
 4554TIP3   OH235076   3.173   6.034  13.971  0.4871  0.2789 -0.3911
 4554TIP3    H135077   3.205   6.028  13.881 -0.9334 -0.1883 -0.8833
 4554TIP3    H235078   3.122   5.954  13.983  0.5030  0.4360  0.7704
 4555TIP3   OH235079   0.039   4.240  15.697  0.2620 -0.0720 -0.0647
 4555TIP3    H135080  -0.010   4.322  15.706  0.0786 -0.2675  0.7267
 4555TIP3    H235081   0.123   4.257  15.741  0.2765 -0.2647 -0.0191
 4556TIP3   OH235082   0.639   2.119   3.269  0.3827  0.2079 -0.1732
 4556TIP3    H135083   0.697   2.042   3.273 -2.4073 -2.0326 -1.1934
 4556TIP3    H235084   0.603   2.127   3.357  0.1016 -0.1269 -0.2561
 4557TIP3   OH235085   0.167   2.229  12.983  0.4331  0.5594  0.2373
 4557TIP3    H135086   0.138   2.202  12.896  0.4393 -2.6175  1.1287
 4557TIP3    H235087   0.262   2.213  12.983  0.0493 -2.0237  1.6146
 4558TIP3   OH235088   2.080   2.785   4.065  0.7040  0.4877  0.5680
 4558TIP3    H135089   2.108   2.784   4.156 -1.5158  2.1138  1.3318
 4558TIP3    H235090   2.037   2.870   4.054 -0.7963 -0.4678 -1.4210
 4559TIP3   OH235091   4.634   6.367  16.768  0.1688 -0.9200  0.3414
 4559TIP3    H135092   4.650   6.461  16.769  0.4227 -0.9701  1.6124
 4559TIP3    H235093   4.720   6.328  16.784 -0.0176 -1.3642  0.2615
 4560TIP3   OH235094   4.439   3.220   0.797  0.1544 -0.5750 -0.1442
 4560TIP3    H135095   4.426   3.282   0.869 -0.8385 -1.0120  0.0644
 4560TIP3    H235096   4.517   3.252   0.752  0.2558  0.2299  0.5805
 4561TIP3   OH235097   6.656   5.182  13.861 -0.0162  0.3230  0.7474
 4561TIP3    H135098   6.704   5.264  13.857 -1.7181  1.4308  2.4921
 4561TIP3    H235099   6.628   5.166  13.770 -0.5993  2.2193  0.5815
 4562TIP3   OH235100   3.069   1.524   2.489  0.0100 -0.2229  0.1334
 4562TIP3    H135101   3.154   1.484   2.471  1.4841  2.9598 -0.4626
 4562TIP3    H235102   3.041   1.484   2.571  1.7667 -1.8272 -0.0099
 4563TIP3   OH235103   1.436   4.439   0.278  0.1771  0.3184  0.0016
 4563TIP3    H135104   1.404   4.412   0.192 -1.1476  2.8459 -0.3271
 4563TIP3    H235105   1.485   4.362   0.310 -1.2135 -1.4672 -2.0047
 4564TIP3   OH235106   1.305   6.641   4.336 -0.1757 -0.1693 -0.0551
 4564TIP3    H135107   1.392   6.674   4.314 -0.2735 -0.5084 -1.0017
 4564TIP3    H235108   1.291   6.569   4.274 -1.2105  0.0143 -0.0429
 4565TIP3   OH235109   4.600   2.548  11.679 -0.2104  0.1298  0.3699
 4565TIP3    H135110   4.529   2.489  11.705  0.1427  0.2388  1.6532
 4565TIP3    H235111   4.576   2.633  11.717 -0.2426  0.5847 -0.6529
 4566TIP3   OH235112   5.527   0.689   6.249 -0.5305 -0.3075  0.3820
 4566TIP3    H135113   5.448   0.662   6.204 -0.3706 -0.0691 -0.0424
 4566TIP3    H235114   5.521   0.784   6.255  0.5607 -0.1296 -1.2232
 4567TIP3   OH235115   0.407   0.328  15.955 -0.1539 -0.0225 -0.0525
 4567TIP3    H135116   0.332   0.290  16.002  1.1957  0.0130  2.2050
 4567TIP3    H235117   0.367   0.390  15.894 -2.0034 -0.0343  1.0872
 4568TIP3   OH235118   1.352   2.480   3.134 -0.8158  0.4505  0.4686
 4568TIP3    H135119   1.336   2.552   3.072 -2.1374 -0.9899 -0.8959
 4568TIP3    H235120   1.445   2.487   3.155 -0.6677  1.8501 -0.5710
 4569TIP3   OH235121   1.849   2.010   4.836 -0.3874 -0.2259 -0.2764
 4569TIP3    H135122   1.823   1.921   4.858  0.7354 -0.0793  1.8249
 4569TIP3    H235123   1.942   2.003   4.815 -0.3848  0.3981 -0.4820
 4570TIP3   OH235124   3.718   0.345   4.475  0.1616 -0.1569 -0.3964
 4570TIP3    H135125   3.631   0.305   4.472 -0.4947  1.1025  1.0138
 4570TIP3    H235126   3.778   0.272   4.465 -1.0696 -0.9122 -2.5081
 4571TIP3   OH235127   2.819   2.148   5.731  0.1999  0.4185  0.3317
 4571TIP3    H135128   2.862   2.133   5.647  1.1663 -0.0340  0.8967
 4571TIP3    H235129   2.786   2.238   5.725  0.1660  0.3541 -0.5693
 4572TIP3   OH235130   6.020   3.085   1.897 -0.1506  0.8075  0.3735
 4572TIP3    H135131   6.081   3.118   1.831  1.6048 -0.5937  1.2327
 4572TIP3    H235132   5.950   3.043   1.847 -0.1415  1.9553 -0.6165
 4573TIP3   OH235133   3.909   3.929  14.297  0.0181  0.6941 -0.0903
 4573TIP3    H135134   3.939   3.993  14.233  0.8391  1.5713  1.1567
 4573TIP3    H235135   3.975   3.930  14.365 -0.1360 -1.2345  0.1340
 4574TIP3   OH235136   2.673   6.455   1.530  0.1080 -0.1195 -0.2318
 4574TIP3    H135137   2.597   6.406   1.498  0.7573 -1.7190  0.5927
 4574TIP3    H235138   2.726   6.389   1.575  2.1857  0.8780 -1.1437
 4575TIP3   OH235139   5.180   4.435   3.987  0.2425  0.2281  0.2487
 4575TIP3    H135140   5.094   4.398   4.005 -0.2739  0.9633 -0.7403
 4575TIP3    H235141   5.240   4.360   3.996 -0.9277 -1.1372 -2.8834
 4576TIP3   OH235142   5.133   6.688   3.405  0.2855  0.1484 -0.0059
 4576TIP3    H135143   5.159   6.771   3.446  0.4023 -0.4248  1.0907
 4576TIP3    H235144   5.092   6.638   3.476  1.1192 -1.1331 -0.4268
 4577TIP3   OH235145   3.864   6.594   3.491 -0.1494 -0.2005  0.2767
 4577TIP3    H135146   3.881   6.571   3.400 -2.1042  0.8782 -0.3908
 4577TIP3    H235147   3.801   6.528   3.521  1.1519 -1.0749  1.1303
 4578TIP3   OH235148   1.744   5.808   6.093 -1.0403 -0.2126  0.1598
 4578TIP3    H135149   1.669   5.775   6.143  0.2699 -0.5345  1.9627
 4578TIP3    H235150   1.820   5.788   6.148  0.3197  0.5683 -1.4047
 4579TIP3   OH235151   2.823   1.038   1.116 -0.7995  0.1819  0.2659
 4579TIP3    H135152   2.903   1.086   1.136 -0.2636 -2.0970  3.9471
 4579TIP3    H235153   2.851   0.965   1.060 -0.7757  1.0059 -0.8081
 4580TIP3   OH235154   1.344   2.170   2.599 -0.0068  0.2911  0.0505
 4580TIP3    H135155   1.297   2.104   2.547  1.0945  0.1849 -0.8109
 4580TIP3    H235156   1.370   2.123   2.678  0.1631 -0.1188 -0.2452
 4581TIP3   OH235157   3.594   0.766   1.753 -0.4201  0.6817  0.6328
 4581TIP3    H135158   3.606   0.853   1.713 -0.1223  1.2805  1.9888
 4581TIP3    H235159   3.675   0.751   1.802 -1.9078  1.2347  3.3525
 4582TIP3   OH235160   0.811   1.842  16.041  0.3768 -0.6595 -0.8437
 4582TIP3    H135161   0.878   1.906  16.017  0.5020 -0.2571  0.5281
 4582TIP3    H235162   0.729   1.892  16.043  0.2622 -0.8350 -1.0856
 4583TIP3   OH235163   5.927   1.711  10.925  0.8182  0.0046  0.7761
 4583TIP3    H135164   5.926   1.658  10.845 -0.3400  1.1424  0.0128
 4583TIP3    H235165   5.859   1.777  10.910 -0.1091 -0.3927  3.1176
 4584TIP3   OH235166   0.822   3.466   1.790  0.0485  0.2633  0.2893
 4584TIP3    H135167   0.893   3.402   1.797 -0.2666 -0.0455  0.6461
 4584TIP3    H235168   0.743   3.416   1.808 -0.2593  0.6217 -0.0595
 4585TIP3   OH235169   5.174   3.890   0.841  0.1377  0.5926  0.1379
 4585TIP3    H135170   5.257   3.889   0.793  0.3912  0.7216  0.5729
 4585TIP3    H235171   5.115   3.942   0.786 -0.2376 -1.1523 -1.1461
 4586TIP3   OH235172   6.336   2.742  16.089 -0.4756  0.6995 -0.1420
 4586TIP3    H135173   6.379   2.735  16.003  0.0691 -0.1108  0.2004
 4586TIP3    H235174   6.367   2.666  16.138  0.2322  1.8553  1.2327
 4587TIP3   OH235175   1.978   5.702   2.178  0.4534  0.7493 -0.3570
 4587TIP3    H135176   1.957   5.750   2.098  1.6548  0.7492 -0.6867
 4587TIP3    H235177   2.072   5.683   2.170  0.4186  0.1081  0.7086
 4588TIP3   OH235178   2.895   5.067   1.498  0.0102  0.1193  0.2114
 4588TIP3    H135179   2.846   5.023   1.428 -1.1959  0.8558  0.5848
 4588TIP3    H235180   2.898   5.002   1.569 -2.0470  0.7053  0.8802
 4589TIP3   OH235181   3.003   1.601  15.715  0.0042  0.3372  0.3730
 4589TIP3    H135182   2.927   1.656  15.698 -0.7614 -1.2157 -1.5078
 4589TIP3    H235183   3.077   1.650  15.680 -0.6378  0.2769 -1.1079
 4590TIP3   OH235184   1.740   2.126  13.352  0.5522 -0.1550 -0.2590
 4590TIP3    H135185   1.834   2.139  13.366  0.4096 -0.4133  1.0577
 4590TIP3    H235186   1.734   2.057  13.286  1.2958 -0.2189 -0.2610
 4591TIP3   OH235187   3.741   0.919   3.825  0.0650 -0.3367 -0.0013
 4591TIP3    H135188   3.803   0.950   3.891 -2.5611  0.8444  2.0212
 4591TIP3    H235189   3.719   0.997   3.774  1.1448 -1.0035 -1.5254
 4592TIP3   OH235190   1.388   3.059   3.016  0.0960 -0.5129  0.1576
 4592TIP3    H135191   1.430   3.021   2.939  2.6661  2.7382 -0.1336
 4592TIP3    H235192   1.445   3.036   3.089  0.5761  0.9943  0.2722
 4593TIP3   OH235193   4.975   4.768   2.429  0.1253 -0.7491 -0.3319
 4593TIP3    H135194   4.970   4.695   2.492  1.2281  0.4876  1.2161
 4593TIP3    H235195   5.043   4.742   2.368  1.4060 -0.4722  0.9567
 4594TIP3   OH235196   5.080   0.600   6.506  0.4140  0.0241  0.1221
 4594TIP3    H135197   5.037   0.516   6.490  2.1469 -0.5974 -1.4385
 4594TIP3    H235198   5.067   0.649   6.424  2.0312  0.0857 -0.1144
 4595TIP3   OH235199   4.949   4.642  15.686  0.2863  0.2269  0.4090
 4595TIP3    H135200   4.964   4.597  15.603 -1.8634  0.9095 -0.3810
 4595TIP3    H235201   4.963   4.575  15.753  0.5079 -0.7218 -0.5816
 4596TIP3   OH235202   1.225   4.019  12.837 -0.0741  0.3085 -0.1700
 4596TIP3    H135203   1.303   3.987  12.792 -0.8496 -0.4629 -1.0003
 4596TIP3    H235204   1.187   3.941  12.877  1.0117  1.1070  2.5202
 4597TIP3   OH235205   1.445   3.758   2.041  0.0697 -0.4318  0.0328
 4597TIP3    H135206   1.370   3.781   1.987 -0.3160 -0.7565  0.4263
 4597TIP3    H235207   1.407   3.731   2.125  0.7161  1.1586  0.8558
 4598TIP3   OH235208   2.159   3.815   0.436 -0.0426  0.0845  0.0881
 4598TIP3    H135209   2.132   3.890   0.383 -1.4155 -1.2352 -1.1351
 4598TIP3    H235210   2.150   3.846   0.526  1.7190  2.1513 -0.4011
 4599TIP3   OH235211   4.635   1.321  10.497  0.1683 -0.1677  0.4657
 4599TIP3    H135212   4.721   1.337  10.536 -0.0778  0.8411  0.6272
 4599TIP3    H235213   4.574   1.329  10.570 -0.3346  2.1039 -0.1537
 4600TIP3   OH235214   1.339   0.966   5.702 -0.1135 -0.2532 -0.0702
 4600TIP3    H135215   1.311   1.046   5.747 -0.2731 -1.1226  1.4191
 4600TIP3    H235216   1.367   0.907   5.773  2.3433 -0.6241 -1.2906
 4601TIP3   OH235217   4.056   2.006  14.678  0.3017  0.8472  0.6079
 4601TIP3    H135218   4.015   2.093  14.678 -0.4761  0.4842  0.5167
 4601TIP3    H235219   4.083   1.993  14.587 -2.3030 -0.2585 -0.0506
 4602TIP3   OH235220   0.355   0.935  11.717  0.7820  0.5131  0.4643
 4602TIP3    H135221   0.298   0.859  11.710  1.0332  0.3351  0.3336
 4602TIP3    H235222   0.359   0.953  11.811  1.0692  0.0948  0.5370
 4603TIP3   OH235223   3.936   3.636   2.408 -0.0344 -0.1501 -0.1369
 4603TIP3    H135224   3.889   3.609   2.486 -0.2195  1.6626  0.4029
 4603TIP3    H235225   3.897   3.585   2.337 -1.9939  0.4511  0.4800
 4604TIP3   OH235226   2.385   6.261  14.286 -0.3032 -0.5512  0.2543
 4604TIP3    H135227   2.303   6.249  14.333  0.0571 -1.3042  0.7080
 4604TIP3    H235228   2.383   6.351  14.255 -2.3320 -1.2256 -1.6875
 4605TIP3   OH235229   4.108   5.708  11.760 -0.1759 -0.6457  0.0678
 4605TIP3    H135230   4.136   5.788  11.717 -1.8322 -0.8939 -1.5079
 4605TIP3    H235231   4.109   5.729  11.853  2.1616  0.2892 -0.1317
 4606TIP3   OH235232   3.434   5.709  13.492 -0.1754  0.9166 -0.3425
 4606TIP3    H135233   3.467   5.736  13.406  2.1028  1.2797  0.5994
 4606TIP3    H235234   3.512   5.703  13.547 -1.3795 -1.2114  1.2221
 4607TIP3   OH235235   4.998   1.331  16.198  0.2816  0.2053  0.1261
 4607TIP3    H135236   4.982   1.285  16.115 -1.9837 -1.0121  1.1788
 4607TIP3    H235237   5.074   1.287  16.236  0.8490  0.2577 -0.9156
 4608TIP3   OH235238   0.399   3.244   1.009 -0.1697  0.0655  0.5462
 4608TIP3    H135239   0.394   3.151   0.989 -0.5831  0.4486 -1.2435
 4608TIP3    H235240   0.478   3.274   0.963  0.4498  0.4269  1.8293
 4609TIP3   OH235241   0.016   2.059  12.708 -0.0663  0.5911  0.1309
 4609TIP3    H135242   0.084   2.125  12.693  0.7371 -0.2524  0.0164
 4609TIP3    H235243  -0.012   2.035  12.620 -2.5378  2.9744  0.2003
 4610TIP3   OH235244   0.064   1.573   5.621 -0.0681  0.7122 -0.2518
 4610TIP3    H135245   0.049   1.570   5.715 -0.3814 -0.8767 -0.3448
 4610TIP3    H235246   0.144   1.625   5.611  0.0783  0.7071  0.8994
 4611TIP3   OH235247   6.282   5.703  16.798 -0.0999 -0.4210  0.3313
 4611TIP3    H135248   6.239   5.650  16.731 -2.2742  1.3937  0.1893
 4611TIP3    H235249   6.365   5.729  16.758 -1.0112 -0.0211 -1.3930
 4612TIP3   OH235250   3.532   2.256   0.580 -0.4967  0.4074  0.7536
 4612TIP3    H135251   3.525   2.212   0.665 -1.0756 -0.0771  0.4593
 4612TIP3    H235252   3.565   2.343   0.600  0.7742 -0.1906  1.3459
 4613TIP3   OH235253   5.888   6.062   4.083  0.0930 -0.3054 -0.8980
 4613TIP3    H135254   5.927   6.007   4.015  1.4011 -0.1225 -0.3111
 4613TIP3    H235255   5.904   6.152   4.053 -2.1405 -0.2093 -1.9124
 4614TIP3   OH235256   3.355   3.267  11.830  0.4746  0.2246  0.5897
 4614TIP3    H135257   3.410   3.276  11.909  0.4454  0.6403  0.5630
 4614TIP3    H235258   3.328   3.356  11.810 -0.8985 -0.0745  1.0803
 4615TIP3   OH235259   4.818   2.272  13.658  0.1001  0.0622  1.0222
 4615TIP3    H135260   4.892   2.231  13.613 -0.2645 -2.0615  2.2919
 4615TIP3    H235261   4.741   2.225  13.623 -0.1717 -1.8120  3.9722
 4616TIP3   OH235262   2.238   4.492   1.641  0.1137  0.3278 -0.0097
 4616TIP3    H135263   2.236   4.586   1.625  0.3010  0.2626 -0.4241
 4616TIP3    H235264   2.298   4.482   1.715  0.6190  0.4801 -0.3908
 4617TIP3   OH235265   4.876   2.682  12.240 -0.0140 -0.3588  0.5129
 4617TIP3    H135266   4.903   2.642  12.323 -0.3168 -1.5360  0.0593
 4617TIP3    H235267   4.862   2.774  12.261  0.5818 -0.5095  1.6139
 4618TIP3   OH235268   3.588   5.837   4.486  0.4316  0.1493 -0.3877
 4618TIP3    H135269   3.657   5.783   4.523  0.4482  0.9892  0.8572
 4618TIP3    H235270   3.536   5.864   4.562 -1.0752 -0.2242 -1.2739
 4619TIP3   OH235271   3.750   5.494   4.924  0.0614  0.4594 -0.0875
 4619TIP3    H135272   3.828   5.504   4.979  1.7287  0.8341 -2.4043
 4619TIP3    H235273   3.728   5.401   4.931  0.0293  0.5722  1.4699
 4620TIP3   OH235274   2.667   5.632  16.081  0.1534  0.0737 -0.7902
 4620TIP3    H135275   2.578   5.603  16.066  0.0721  0.4014 -0.9465
 4620TIP3    H235276   2.722   5.564  16.043 -0.0301 -0.0401 -0.8492
 4621TIP3   OH235277   1.160   5.332   3.608 -0.1636  0.0933  0.0624
 4621TIP3    H135278   1.070   5.362   3.618 -0.0377  0.3575  0.3966
 4621TIP3    H235279   1.156   5.268   3.536 -0.6162  0.0948  0.0852
 4622TIP3   OH235280   3.434   5.490   1.945  0.6410  0.1930  0.3110
 4622TIP3    H135281   3.377   5.540   1.886  0.8416  0.3301  0.2345
 4622TIP3    H235282   3.522   5.510   1.916  0.7815  1.1616  1.3896
 4623TIP3   OH235283   6.312   1.722  15.734 -0.3387  0.5490  0.2308
 4623TIP3    H135284   6.388   1.775  15.759 -1.2855  1.7125  0.6848
 4623TIP3    H235285   6.316   1.719  15.638  0.4095  0.4035  0.2605
 4624TIP3   OH235286   4.656   4.812   6.443  0.3044  0.4475  0.5857
 4624TIP3    H135287   4.590   4.834   6.508  0.7346  1.5375  0.6688
 4624TIP3    H235288   4.658   4.888   6.384 -0.3298 -0.6676 -0.9177
 4625TIP3   OH235289   6.211   3.812   1.311  0.4814 -0.1021  0.3731
 4625TIP3    H135290   6.204   3.903   1.284 -1.8319 -0.6080 -0.8505
 4625TIP3    H235291   6.139   3.798   1.372  1.3689 -0.8877  1.2759
 4626TIP3   OH235292   1.288   2.453  11.416 -0.2920 -0.1108  0.2366
 4626TIP3    H135293   1.229   2.382  11.390 -0.3932  0.0936 -0.0816
 4626TIP3    H235294   1.332   2.479  11.336 -0.2542  0.1889  0.3540
 4627TIP3   OH235295   3.484   1.399   2.721  0.1838  0.3456 -0.4137
 4627TIP3    H135296   3.411   1.456   2.697  1.6859  1.9147 -1.3657
 4627TIP3    H235297   3.547   1.409   2.649  1.9574  0.1471  1.0726
 4628TIP3   OH235298   1.875   0.477   5.044  0.3202  0.0782  0.5036
 4628TIP3    H135299   1.895   0.410   4.979 -0.1478 -1.2256  1.6747
 4628TIP3    H235300   1.845   0.553   4.993 -0.3807 -1.0444 -0.7747
 4629TIP3   OH235301   3.049   2.735   3.994 -0.3526  0.2618  0.0129
 4629TIP3    H135302   3.100   2.796   4.048 -1.2797  0.9128  0.1634
 4629TIP3    H235303   3.013   2.672   4.056 -1.2905  0.9194  0.1492
 4630TIP3   OH235304   4.709   0.701   3.811  0.1337 -0.0398  0.4683
 4630TIP3    H135305   4.679   0.649   3.886  2.7677  1.1291  2.4127
 4630TIP3    H235306   4.685   0.791   3.834  0.7676  0.3022 -0.2014
 4631TIP3   OH235307   4.535   3.018   1.023  0.2697 -0.0406  0.4232
 4631TIP3    H135308   4.600   3.079   1.057  0.7205 -0.8364  0.9933
 4631TIP3    H235309   4.550   3.018   0.928  1.6996 -0.8966  0.6396
 4632TIP3   OH235310   1.580   2.939   1.737 -0.6985 -0.2036  0.0007
 4632TIP3    H135311   1.513   2.949   1.806 -1.2046 -1.6552 -0.2658
 4632TIP3    H235312   1.659   2.976   1.776 -1.0200 -0.8683  1.3150
 4633TIP3   OH235313   0.601   3.906   0.461  0.4679 -0.6073 -0.4267
 4633TIP3    H135314   0.547   3.872   0.533 -0.1312 -1.1115 -1.1035
 4633TIP3    H235315   0.659   3.970   0.503  0.4033 -1.1870  0.5727
 4634TIP3   OH235316   3.374   3.702  11.992 -0.1544  0.3586 -0.2818
 4634TIP3    H135317   3.288   3.660  11.998  0.8056 -1.4651  1.2434
 4634TIP3    H235318   3.423   3.647  11.930  0.1561  0.9648 -0.5763
 4635TIP3   OH235319   2.725   5.240  10.839  0.4338 -0.1875  0.3632
 4635TIP3    H135320   2.677   5.200  10.767 -0.0662 -0.9245  1.0902
 4635TIP3    H235321   2.806   5.271  10.800 -1.2797  2.4904 -1.2121
 4636TIP3   OH235322   6.209   5.445   5.298  0.4554 -0.9934  0.0065
 4636TIP3    H135323   6.293   5.416   5.262 -0.1610 -2.2827 -0.3981
 4636TIP3    H235324   6.151   5.453   5.222  0.2159 -0.0466  0.2771
 4637TIP3   OH235325   3.127   6.425  15.074  0.3546  0.1744 -0.7320
 4637TIP3    H135326   3.207   6.471  15.046  1.4217 -1.2319 -0.0783
 4637TIP3    H235327   3.157   6.366  15.144 -1.7007  1.3399  1.1680
 4638TIP3   OH235328   5.200   5.195  14.343  0.3151 -0.7132  0.2942
 4638TIP3    H135329   5.200   5.164  14.434  0.4729  1.5764  1.1254
 4638TIP3    H235330   5.107   5.202  14.320  0.2303  0.2660  0.8757
 4639TIP3   OH235331   2.138   5.175  16.495 -0.0801 -0.5374  0.2301
 4639TIP3    H135332   2.114   5.261  16.461  1.4051  0.2587  1.1394
 4639TIP3    H235333   2.159   5.123  16.417  0.7984  0.4895 -0.2282
 4640TIP3   OH235334   0.803   6.367  13.305 -0.4742  0.3019 -0.5743
 4640TIP3    H135335   0.744   6.442  13.301 -2.0659 -0.8717  0.2485
 4640TIP3    H235336   0.862   6.379  13.230 -1.1861  1.9722 -0.8881
 4641TIP3   OH235337   5.314   2.282  12.615 -0.5146 -0.4436  0.0726
 4641TIP3    H135338   5.285   2.360  12.568  0.1666  0.1241  0.5792
 4641TIP3    H235339   5.385   2.247  12.562 -0.4971 -0.4433  0.0969
 4642TIP3   OH235340   2.131   3.986   1.131 -0.1912 -0.2120 -0.2322
 4642TIP3    H135341   2.181   3.905   1.140 -1.6703 -1.2647 -1.2457
 4642TIP3    H235342   2.055   3.974   1.189 -0.5854  0.3002 -0.6352
 4643TIP3   OH235343   2.727   4.248   3.600 -0.4793  0.2759 -0.3162
 4643TIP3    H135344   2.702   4.159   3.624  1.4260 -0.3404 -0.4794
 4643TIP3    H235345   2.802   4.237   3.542  1.1776  2.0320  1.3972
 4644TIP3   OH235346   2.989   6.338  13.034  0.7346  0.5583  0.3239
 4644TIP3    H135347   2.961   6.328  12.943 -0.8998 -0.1366  0.8951
 4644TIP3    H235348   3.016   6.250  13.061 -2.0591  0.0489  1.5659
 4645TIP3   OH235349   2.297   1.359   2.280  0.1337  0.0014  0.3387
 4645TIP3    H135350   2.287   1.362   2.185 -2.1371  0.7447  0.5523
 4645TIP3    H235351   2.260   1.274   2.305  0.0757  0.1088  0.6171
 4646TIP3   OH235352   6.739   0.215   5.581  0.1661  1.0654 -0.7060
 4646TIP3    H135353   6.827   0.220   5.617 -0.2524  0.3227  0.4350
 4646TIP3    H235354   6.697   0.297   5.608  0.6910  1.6864 -1.7585
 4647TIP3   OH235355   4.966   2.768  14.263  0.3971  0.5603 -0.0499
 4647TIP3    H135356   4.926   2.685  14.288 -1.3963  0.9563 -1.5702
 4647TIP3    H235357   4.905   2.835  14.295  0.2970  1.1931 -1.5450
 4648TIP3   OH235358   4.434   3.385   5.245 -0.3103 -0.1124 -0.4047
 4648TIP3    H135359   4.391   3.362   5.162  0.2963 -0.5107 -0.6039
 4648TIP3    H235360   4.487   3.462   5.224  0.2413 -0.5217 -0.5016
 4649TIP3   OH235361   1.850   2.289   0.341 -0.1478  0.5294  0.0517
 4649TIP3    H135362   1.811   2.282   0.428  1.8893 -1.6307  0.8384
 4649TIP3    H235363   1.944   2.295   0.357  0.5822 -3.4494 -2.0821
 4650TIP3   OH235364   1.225   6.190   4.441  0.0136 -0.8116 -0.0309
 4650TIP3    H135365   1.306   6.180   4.490 -0.8376 -0.2042  1.5362
 4650TIP3    H235366   1.159   6.143   4.492 -1.1987  1.1224  0.2421
 4651TIP3   OH235367   5.247   1.847  15.392  0.1106 -0.3668  0.1166
 4651TIP3    H135368   5.206   1.861  15.307 -0.1860 -0.0811  0.3030
 4651TIP3    H235369   5.323   1.904  15.393 -0.2058  0.0575  0.2607
 4652TIP3   OH235370   1.356   0.802   4.334  0.0093 -0.6599 -0.1961
 4652TIP3    H135371   1.331   0.780   4.423 -0.7631 -0.4638 -0.3559
 4652TIP3    H235372   1.368   0.718   4.290  2.9138 -0.8059  0.7456
 4653TIP3   OH235373   4.611   1.600  10.873 -0.0028 -0.1129 -0.2041
 4653TIP3    H135374   4.691   1.548  10.871  0.2540  0.3332 -2.3332
 4653TIP3    H235375   4.586   1.610  10.781 -3.3558 -1.5486  0.4485
 4654TIP3   OH235376   3.050   1.896   2.065 -0.5655 -0.7676 -0.2573
 4654TIP3    H135377   3.090   1.968   2.016 -1.2569 -1.0915 -1.3213
 4654TIP3    H235378   3.105   1.886   2.143  0.3774 -0.0448 -0.8226
 4655TIP3   OH235379   3.289   6.610  15.570  0.3733  0.4695 -0.7508
 4655TIP3    H135380   3.207   6.613  15.521 -0.0913  1.9367  0.0871
 4655TIP3    H235381   3.356   6.635  15.506  0.0839 -0.0464 -1.2614
 4656TIP3   OH235382   2.045   5.833  16.293  0.0144  0.0712  0.4375
 4656TIP3    H135383   2.089   5.748  16.299  1.3280  0.8260  1.9996
 4656TIP3    H235384   1.967   5.823  16.347 -0.7770 -0.7035 -0.8430
 4657TIP3   OH235385   6.044   3.841  13.955  0.4366  0.0869  0.2125
 4657TIP3    H135386   5.963   3.891  13.945  0.0905 -0.1547  1.6626
 4657TIP3    H235387   6.106   3.902  13.995  0.4061 -0.2696  0.8093
 4658TIP3   OH235388   4.855   5.569  12.452 -0.2194 -0.9612  0.2591
 4658TIP3    H135389   4.817   5.618  12.525 -1.3859 -1.4474 -0.0158
 4658TIP3    H235390   4.797   5.494  12.441  0.2735 -1.1910 -0.7988
 4659TIP3   OH235391   1.392   5.461   5.278  0.6148 -0.0545  0.2959
 4659TIP3    H135392   1.307   5.453   5.321  0.4369 -1.1002 -0.2320
 4659TIP3    H235393   1.456   5.438   5.345  0.5178  1.0329  0.7829
 4660TIP3   OH235394   5.710   5.338   4.719  0.3776  0.3819  0.0912
 4660TIP3    H135395   5.786   5.331   4.660  0.7504 -1.2512  0.7175
 4660TIP3    H235396   5.748   5.348   4.806 -0.1008 -0.6035  0.4282
 4661TIP3   OH235397   5.745   1.518  10.271  0.0732  0.5040  0.2653
 4661TIP3    H135398   5.666   1.481  10.233 -0.5745 -0.4945  2.5031
 4661TIP3    H235399   5.803   1.443  10.283  1.3878  1.2276 -1.3451
 4662TIP3   OH235400   5.693   4.497  16.143 -0.7197  0.3172  0.6958
 4662TIP3    H135401   5.683   4.592  16.130  0.8847  0.3286 -0.6344
 4662TIP3    H235402   5.761   4.472  16.080 -0.4016 -1.5450  1.7704
 4663TIP3   OH235403   1.306   1.098  14.287 -0.6668 -0.0656  0.5609
 4663TIP3    H135404   1.219   1.115  14.322 -1.8377 -2.1009 -1.1884
 4663TIP3    H235405   1.290   1.058  14.201  2.0251  1.1164 -0.5615
 4664TIP3   OH235406   3.457   1.829   0.154 -0.4638  0.0931 -0.1046
 4664TIP3    H135407   3.513   1.770   0.104 -0.4450  0.4858 -0.5515
 4664TIP3    H235408   3.485   1.917   0.127  1.3987  0.3941  2.5747
 4665TIP3   OH235409   2.344   3.100  15.986  0.3618  0.0158  0.0886
 4665TIP3    H135410   2.331   3.008  15.961  1.0743 -0.2514  0.6435
 4665TIP3    H235411   2.400   3.136  15.917  0.8510 -0.2296  0.3505
 4666TIP3   OH235412   4.602   4.171  10.573  0.4416  0.1475 -0.5672
 4666TIP3    H135413   4.676   4.122  10.539 -0.1613 -0.9441 -0.3502
 4666TIP3    H235414   4.533   4.105  10.584 -0.7885  1.2451 -1.4289
 4667TIP3   OH235415   2.701   0.660   2.231 -0.3851  0.2882  0.1291
 4667TIP3    H135416   2.671   0.723   2.297  0.9454  0.4603  0.5927
 4667TIP3    H235417   2.791   0.687   2.212  0.3083 -1.6329  0.5447
 4668TIP3   OH235418   2.655   1.348  15.593  0.0213 -0.5972 -0.4843
 4668TIP3    H135419   2.729   1.361  15.534 -0.7411  0.6084 -1.1820
 4668TIP3    H235420   2.683   1.385  15.676 -0.5658  1.7982 -1.3184
 4669TIP3   OH235421   0.096   1.730   2.708  0.0417 -0.7343  0.1357
 4669TIP3    H135422   0.023   1.781   2.742 -1.4807 -1.3841 -2.0137
 4669TIP3    H235423   0.129   1.782   2.635  1.7132 -0.4787  1.0559
 4670TIP3   OH235424   6.660   2.843  14.707  0.0921 -0.5970 -0.0883
 4670TIP3    H135425   6.656   2.784  14.783  1.0410  1.3208  1.4937
 4670TIP3    H235426   6.744   2.888  14.716 -1.0278  1.6959 -0.7147
 4671TIP3   OH235427   5.524   0.075   0.157 -0.2165  0.0303  0.3691
 4671TIP3    H135428   5.488   0.154   0.116 -0.5904 -0.3043  0.0446
 4671TIP3    H235429   5.456   0.008   0.144  0.2621 -0.4470  0.2842
 4672TIP3   OH235430   6.539   6.505   5.912 -0.2324  0.3813 -0.2813
 4672TIP3    H135431   6.530   6.468   6.000 -3.1281  1.0547 -0.2182
 4672TIP3    H235432   6.483   6.451   5.857  1.1276  0.3077 -1.6214
 4673TIP3   OH235433   0.793   0.117   5.541 -0.3804  0.3963  0.5886
 4673TIP3    H135434   0.715   0.172   5.531 -1.5747 -1.3163  0.2672
 4673TIP3    H235435   0.774   0.039   5.489  1.1032 -0.5057  1.3736
 4674TIP3   OH235436   2.605   0.695   5.563  0.2799 -0.2340 -0.4794
 4674TIP3    H135437   2.560   0.778   5.581 -0.5438 -1.1707  2.0136
 4674TIP3    H235438   2.555   0.656   5.491 -2.0158 -0.5304  1.2148
 4675TIP3   OH235439   5.141   4.864  15.258 -0.4202 -0.6181  0.1604
 4675TIP3    H135440   5.082   4.932  15.225 -0.4202  0.2976  2.0149
 4675TIP3    H235441   5.085   4.788  15.273 -0.8295 -0.2925  0.2882
 4676TIP3   OH235442   1.952   2.734  14.292  0.0789  0.0232 -0.0990
 4676TIP3    H135443   1.957   2.641  14.272  1.5972 -0.0584  0.5789
 4676TIP3    H235444   1.939   2.777  14.208 -0.8730 -0.8124 -0.3825
 4677TIP3   OH235445   3.860   5.982   0.598  0.2141  0.0615 -0.3745
 4677TIP3    H135446   3.827   5.964   0.510  2.8922  1.1508 -1.6624
 4677TIP3    H235447   3.890   5.897   0.630 -1.4935 -0.4849 -0.1613
 4678TIP3   OH235448   2.239   1.784  11.805  1.2271 -0.1417 -0.7014
 4678TIP3    H135449   2.265   1.692  11.807  0.0950 -0.4608 -0.5130
 4678TIP3    H235450   2.232   1.810  11.896  2.5746  0.4339 -0.7523
 4679TIP3   OH235451   0.169   4.148  11.701 -0.0173  0.2400  0.6614
 4679TIP3    H135452   0.189   4.087  11.772 -0.7119  0.1942  0.8260
 4679TIP3    H235453   0.224   4.120  11.628 -1.5096 -1.6014  0.2126
 4680TIP3   OH235454   0.117   2.695   6.172  0.2739 -0.1768 -0.2547
 4680TIP3    H135455   0.028   2.676   6.200  0.3116 -0.0999 -0.0807
 4680TIP3    H235456   0.132   2.786   6.198  0.0733  0.1151 -1.1402
 4681TIP3   OH235457   4.064   5.181   4.452 -0.4249 -0.1072 -0.1365
 4681TIP3    H135458   4.024   5.139   4.528 -1.0191 -0.2238 -0.5082
 4681TIP3    H235459   4.101   5.108   4.402 -0.4163 -0.0735 -0.1784
 4682TIP3   OH235460   2.781   1.254   0.014 -0.6990 -0.7120  0.4828
 4682TIP3    H135461   2.846   1.308  -0.032  1.1772 -2.5303  0.9070
 4682TIP3    H235462   2.744   1.198  -0.054 -1.0133 -0.4660  0.4485
 4683TIP3   OH235463   5.633   3.154  11.279 -0.1942 -0.4139  0.6525
 4683TIP3    H135464   5.552   3.182  11.237  0.1211 -2.5108 -1.4466
 4683TIP3    H235465   5.675   3.096  11.215  2.7962  0.3238  1.8262
 4684TIP3   OH235466   0.605   1.452   5.343 -0.3623 -0.3064  0.4054
 4684TIP3    H135467   0.512   1.467   5.360 -0.1535 -0.8739  2.1632
 4684TIP3    H235468   0.649   1.522   5.391  0.0775  0.8346 -1.6185
 4685TIP3   OH235469   4.955   1.625  15.331  0.5640  0.0877 -0.0295
 4685TIP3    H135470   5.027   1.608  15.392  0.4098 -0.6338 -0.0427
 4685TIP3    H235471   4.900   1.547  15.338 -0.0660  0.5221 -0.2296
 4686TIP3   OH235472   2.289   3.944   2.975 -0.2867  0.1099  0.2492
 4686TIP3    H135473   2.354   3.968   3.041  0.1203 -2.0818  0.6864
 4686TIP3    H235474   2.336   3.890   2.912 -1.1968  0.2806 -0.5945
 4687TIP3   OH235475   6.043   4.620   2.130 -0.0228  0.2166 -0.1034
 4687TIP3    H135476   6.034   4.546   2.190 -3.0749  1.1673  0.6930
 4687TIP3    H235477   6.116   4.595   2.073  0.6464 -2.2710  1.7257
 4688TIP3   OH235478   6.043   3.216   6.280  0.0572 -0.0493 -0.6650
 4688TIP3    H135479   5.957   3.175   6.287 -0.2449  0.5770 -0.6934
 4688TIP3    H235480   6.029   3.306   6.308  0.7473  0.0024 -0.4695
 4689TIP3   OH235481   5.529   5.946  13.476  0.0931  0.3606  0.3486
 4689TIP3    H135482   5.485   5.986  13.402 -0.0543 -0.5782 -0.0806
 4689TIP3    H235483   5.460   5.934  13.541  0.3180  1.6404  0.8461
 4690TIP3   OH235484   2.621   0.982   2.967  0.2852 -0.2243  0.2303
 4690TIP3    H135485   2.587   0.999   2.879  0.1812  1.6412  0.6200
 4690TIP3    H235486   2.626   1.068   3.008  0.7369 -1.0388  1.9150
 4691TIP3   OH235487   2.210   2.410  16.435  0.4469 -0.2773  0.1036
 4691TIP3    H135488   2.260   2.418  16.517  0.9789 -1.6083 -0.0782
 4691TIP3    H235489   2.180   2.319  16.434 -1.7565  0.4262  0.0647
 4692TIP3   OH235490   2.690   3.993   5.212 -0.3260 -1.1266  0.2977
 4692TIP3    H135491   2.726   3.932   5.148 -0.0266 -0.9749  0.3241
 4692TIP3    H235492   2.717   4.080   5.182 -1.2206 -0.9616 -0.0426
 4693TIP3   OH235493   4.657   2.885  11.327  0.2831  0.2141  0.3763
 4693TIP3    H135494   4.641   2.954  11.263  0.5433 -0.8191 -0.8076
 4693TIP3    H235495   4.654   2.804  11.277 -0.1954 -0.6522  1.7971
 4694TIP3   OH235496   2.537   5.582  11.992 -0.5732  0.3530 -0.1022
 4694TIP3    H135497   2.491   5.611  12.071  1.5528  1.5485  0.7324
 4694TIP3    H235498   2.627   5.566  12.020 -0.7933 -3.7628 -1.2936
 4695TIP3   OH235499   6.345   4.419   2.906 -0.0217  0.6218 -0.2006
 4695TIP3    H135500   6.323   4.395   2.996  1.2837 -0.6990 -0.2304
 4695TIP3    H235501   6.313   4.509   2.897  0.5957  1.0664  1.8521
 4696TIP3   OH235502   0.635   4.826   4.459 -0.4871  0.0394 -0.1340
 4696TIP3    H135503   0.614   4.877   4.538 -1.0093 -0.5687  0.1167
 4696TIP3    H235504   0.570   4.854   4.394 -2.1511 -1.8770  0.6581
 4697TIP3   OH235505   0.457   6.389  13.417  0.3315 -0.2039  0.1626
 4697TIP3    H135506   0.482   6.409  13.507  2.6022 -0.3116 -0.4154
 4697TIP3    H235507   0.522   6.436  13.364 -0.9319 -0.2198 -1.4052
 4698TIP3   OH235508   0.827   2.963  12.191  0.1084 -0.1130  0.0549
 4698TIP3    H135509   0.766   3.028  12.225  0.1957  0.0688 -0.1406
 4698TIP3    H235510   0.840   2.902  12.264  0.1160  0.1499  0.2733
 4699TIP3   OH235511   2.064   4.831  11.537 -0.2095  0.1683  0.1779
 4699TIP3    H135512   2.016   4.914  11.539 -1.7944 -0.7405  0.8561
 4699TIP3    H235513   1.999   4.765  11.559  1.2502 -1.1625  0.6124
 4700TIP3   OH235514   3.387   2.399   0.299 -0.8694 -0.6863  0.6663
 4700TIP3    H135515   3.467   2.434   0.340 -0.9697 -0.0602  0.3251
 4700TIP3    H235516   3.316   2.431   0.355 -1.0784  0.9044 -0.4711
 4701TIP3   OH235517   1.864   0.499  15.249 -0.1335  0.5915  0.2603
 4701TIP3    H135518   1.920   0.547  15.309  0.3939  1.1811 -0.6904
 4701TIP3    H235519   1.924   0.467  15.181 -0.6242 -0.5831  0.3623
 4702TIP3   OH235520   0.423   3.338  11.274  0.2999 -0.3546 -0.2160
 4702TIP3    H135521   0.337   3.323  11.314 -0.3300 -0.3533 -1.5482
 4702TIP3    H235522   0.452   3.251  11.247 -0.1233 -0.1330 -1.4324
 4703TIP3   OH235523   5.485   1.425   3.691 -0.0580  0.4683 -0.4945
 4703TIP3    H135524   5.444   1.418   3.605  0.5171 -1.4677 -0.6461
 4703TIP3    H235525   5.417   1.398   3.753 -0.3968  1.6203 -0.3670
 4704TIP3   OH235526   5.061   3.914  12.559  0.3046  1.2454  0.6811
 4704TIP3    H135527   5.021   3.894  12.644 -0.7944 -1.0837 -0.3268
 4704TIP3    H235528   5.096   3.830  12.529  0.6631  2.0340 -1.1714
 4705TIP3   OH235529   5.589   5.659   3.575  0.1227  0.4826  0.2654
 4705TIP3    H135530   5.681   5.682   3.558  0.5672 -2.3521 -1.5491
 4705TIP3    H235531   5.588   5.633   3.667  1.7791 -2.1854 -0.4266
 4706TIP3   OH235532   1.605   5.337  13.382  0.0688 -0.2786  0.7409
 4706TIP3    H135533   1.597   5.317  13.289 -1.6620  0.8789  0.6300
 4706TIP3    H235534   1.692   5.304  13.406 -0.3035 -2.4388 -0.7933
 4707TIP3   OH235535   0.424   2.678   5.865  0.0353 -0.6124 -0.1832
 4707TIP3    H135536   0.329   2.682   5.850  0.0496 -0.4830 -0.2384
 4707TIP3    H235537   0.457   2.760   5.829  0.2183 -0.8349 -0.5218
 4708TIP3   OH235538   4.716   4.207   1.934  0.3621 -0.0441 -0.0119
 4708TIP3    H135539   4.732   4.129   1.987  0.4244 -0.2977 -0.3981
 4708TIP3    H235540   4.646   4.182   1.874 -1.8328  1.2041  1.9463
 4709TIP3   OH235541   4.436   3.705  13.169 -0.0542 -0.1732 -0.1176
 4709TIP3    H135542   4.385   3.635  13.129 -3.3057  2.4789 -0.8702
 4709TIP3    H235543   4.378   3.741  13.236  2.1726  0.7613  1.3445
 4710TIP3   OH235544   2.366   4.412  13.234  1.0455  0.3859  0.2498
 4710TIP3    H135545   2.293   4.419  13.172  0.5626 -0.7977  0.6659
 4710TIP3    H235546   2.348   4.332  13.283  1.9432  0.7933  1.2594
 4711TIP3   OH235547   1.644   1.348  11.784  0.8253  0.0783  0.1571
 4711TIP3    H135548   1.580   1.307  11.727  1.3999  1.1683 -1.3023
 4711TIP3    H235549   1.725   1.300  11.768  0.4778 -1.1434  1.8252
 4712TIP3   OH235550   6.731   4.316  11.694  0.2643 -0.7085 -0.2343
 4712TIP3    H135551   6.702   4.344  11.607 -0.5663 -1.4269 -0.1932
 4712TIP3    H235552   6.817   4.276  11.679  0.0997 -0.8756 -0.7304
 4713TIP3   OH235553   5.573   6.644  14.854  0.5964  0.0577  0.2898
 4713TIP3    H135554   5.641   6.631  14.789  0.6796 -2.4444  0.8072
 4713TIP3    H235555   5.492   6.620  14.809  0.5366 -0.7317  0.8168
 4714TIP3   OH235556   4.126   2.639   4.344  0.0964 -0.6875  0.4483
 4714TIP3    H135557   4.045   2.682   4.370 -0.4003 -0.7983 -0.8675
 4714TIP3    H235558   4.132   2.654   4.250  3.3027  2.2290  0.9712
 4715TIP3   OH235559   1.103   4.056   2.133  0.1481 -0.0179  0.6499
 4715TIP3    H135560   1.073   4.108   2.059  1.3001 -1.0043 -0.5349
 4715TIP3    H235561   1.027   4.051   2.191 -0.0082  2.9361  0.8046
 4716TIP3   OH235562   3.062   2.810   1.180  0.1612 -0.1088 -0.1328
 4716TIP3    H135563   3.011   2.791   1.102 -0.1774 -0.6284  0.2102
 4716TIP3    H235564   3.061   2.728   1.230  0.0371  0.3304  0.6029
 4717TIP3   OH235565   3.877   2.518  13.807 -0.2411  0.0927 -0.5433
 4717TIP3    H135566   3.903   2.539  13.897  0.5005 -1.9422 -0.2482
 4717TIP3    H235567   3.939   2.564  13.752  0.9380 -0.7520  0.0619
 4718TIP3   OH235568   0.529   2.733   0.330 -0.3256  0.5923  0.3570
 4718TIP3    H135569   0.434   2.743   0.323 -0.1810  1.2005 -0.9610
 4718TIP3    H235570   0.551   2.765   0.417 -1.1746  1.6574  0.1822
 4719TIP3   OH235571   5.793   0.509   4.855  0.3037  0.0923 -0.4047
 4719TIP3    H135572   5.864   0.574   4.856  0.3850  0.0070 -0.4836
 4719TIP3    H235573   5.833   0.432   4.813  0.0278  0.2039 -0.8734
 4720TIP3   OH235574   0.176   6.258  12.828 -0.1644 -0.5053  0.1106
 4720TIP3    H135575   0.224   6.176  12.829 -1.6948 -1.4194  0.5719
 4720TIP3    H235576   0.199   6.299  12.745  1.3577 -0.9379  0.3138
 4721TIP3   OH235577   6.086   4.819  15.844 -0.3457 -0.8551 -0.5224
 4721TIP3    H135578   6.015   4.882  15.844  0.5955  0.2236  0.6629
 4721TIP3    H235579   6.128   4.829  15.759 -0.4857 -0.2172 -0.5131
 4722TIP3   OH235580   1.497   0.692  16.857  0.4076  0.0440 -0.3351
 4722TIP3    H135581   1.500   0.786  16.839  0.8658 -0.3294 -2.3270
 4722TIP3    H235582   1.404   0.670  16.856  0.2213  0.6722  1.3351
 4723TIP3   OH235583   2.378   1.454  12.075  0.0679 -0.3737 -0.2228
 4723TIP3    H135584   2.353   1.500  12.155 -0.2195  0.1805 -0.6234
 4723TIP3    H235585   2.467   1.484  12.056 -0.7041  1.2803 -1.3628
 4724TIP3   OH235586   4.736   4.941   3.851  0.0384  0.0569 -0.4955
 4724TIP3    H135587   4.831   4.949   3.858  0.1785  0.6407 -2.8421
 4724TIP3    H235588   4.703   5.025   3.882  0.3155  0.1766 -0.5248
 4725TIP3   OH235589   6.507   0.845   3.276 -0.0101 -0.0836  0.3641
 4725TIP3    H135590   6.452   0.922   3.291 -0.6350 -0.8905  2.4590
 4725TIP3    H235591   6.532   0.850   3.184 -1.7988  1.4725 -0.0651
 4726TIP3   OH235592   4.232   5.928   4.882  0.3730 -0.0895 -0.1020
 4726TIP3    H135593   4.299   5.963   4.941  0.5590  0.5779 -0.6936
 4726TIP3    H235594   4.276   5.857   4.835 -0.0359 -1.2228  1.1806
 4727TIP3   OH235595   3.914   5.722   6.137 -0.5245 -0.0858  0.1681
 4727TIP3    H135596   3.922   5.632   6.169  1.1126 -0.5944 -1.6023
 4727TIP3    H235597   3.917   5.775   6.217 -0.0249 -1.5009  1.1266
 4728TIP3   OH235598   2.910   2.301   2.920  0.0151  0.0904  0.0387
 4728TIP3    H135599   2.928   2.395   2.922  0.6607 -0.0343  0.2891
 4728TIP3    H235600   2.991   2.260   2.952 -1.1433 -0.4338  2.4231
 4729TIP3   OH235601   5.331   1.169  14.569  0.1147  0.3283  0.5306
 4729TIP3    H135602   5.307   1.261  14.558  0.8844  0.4600 -0.0351
 4729TIP3    H235603   5.424   1.171  14.593  0.7050 -0.4151 -1.6390
 4730TIP3   OH235604   0.435   6.319  13.738  0.0758 -0.7905  0.2414
 4730TIP3    H135605   0.360   6.275  13.699  0.8348 -1.0733 -0.9279
 4730TIP3    H235606   0.474   6.253  13.795 -1.6929 -0.0140  2.3970
 4731TIP3   OH235607   1.754   6.733  16.430  0.1214  0.3072 -0.2735
 4731TIP3    H135608   1.795   6.726  16.344  0.6254 -0.8339  0.0416
 4731TIP3    H235609   1.779   6.651  16.474 -1.0921  0.3649  0.5289
 4732TIP3   OH235610   0.040   1.526  16.627 -0.3003  0.1251 -0.2093
 4732TIP3    H135611   0.022   1.524  16.721  0.1112  2.4933 -0.0574
 4732TIP3    H235612   0.117   1.471  16.615 -1.4879 -1.7534  0.5467
 4733TIP3   OH235613   0.312   6.766  12.353  0.0382  0.1808 -0.2126
 4733TIP3    H135614   0.384   6.781  12.414  0.0995  0.2080 -0.2928
 4733TIP3    H235615   0.342   6.804  12.271  0.4919 -0.9835 -0.6044
 4734TIP3   OH235616   4.495   2.371   4.329  0.0017 -0.4255 -0.6005
 4734TIP3    H135617   4.414   2.343   4.371  1.4514 -2.5606  0.8927
 4734TIP3    H235618   4.506   2.462   4.356 -1.3720 -0.4186 -0.0154
 4735TIP3   OH235619   1.205   3.803   5.316 -0.9052  0.3869  0.1161
 4735TIP3    H135620   1.289   3.760   5.302  0.4529  2.2982  2.1586
 4735TIP3    H235621   1.223   3.874   5.378 -3.7369  1.7879 -0.5575
 4736TIP3   OH235622   4.763   2.843  13.745  0.2595 -0.1309 -0.0575
 4736TIP3    H135623   4.703   2.914  13.721 -0.1871  0.1399  1.8174
 4736TIP3    H235624   4.798   2.869  13.830  0.2605 -2.0442  0.5483
 4737TIP3   OH235625   4.710   2.091   2.117 -0.1728 -0.3434 -0.2245
 4737TIP3    H135626   4.680   2.013   2.165 -0.5111  0.6424  1.1847
 4737TIP3    H235627   4.645   2.158   2.136 -0.2534  0.1086 -2.0020
 4738TIP3   OH235628   6.345   5.592  16.139 -0.7935 -0.2884 -0.1149
 4738TIP3    H135629   6.327   5.530  16.068 -1.4003  0.4400 -0.6019
 4738TIP3    H235630   6.285   5.665  16.124 -0.3312  0.2679  0.6566
 4739TIP3   OH235631   0.259   2.567  13.005  0.4269  0.6987 -0.0720
 4739TIP3    H135632   0.327   2.634  12.998  0.4756  0.7727  1.0422
 4739TIP3    H235633   0.181   2.616  13.031 -0.0084  0.5843 -1.1277
 4740TIP3   OH235634   2.292   5.063   0.724 -0.2945  0.2585 -0.3375
 4740TIP3    H135635   2.245   5.081   0.642  0.7278 -1.1966 -1.2508
 4740TIP3    H235636   2.258   4.978   0.753  1.1854 -0.4161 -0.5712
 4741TIP3   OH235637   6.260   3.378   4.882 -0.3312  0.5468  0.0609
 4741TIP3    H135638   6.286   3.293   4.848 -3.5859 -0.0564 -1.1467
 4741TIP3    H235639   6.215   3.357   4.964 -1.0731  1.0821 -0.2043
 4742TIP3   OH235640   4.301   4.858  14.987 -0.3492 -0.3226  0.0732
 4742TIP3    H135641   4.245   4.791  15.026 -2.3425  0.5333 -1.2455
 4742TIP3    H235642   4.296   4.931  15.049  1.5517 -1.2344  1.3397
 4743TIP3   OH235643   2.909   4.321   5.274 -0.3860  0.2897 -0.3978
 4743TIP3    H135644   3.001   4.327   5.302 -0.4195 -1.1389  0.0560
 4743TIP3    H235645   2.859   4.340   5.354 -0.4772  0.4961 -0.5055
 4744TIP3   OH235646   0.429   2.126  14.543  0.1071 -0.1453  0.5608
 4744TIP3    H135647   0.448   2.047  14.493 -2.0721 -0.9408  0.9583
 4744TIP3    H235648   0.407   2.192  14.478  3.5034  0.6412  0.1199
 4745TIP3   OH235649   6.304   3.573   1.171  0.0673 -0.1386 -0.3377
 4745TIP3    H135650   6.220   3.532   1.151 -0.6694  1.8197 -1.4343
 4745TIP3    H235651   6.284   3.666   1.179  1.6964  0.0560  2.0333
 4746TIP3   OH235652   5.190   2.555   0.762 -0.0062 -0.2871  0.1869
 4746TIP3    H135653   5.176   2.461   0.771  1.6980 -0.6537 -0.7937
 4746TIP3    H235654   5.128   2.582   0.694  0.2326 -0.9114 -0.2882
 4747TIP3   OH235655   3.107   4.104  16.070  0.3354 -0.4431 -0.3712
 4747TIP3    H135656   3.109   4.165  15.997 -2.1537  1.7254  1.3044
 4747TIP3    H235657   3.057   4.029  16.038  0.3397 -0.0615 -1.2830
 4748TIP3   OH235658   0.337   4.580   5.162 -0.1502  0.4424  0.3047
 4748TIP3    H135659   0.294   4.554   5.243 -1.2144  1.1270 -0.0228
 4748TIP3    H235660   0.428   4.596   5.186 -0.6449  1.4706  1.5363
 4749TIP3   OH235661   4.577   2.917   4.437 -0.0515  0.4507 -0.1629
 4749TIP3    H135662   4.560   2.951   4.349 -0.7445  0.8582  0.1165
 4749TIP3    H235663   4.659   2.958   4.464  0.9403 -0.8440 -1.2007
 4750TIP3   OH235664   2.037   3.699  16.367  0.7698  0.1899 -0.3515
 4750TIP3    H135665   2.055   3.715  16.274 -0.6470  0.6877 -0.5570
 4750TIP3    H235666   2.070   3.777  16.411  2.7772 -0.6920 -0.2628
 4751TIP3   OH235667   3.580   6.586  12.184 -0.5319 -0.1930  0.6599
 4751TIP3    H135668   3.546   6.501  12.155  0.4348  0.0114 -1.1463
 4751TIP3    H235669   3.642   6.565  12.254  0.2874 -1.0375 -0.3162
 4752TIP3   OH235670   1.201   0.743   1.478  0.1248 -0.1884  0.4489
 4752TIP3    H135671   1.199   0.837   1.494 -0.4872 -0.0865 -0.2236
 4752TIP3    H235672   1.269   0.710   1.537  1.0226  0.8004 -0.0280
 4753TIP3   OH235673   5.571   5.010  14.705  0.3029  0.3535 -0.4244
 4753TIP3    H135674   5.643   5.009  14.769 -0.7311  0.1284  0.7462
 4753TIP3    H235675   5.544   4.919  14.697 -0.4736  0.5561 -0.1515
 4754TIP3   OH235676   0.235   5.497   0.395  0.3227  0.1059  0.1483
 4754TIP3    H135677   0.268   5.471   0.480  3.1451 -0.0865 -0.9579
 4754TIP3    H235678   0.301   5.557   0.360 -0.6983  0.0845 -1.9422
 4755TIP3   OH235679   4.063   3.036  13.733  0.4718 -0.1917  0.3622
 4755TIP3    H135680   4.131   2.971  13.752 -0.6152 -1.0122  1.5460
 4755TIP3    H235681   3.982   2.985  13.729 -0.0980  0.8064 -0.8421
 4756TIP3   OH235682   0.687   5.131  15.381  0.2469  0.7528 -0.5745
 4756TIP3    H135683   0.742   5.086  15.317  0.7391 -1.0266  1.0293
 4756TIP3    H235684   0.748   5.160  15.449 -0.4099  1.5314 -0.3131
 4757TIP3   OH235685   2.951   0.195  15.162  0.4033 -0.6428  0.4716
 4757TIP3    H135686   2.945   0.275  15.109  0.7387 -0.1093  1.2300
 4757TIP3    H235687   3.017   0.142  15.117 -1.9247 -1.8073 -1.7193
 4758TIP3   OH235688   6.638   3.985  15.908 -0.0627 -0.0907 -0.3821
 4758TIP3    H135689   6.638   4.053  15.974 -1.1415 -0.4348 -0.0185
 4758TIP3    H235690   6.550   3.988  15.869 -0.3186 -1.6230  0.0193
 4759TIP3   OH235691   4.935   5.058   4.215 -0.1728  0.0189  0.0944
 4759TIP3    H135692   5.009   5.007   4.184 -0.2944 -0.5024  0.6523
 4759TIP3    H235693   4.879   4.995   4.261 -1.3138  0.2657 -0.9213
 4760TIP3   OH235694   5.665   1.937   5.942 -0.1320  0.1625  0.1882
 4760TIP3    H135695   5.576   1.944   5.909 -0.4991 -2.1535  0.5858
 4760TIP3    H235696   5.655   1.902   6.030  1.1302  0.6113  0.5170
 4761TIP3   OH235697   1.325   3.334  13.088  0.3029 -0.3967  0.0656
 4761TIP3    H135698   1.272   3.359  13.163 -0.7063 -0.1198 -0.7248
 4761TIP3    H235699   1.264   3.290  13.029  0.7242  0.7401 -1.2640
 4762TIP3   OH235700   1.338   4.319   5.912 -0.1487  0.1483  0.0948
 4762TIP3    H135701   1.296   4.291   5.831 -0.1327 -0.3581  0.2585
 4762TIP3    H235702   1.407   4.379   5.883 -0.3309  0.1977 -0.2444
 4763TIP3   OH235703   0.996   2.771   4.590  0.0360 -0.1716  0.4815
 4763TIP3    H135704   0.950   2.854   4.601 -1.2106 -0.6521 -0.9772
 4763TIP3    H235705   1.039   2.756   4.675 -2.0199  0.5791  1.6902
 4764TIP3   OH235706   5.713   3.960   0.180  0.5888 -0.0166  0.1029
 4764TIP3    H135707   5.775   4.028   0.206  1.8863 -1.8654  1.9945
 4764TIP3    H235708   5.750   3.879   0.214 -1.9878 -1.4095 -0.2615
 4765TIP3   OH235709   0.118   4.867   1.071 -0.2286 -0.2749  0.6106
 4765TIP3    H135710   0.185   4.813   1.029 -2.5532 -2.8726  0.0431
 4765TIP3    H235711   0.099   4.936   1.007 -0.9647 -1.9236 -1.0163
 4766TIP3   OH235712   6.345   4.254   6.337 -0.6555 -0.0166 -0.1181
 4766TIP3    H135713   6.364   4.269   6.430  0.6011 -0.2972 -0.3132
 4766TIP3    H235714   6.432   4.245   6.297 -1.2336 -1.7000 -1.0178
 4767TIP3   OH235715   1.792   1.325   2.920  0.2797 -0.4906  0.6326
 4767TIP3    H135716   1.698   1.326   2.902  0.6025 -2.3439 -1.4193
 4767TIP3    H235717   1.801   1.273   3.000 -0.5702  1.2724  1.8993
 4768TIP3   OH235718   4.724   3.826   2.334 -0.1364  0.4162 -0.0823
 4768TIP3    H135719   4.723   3.753   2.273  2.3224  0.0983  0.2056
 4768TIP3    H235720   4.763   3.898   2.285  1.1939  0.3583  0.8759
 4769TIP3   OH235721   4.424   0.686  15.158  0.3620  0.1958  0.2856
 4769TIP3    H135722   4.329   0.681  15.148  0.5695 -0.9505 -1.3085
 4769TIP3    H235723   4.450   0.759  15.102  0.5808 -0.4567 -0.4639
 4770TIP3   OH235724   4.814   1.619   0.926  1.1285  0.1862 -0.0808
 4770TIP3    H135725   4.740   1.673   0.954  1.3422  0.2214  0.4115
 4770TIP3    H235726   4.867   1.607   1.004  2.0148  0.7406 -0.5911
 4771TIP3   OH235727   0.632   4.276   3.504  0.3180  0.1533 -0.4993
 4771TIP3    H135728   0.609   4.248   3.592  2.9338 -0.2852  0.0696
 4771TIP3    H235729   0.631   4.196   3.452  0.0166  0.2212 -0.5999
 4772TIP3   OH235730   0.758   0.544   2.257 -0.0581 -0.1461  0.4814
 4772TIP3    H135731   0.679   0.597   2.253 -0.3351 -0.4951  1.1407
 4772TIP3    H235732   0.790   0.555   2.346 -0.8787 -2.1415  1.0543
 4773TIP3   OH235733   3.530   2.994   0.489 -0.0850  0.2570  0.2259
 4773TIP3    H135734   3.526   2.949   0.405  0.6534 -0.4568  0.5765
 4773TIP3    H235735   3.622   2.993   0.513 -0.3025  0.4084  1.0783
 4774TIP3   OH235736   5.740   2.131  13.697 -0.1726  0.1247  0.0558
 4774TIP3    H135737   5.668   2.162  13.642 -0.5785 -1.2268 -0.2178
 4774TIP3    H235738   5.819   2.153  13.649 -0.4936 -0.2179 -0.6468
 4775TIP3   OH235739   1.692   4.914  14.977 -0.0051 -1.0704  0.1556
 4775TIP3    H135740   1.681   5.005  15.005 -0.2986 -0.8763 -0.5596
 4775TIP3    H235741   1.606   4.889  14.943  0.7181 -0.7890 -1.9737
 4776TIP3   OH235742   6.140   6.578  13.946 -0.3690 -0.1366  0.0760
 4776TIP3    H135743   6.123   6.636  14.020 -1.0161  0.5031 -0.5647
 4776TIP3    H235744   6.053   6.552  13.916 -0.1013 -2.9479  1.4951
 4777TIP3   OH235745   6.416   3.782   2.979  0.1753 -0.1474  0.3449
 4777TIP3    H135746   6.446   3.708   3.032  1.5756  1.1531  1.3818
 4777TIP3    H235747   6.449   3.763   2.891  0.3107 -0.8739  0.5452
 4778TIP3   OH235748   1.466   4.666   0.092 -0.0124  0.5522 -0.1790
 4778TIP3    H135749   1.396   4.635   0.035  0.8769  1.2510 -1.6670
 4778TIP3    H235750   1.449   4.623   0.176 -1.2457 -0.6013 -1.0020
 4779TIP3   OH235751   2.516   0.526  11.297  0.5465 -0.1851 -0.2246
 4779TIP3    H135752   2.576   0.453  11.281  1.7951  0.3771  1.7868
 4779TIP3    H235753   2.571   0.594  11.335 -0.7460  1.5686 -1.4172
 4780TIP3   OH235754   4.909   4.896   0.617 -0.5960 -0.0589  0.8055
 4780TIP3    H135755   4.890   4.843   0.539  1.6563  1.6264 -0.9690
 4780TIP3    H235756   4.841   4.964   0.617  0.3887  0.9790 -0.7601
 4781TIP3   OH235757   5.364   6.681  14.288 -0.0832  0.6307  0.0064
 4781TIP3    H135758   5.427   6.753  14.281  0.7078 -0.2209 -2.0565
 4781TIP3    H235759   5.314   6.686  14.206  0.5801 -1.7169 -0.5545
 4782TIP3   OH235760   4.902   5.286  15.636 -0.1406  0.2891  0.6358
 4782TIP3    H135761   4.927   5.253  15.550 -0.0859 -1.0008  1.1421
 4782TIP3    H235762   4.807   5.275  15.639  0.0034 -0.7888  1.2100
 4783TIP3   OH235763   3.675   1.564  15.021 -0.2913 -0.0684 -0.0266
 4783TIP3    H135764   3.629   1.618  14.956  0.1811  0.8577  0.4048
 4783TIP3    H235765   3.661   1.609  15.104  1.4868  0.2747  0.1013
 4784TIP3   OH235766   5.482   4.683   5.803 -0.0772 -0.0655 -0.5410
 4784TIP3    H135767   5.551   4.617   5.804 -0.6884 -0.6973  0.3244
 4784TIP3    H235768   5.489   4.727   5.888  0.3705  1.0424 -1.1356
 4785TIP3   OH235769   6.331   2.286  12.397  0.6066  0.1640  0.5392
 4785TIP3    H135770   6.255   2.345  12.388  1.6841  1.5432  0.2038
 4785TIP3    H235771   6.308   2.209  12.345 -0.1407  1.0331 -0.4521
 4786TIP3   OH235772   3.334   6.020   5.561 -0.7713  0.2731  0.3395
 4786TIP3    H135773   3.262   5.959   5.576  1.0040 -1.5963  1.4706
 4786TIP3    H235774   3.339   6.071   5.642 -0.3145 -0.1501  0.5805
 4787TIP3   OH235775   3.236   2.413  16.294  0.1128 -0.2133  0.3962
 4787TIP3    H135776   3.173   2.392  16.363 -1.7049  0.1049 -1.1272
 4787TIP3    H235777   3.322   2.398  16.335 -0.9389 -1.3728  2.2774
 4788TIP3   OH235778   4.985   4.450   3.526  0.3943 -0.0923  0.0518
 4788TIP3    H135779   4.905   4.458   3.577  0.5487  0.2084  0.2417
 4788TIP3    H235780   5.055   4.453   3.590  0.5082 -1.6094  0.0117
 4789TIP3   OH235781   4.214   1.431  12.784 -0.2667 -0.1835 -0.2696
 4789TIP3    H135782   4.176   1.344  12.798  0.9655 -0.9644 -1.5872
 4789TIP3    H235783   4.149   1.476  12.729 -0.9087 -0.2676  0.4123
 4790TIP3   OH235784   4.863   4.470  15.055 -0.2400  0.3159  0.6054
 4790TIP3    H135785   4.811   4.497  14.980 -0.4875 -0.4922  0.4807
 4790TIP3    H235786   4.854   4.543  15.117  1.1519  1.6300 -0.7101
 4791TIP3   OH235787   3.597   0.979  13.176  0.0237 -0.2675  0.8681
 4791TIP3    H135788   3.518   0.925  13.173 -0.2708  0.2012 -0.8661
 4791TIP3    H235789   3.641   0.960  13.093  1.3733  0.0001  1.5244
 4792TIP3   OH235790   4.112   6.436   3.362 -0.4798  0.7354  0.4589
 4792TIP3    H135791   4.120   6.488   3.282  0.6439 -0.4924 -0.2452
 4792TIP3    H235792   4.050   6.367   3.340 -1.6581  1.5231  1.2666
 4793TIP3   OH235793   5.312   5.970   1.673  0.2319 -0.0202 -0.0446
 4793TIP3    H135794   5.230   6.018   1.685  0.0976 -0.6510  1.8297
 4793TIP3    H235795   5.285   5.880   1.658  0.5389  0.1211 -1.4693
 4794TIP3   OH235796   0.380   1.148   2.509  0.6851  0.1152  0.3034
 4794TIP3    H135797   0.403   1.063   2.548  2.0740  1.2369  2.0039
 4794TIP3    H235798   0.451   1.206   2.534  0.2531  1.5614 -1.7036
 4795TIP3   OH235799   3.144   4.586   1.405  0.9063  0.1941 -0.0361
 4795TIP3    H135800   3.118   4.640   1.479  1.0247  1.4533 -0.9107
 4795TIP3    H235801   3.061   4.561   1.363  0.8937  0.3554 -0.1050
 4796TIP3   OH235802   3.630   3.046  12.580  0.3497 -0.5745  0.3669
 4796TIP3    H135803   3.679   2.976  12.624  0.0762 -1.6255 -0.9849
 4796TIP3    H235804   3.555   3.061  12.637  1.4780  0.0729  1.7307
 4797TIP3   OH235805   4.648   4.317  11.216 -0.1013  0.1887  0.2997
 4797TIP3    H135806   4.717   4.355  11.271 -0.2638  0.5344  0.2688
 4797TIP3    H235807   4.618   4.390  11.163 -1.9461  0.5664  1.8059
 4798TIP3   OH235808   6.214   0.789   2.222 -0.2205  0.5296  0.0293
 4798TIP3    H135809   6.266   0.788   2.303  1.1537 -0.0892 -0.8388
 4798TIP3    H235810   6.155   0.864   2.233 -0.0510  0.4669  1.5973
 4799TIP3   OH235811   5.063   5.235   4.403  0.4463  0.4498 -0.0495
 4799TIP3    H135812   5.018   5.177   4.341  1.5701 -1.4070  0.8369
 4799TIP3    H235813   4.994   5.268   4.459 -0.2595  0.2541 -0.7860
 4800TIP3   OH235814   1.508   5.277   0.747 -0.1253 -0.2307  0.0277
 4800TIP3    H135815   1.579   5.272   0.811 -1.2486  0.7049  1.3546
 4800TIP3    H235816   1.439   5.220   0.782  0.5565 -2.4288 -2.0621
 4801TIP3   OH235817   6.394   3.443  13.016 -0.0756 -0.7472 -0.3745
 4801TIP3    H135818   6.426   3.366  12.968 -1.0930  0.5790 -3.2895
 4801TIP3    H235819   6.458   3.511  12.997 -0.3643 -0.2783  0.3568
 4802TIP3   OH235820   2.063   4.970   2.906 -0.0741  0.1356  0.5069
 4802TIP3    H135821   2.090   4.885   2.871 -0.4942 -0.9065  2.6076
 4802TIP3    H235822   1.974   4.981   2.874 -0.5989 -0.9905  1.5176
 4803TIP3   OH235823   1.186   3.596  11.830 -0.3232  0.3955 -0.6147
 4803TIP3    H135824   1.151   3.596  11.741  0.1036  0.8428 -0.7894
 4803TIP3    H235825   1.281   3.594  11.819 -0.2958 -1.3388 -0.1341
 4804TIP3   OH235826   3.699   4.935   2.567  0.3527 -0.3206 -0.0774
 4804TIP3    H135827   3.638   4.940   2.493 -0.7209  0.8175  0.8528
 4804TIP3    H235828   3.764   4.870   2.541  0.6822  0.9386 -2.5372
 4805TIP3   OH235829   5.823   1.857   2.747 -0.3043  0.0737  0.3242
 4805TIP3    H135830   5.871   1.775   2.747  1.3947  1.0120  2.4069
 4805TIP3    H235831   5.733   1.833   2.770 -0.6922 -1.6000 -2.7814
 4806TIP3   OH235832   2.359   6.627   5.385  0.4357  0.0100 -0.3239
 4806TIP3    H135833   2.436   6.684   5.379 -0.6800  1.4216 -1.6897
 4806TIP3    H235834   2.294   6.670   5.329 -2.3741  0.4631  3.1413
 4807TIP3   OH235835   4.183   4.645   5.908 -0.5615 -0.0986 -0.0780
 4807TIP3    H135836   4.256   4.632   5.969 -0.3029  0.0692 -0.3465
 4807TIP3    H235837   4.105   4.619   5.957 -0.0287 -3.1902 -0.7284
 4808TIP3   OH235838   0.476   0.573   2.665 -0.4653 -0.3001  0.0350
 4808TIP3    H135839   0.510   0.514   2.598  1.2155  1.1009 -0.3623
 4808TIP3    H235840   0.529   0.555   2.742  0.0634  0.7017 -0.0952
 4809TIP3   OH235841   1.822   2.251  11.202  0.0722  0.9068  0.5612
 4809TIP3    H135842   1.762   2.313  11.158  0.8693  1.9385  0.8992
 4809TIP3    H235843   1.766   2.205  11.265 -0.1363  2.7889  1.8065
 4810TIP3   OH235844   3.680   6.726  16.090 -0.0381 -0.2295  0.1580
 4810TIP3    H135845   3.646   6.644  16.125  0.0148 -0.0628  0.5945
 4810TIP3    H235846   3.602   6.780  16.073 -0.2226 -1.1502 -2.1089
 4811TIP3   OH235847   5.850   6.589   0.376 -0.7509  0.0072 -0.3990
 4811TIP3    H135848   5.763   6.550   0.364 -1.8639  2.6023 -1.1932
 4811TIP3    H235849   5.840   6.680   0.346  1.4359  1.2468  2.3972
 4812TIP3   OH235850   6.626   2.514   2.247  0.2924 -0.4069  0.5028
 4812TIP3    H135851   6.670   2.583   2.197 -0.5061  1.5339  2.3888
 4812TIP3    H235852   6.549   2.492   2.196  0.9171 -0.4162 -0.4565
 4813TIP3   OH235853   3.666   4.873  16.907 -0.0929  0.4180 -0.4547
 4813TIP3    H135854   3.660   4.801  16.970 -0.6854 -1.1431 -2.2398
 4813TIP3    H235855   3.724   4.840  16.838 -0.0789  1.8029 -1.1327
 4814TIP3   OH235856   3.937   6.175   2.190  0.3196 -0.6942  0.0071
 4814TIP3    H135857   3.916   6.130   2.108  0.8002 -0.5253 -0.2135
 4814TIP3    H235858   4.017   6.224   2.170  1.0181 -1.4758  0.8743
 4815TIP3   OH235859   5.472   5.469  14.183  0.5768  0.1481 -0.1871
 4815TIP3    H135860   5.443   5.381  14.159  2.4497 -0.5957  0.1854
 4815TIP3    H235861   5.393   5.513  14.214 -0.3428 -1.4774 -0.1675
 4816TIP3   OH235862   2.755   6.437  12.666  0.4225  0.2277  0.1811
 4816TIP3    H135863   2.747   6.443  12.761  0.5380 -0.2036  0.2198
 4816TIP3    H235864   2.706   6.512  12.632  0.0370  0.1495  0.5666
 4817TIP3   OH235865   6.248   2.578   0.949  0.3850 -0.3601 -0.3430
 4817TIP3    H135866   6.245   2.668   0.917  0.1086 -0.2208  0.0594
 4817TIP3    H235867   6.341   2.560   0.961  0.5011 -0.4774 -1.3759
 4818TIP3   OH235868   6.353   5.294  13.032  0.5503  0.6419 -0.4368
 4818TIP3    H135869   6.356   5.383  13.065  1.9175  0.6248 -0.4522
 4818TIP3    H235870   6.404   5.243  13.096  0.3339 -0.0057 -0.7705
 4819TIP3   OH235871   6.224   4.276   4.172 -0.2160 -0.6321 -0.5171
 4819TIP3    H135872   6.202   4.288   4.264  0.1501 -0.4728 -0.4479
 4819TIP3    H235873   6.295   4.340   4.156  2.0626 -2.9571 -0.0424
 4820TIP3   OH235874   3.629   3.278   4.365  0.6098 -0.0891  0.1655
 4820TIP3    H135875   3.687   3.299   4.292  1.4631  2.6815  1.5262
 4820TIP3    H235876   3.544   3.264   4.325  1.1891  0.7810 -1.4417
 4821TIP3   OH235877   4.154   6.405  15.827  0.0644  0.4019  0.1571
 4821TIP3    H135878   4.225   6.350  15.795 -0.2133 -1.1923  2.2005
 4821TIP3    H235879   4.074   6.360  15.800 -0.1660 -0.0734  1.5883
 4822TIP3   OH235880   2.027   0.080   0.794  0.4549  0.2122  0.4719
 4822TIP3    H135881   2.038   0.175   0.796 -2.1550  0.5955 -0.4950
 4822TIP3    H235882   2.022   0.058   0.701 -1.9771 -0.4078  0.6928
 4823TIP3   OH235883   6.020   4.224  11.979  0.1874  0.5606  0.3216
 4823TIP3    H135884   5.995   4.132  11.983 -1.0239  0.9101  0.8121
 4823TIP3    H235885   6.116   4.222  11.976  0.1784 -0.7045  0.5347
 4824TIP3   OH235886   1.964   2.699  13.648 -0.6275  0.0084 -0.2037
 4824TIP3    H135887   1.981   2.625  13.706 -0.1560 -0.3565 -0.8072
 4824TIP3    H235888   2.023   2.686  13.574 -0.5569  0.9780 -0.3232
 4825TIP3   OH235889   5.086   5.455   3.866  0.4189  0.4340  0.4006
 4825TIP3    H135890   5.100   5.388   3.933 -1.3311  0.9005  1.2538
 4825TIP3    H235891   5.017   5.419   3.810  2.8812 -0.6160 -2.0901
 4826TIP3   OH235892   3.150   3.393   5.070  0.7167  0.0242 -0.1404
 4826TIP3    H135893   3.060   3.397   5.038 -0.1303  0.3372  2.1268
 4826TIP3    H235894   3.153   3.313   5.122  1.4888  0.4663  0.5029
 4827TIP3   OH235895   1.131   5.028  15.839  0.4402  0.0507  0.3885
 4827TIP3    H135896   1.193   5.065  15.776  0.8763 -0.2098  0.6625
 4827TIP3    H235897   1.129   4.934  15.818  1.5035 -0.2366  1.5447
 4828TIP3   OH235898   4.075   1.489  15.512 -0.0886 -0.2667  0.0612
 4828TIP3    H135899   4.020   1.462  15.586 -2.6517 -1.0576 -2.0385
 4828TIP3    H235900   4.097   1.580  15.531 -2.5326  0.2224  0.7876
 4829TIP3   OH235901   5.918   0.232  11.618  0.1606  0.1630  0.1575
 4829TIP3    H135902   5.867   0.287  11.676  1.8362 -0.4273  2.2520
 4829TIP3    H235903   5.943   0.290  11.546 -1.2558  1.1157  0.4147
 4830TIP3   OH235904   6.022   4.925  13.481 -0.1065 -0.3924 -0.2826
 4830TIP3    H135905   6.021   4.831  13.462 -1.0535 -0.4014 -0.2040
 4830TIP3    H235906   5.960   4.962  13.419  1.5963  0.4298 -1.5484
 4831TIP3   OH235907   4.607   5.853  13.825  0.1248 -0.0571  0.1175
 4831TIP3    H135908   4.553   5.846  13.747  0.2213 -1.4173  0.1614
 4831TIP3    H235909   4.689   5.893  13.794 -0.4651  0.9466 -0.1559
 4832TIP3   OH235910   3.982   4.190   0.656 -0.0448  0.9187 -0.3462
 4832TIP3    H135911   4.060   4.137   0.641  1.1774  2.5521  0.0615
 4832TIP3    H235912   3.999   4.235   0.739 -1.1551  1.7477 -0.5528
 4833TIP3   OH235913   3.481   5.974   4.027 -0.7281 -0.4457 -0.2175
 4833TIP3    H135914   3.572   5.977   3.996 -0.8836  0.2455 -0.6099
 4833TIP3    H235915   3.430   5.954   3.949 -0.7335 -2.8154  0.3683
 4834TIP3   OH235916   1.558   2.729   3.934 -0.3759  0.3691 -0.4044
 4834TIP3    H135917   1.472   2.717   3.974 -0.8673  0.4288 -1.4379
 4834TIP3    H235918   1.609   2.654   3.965 -1.3740 -0.7083 -1.2951
 4835TIP3   OH235919   0.144   1.123   4.804  0.1435 -0.1656 -0.2154
 4835TIP3    H135920   0.229   1.120   4.847  0.4866  0.9850 -0.7815
 4835TIP3    H235921   0.105   1.038   4.821  0.7055 -0.1040  1.4930
 4836TIP3   OH235922   1.714   1.431   1.609 -0.3127 -0.8625  0.2647
 4836TIP3    H135923   1.733   1.472   1.694  1.4893 -0.6492 -0.2030
 4836TIP3    H235924   1.634   1.382   1.623 -0.6266  0.0494  1.7989
 4837TIP3   OH235925   1.430   0.595  12.841 -0.2767  0.4453  0.1809
 4837TIP3    H135926   1.415   0.528  12.907  0.0549  0.4238  0.2379
 4837TIP3    H235927   1.344   0.632  12.824 -0.4218  0.1834  0.3393
 4838TIP3   OH235928   0.260   0.562   0.361 -0.3935 -1.0237  0.3252
 4838TIP3    H135929   0.228   0.575   0.272  0.1465  3.2751  0.6575
 4838TIP3    H235930   0.214   0.627   0.413  1.9945 -0.9908  2.5241
 4839TIP3   OH235931   5.415   3.186   1.214  0.3538  0.0970  0.4363
 4839TIP3    H135932   5.450   3.245   1.281  2.8586 -1.2115  0.3313
 4839TIP3    H235933   5.486   3.125   1.196 -1.4837 -1.7175 -0.9278
 4840TIP3   OH235934   5.315   2.003   3.326 -0.3072  0.0125 -0.5674
 4840TIP3    H135935   5.260   2.000   3.248  0.8575 -1.7191 -1.3689
 4840TIP3    H235936   5.394   1.954   3.302  1.1055  1.4769  0.9213
 4841TIP3   OH235937   6.266   5.616   5.488 -0.1847  0.2696  0.3425
 4841TIP3    H135938   6.321   5.561   5.543  1.4168  0.3786 -1.1474
 4841TIP3    H235939   6.233   5.557   5.420 -0.4504  0.6056  0.1803
 4842TIP3   OH235940   2.230   2.379  14.908 -0.1581 -0.8536  0.5918
 4842TIP3    H135941   2.221   2.393  15.002 -0.2500  0.8725  0.3474
 4842TIP3    H235942   2.321   2.353  14.896  0.5002  1.1898  0.9329
 4843TIP3   OH235943   0.189   0.079  14.493  0.1367  0.1678 -0.2777
 4843TIP3    H135944   0.169   0.153  14.551  0.6334 -0.2286  0.4091
 4843TIP3    H235945   0.230   0.119  14.417  2.0325  0.4508  0.8613
 4844TIP3   OH235946   2.350   3.250   4.893  0.0268 -0.1885 -0.1970
 4844TIP3    H135947   2.263   3.221   4.921  0.4838 -0.4352  1.0031
 4844TIP3    H235948   2.409   3.214   4.959  0.8151  1.8125  0.2097
 4845TIP3   OH235949   1.853   3.903   6.079  0.5001  0.1481  0.6913
 4845TIP3    H135950   1.801   3.907   6.160  0.5949 -0.6178  0.7982
 4845TIP3    H235951   1.937   3.943   6.102  0.6896 -0.4698  1.1141
 4846TIP3   OH235952   4.322   5.266   1.023 -0.0048  0.0967 -0.0254
 4846TIP3    H135953   4.236   5.308   1.029 -0.3050 -0.5166 -0.0413
 4846TIP3    H235954   4.303   5.173   1.010  0.6685 -0.3720  2.2706
 4847TIP3   OH235955   5.536   1.318  16.055 -0.3319 -0.0386  0.5947
 4847TIP3    H135956   5.475   1.290  16.123 -1.4789  1.8487  0.3678
 4847TIP3    H235957   5.554   1.410  16.074  0.5363  0.0844 -0.7534
 4848TIP3   OH235958   5.701   0.319   0.828  0.4372  0.1687  0.4226
 4848TIP3    H135959   5.616   0.334   0.869 -0.6754  0.6164 -1.9803
 4848TIP3    H235960   5.702   0.376   0.751  1.7638 -1.8989 -1.1538
 4849TIP3   OH235961   6.528   3.073   2.373  0.2506  0.4152  0.0958
 4849TIP3    H135962   6.522   2.981   2.350 -0.0449  0.9032 -1.8738
 4849TIP3    H235963   6.442   3.109   2.351  0.0223  0.9693  1.8031
 4850TIP3   OH235964   1.997   2.262  12.746  0.5161 -0.1059 -0.6423
 4850TIP3    H135965   1.915   2.215  12.763  0.8129  0.7280  3.8228
 4850TIP3    H235966   1.970   2.345  12.707 -0.6365 -0.5143 -0.7311
 4851TIP3   OH235967   0.172   2.104  14.894 -0.2649 -0.1019 -0.0807
 4851TIP3    H135968   0.120   2.156  14.955  2.6238 -0.2925  2.6549
 4851TIP3    H235969   0.176   2.158  14.814 -1.6830  1.4684  0.8811
 4852TIP3   OH235970   5.636   2.438   3.008  0.5817 -0.3245 -0.5012
 4852TIP3    H135971   5.675   2.511   2.960  0.3289  0.1073 -0.0618
 4852TIP3    H235972   5.664   2.451   3.099 -0.5308 -0.0208 -0.1840
 4853TIP3   OH235973   3.505   1.397  10.848  0.0160  0.2489  0.9485
 4853TIP3    H135974   3.594   1.432  10.856  0.1365  0.1741  0.0437
 4853TIP3    H235975   3.454   1.446  10.913  0.4451  1.2221  0.5612
 4854TIP3   OH235976   3.011   0.606  16.826  0.6592 -0.3277  0.0144
 4854TIP3    H135977   2.961   0.534  16.787 -2.3199  0.1015  2.8335
 4854TIP3    H235978   3.036   0.660  16.751 -0.6729 -2.0785 -1.7626
 4855TIP3   OH235979   2.432   3.583   3.810  0.5997  0.1161 -0.2372
 4855TIP3    H135980   2.515   3.548   3.777  1.0491  1.1016 -0.1509
 4855TIP3    H235981   2.369   3.513   3.794  1.3214 -0.3941 -0.8776
 4856TIP3   OH235982   4.513   2.972   1.701  0.3544 -0.2255 -0.3123
 4856TIP3    H135983   4.450   3.027   1.747  0.8912  0.2689 -0.1601
 4856TIP3    H235984   4.554   3.030   1.637  0.7291 -0.5073 -0.3323
 4857TIP3   OH235985   1.449   6.152  15.196 -0.3219  0.0976 -0.3351
 4857TIP3    H135986   1.471   6.160  15.104  0.7314 -1.5414 -0.2586
 4857TIP3    H235987   1.369   6.099  15.198  0.4313 -1.0424 -0.2518
 4858TIP3   OH235988   4.642   4.888   2.687 -0.5156 -0.1847 -0.3616
 4858TIP3    H135989   4.722   4.914   2.642 -1.2936 -0.2376 -1.8127
 4858TIP3    H235990   4.604   4.821   2.631 -2.6105  1.2763 -0.7687
 4859TIP3   OH235991   5.336   4.892  14.040 -0.2312  0.2062  0.2073
 4859TIP3    H135992   5.295   4.860  14.120 -0.6670  0.1825 -0.0241
 4859TIP3    H235993   5.264   4.932  13.990  0.0118  0.1003 -0.2296
 4860TIP3   OH235994   1.142   3.136   2.331  0.3984 -0.8276  0.1239
 4860TIP3    H135995   1.139   3.042   2.312  3.2982 -1.2989  1.6899
 4860TIP3    H235996   1.158   3.141   2.425 -0.6839  1.2602  0.2205
 4861TIP3   OH235997   1.836   6.707  15.536  0.5596  0.0157  1.1120
 4861TIP3    H135998   1.758   6.689  15.485  1.8042 -1.2075 -0.4273
 4861TIP3    H235999   1.881   6.776  15.488  0.9697 -0.0618  1.3788
 4862TIP3   OH236000   4.331   2.877  12.724  0.0745 -0.3968  0.3037
 4862TIP3    H136001   4.312   2.812  12.656 -1.6612  0.6931 -0.2881
 4862TIP3    H236002   4.254   2.933  12.726  1.2858  1.2884  1.2310
 4863TIP3   OH236003   1.448   4.234  11.464 -0.4753  0.1265 -0.3590
 4863TIP3    H136004   1.506   4.190  11.526  1.2906  0.6699 -1.5704
 4863TIP3    H236005   1.503   4.302  11.425 -1.2679 -0.8318 -3.2094
 4864TIP3   OH236006   3.876   4.813  12.997  0.4935 -0.2382 -0.4287
 4864TIP3    H136007   3.791   4.787  12.961  1.8269 -2.1263 -2.3174
 4864TIP3    H236008   3.906   4.884  12.940  1.3877 -1.4054 -1.4316
 4865TIP3   OH236009   4.224   4.027   5.206 -0.7238 -0.1889  0.6488
 4865TIP3    H136010   4.180   4.036   5.122  0.2614 -0.2823  0.1178
 4865TIP3    H236011   4.224   4.115   5.243 -1.8251 -0.2878  0.8908
 4866TIP3   OH236012   4.967   3.681   0.221  0.6333  0.4372  0.1145
 4866TIP3    H136013   4.883   3.658   0.181  1.5119 -0.7567 -1.0829
 4866TIP3    H236014   4.974   3.625   0.298 -0.8410  2.3914  1.7001
 4867TIP3   OH236015   0.417   4.860  16.436  0.2270  0.1327  0.2975
 4867TIP3    H136016   0.412   4.846  16.341 -0.8790  0.7694  0.2510
 4867TIP3    H236017   0.365   4.789  16.473 -1.0189  1.0393  0.3167
 4868TIP3   OH236018   4.039   1.041   1.915  0.0845 -0.4697 -0.1772
 4868TIP3    H136019   4.097   1.006   1.847  0.0626 -0.1377 -0.3652
 4868TIP3    H236020   4.033   1.134   1.897  1.3985 -0.0781  1.2647
 4869TIP3   OH236021   1.190   6.546  14.860 -0.0320  0.5667  0.9246
 4869TIP3    H136022   1.242   6.621  14.831  1.1278 -1.1610 -1.7159
 4869TIP3    H236023   1.179   6.559  14.954  0.3814  3.8582  0.5828
 4870TIP3   OH236024   5.841   3.698   3.755 -0.2984  0.4291 -0.7022
 4870TIP3    H136025   5.878   3.619   3.715  1.9924  0.3465  1.4753
 4870TIP3    H236026   5.769   3.667   3.809  2.1881 -0.5759  2.1836
 4871TIP3   OH236027   1.796   4.858   1.995  0.1916  0.6155  0.2860
 4871TIP3    H136028   1.826   4.767   2.002 -0.5046  0.2225 -1.6050
 4871TIP3    H236029   1.876   4.910   2.003  1.2490 -0.3624 -3.1759
 4872TIP3   OH236030   5.091   6.717   5.876  0.3939  0.0056  0.0776
 4872TIP3    H136031   5.062   6.689   5.963  2.1043  0.1008  0.6904
 4872TIP3    H236032   5.137   6.799   5.891  1.0821 -0.1975 -0.8727
 4873TIP3   OH236033   1.528   0.598  13.979  0.1547  0.0330  0.1762
 4873TIP3    H136034   1.530   0.693  13.988  0.2693  0.3194 -2.4593
 4873TIP3    H236035   1.604   0.568  14.029 -0.8420  1.1543  2.4461
 4874TIP3   OH236036   5.061   4.182   1.251  0.2019 -0.1542  0.0106
 4874TIP3    H136037   4.996   4.200   1.184  0.7698 -0.2624 -0.5833
 4874TIP3    H236038   5.142   4.167   1.202  0.9662  1.2500  0.7977
 4875TIP3   OH236039   4.330   2.964   2.021 -0.1448  0.8841  0.2005
 4875TIP3    H136040   4.244   2.978   2.061 -0.5151 -2.2582  0.6524
 4875TIP3    H236041   4.331   2.871   1.999  2.6107  1.1794 -1.1263
 4876TIP3   OH236042   4.019   3.562   3.396  0.0634 -0.0670 -0.2234
 4876TIP3    H136043   4.109   3.589   3.377 -0.1102  0.2744 -0.5670
 4876TIP3    H236044   3.974   3.643   3.419 -0.2300 -0.1930 -0.3485
 4877TIP3   OH236045   1.263   1.679  10.965 -0.2483 -0.4530 -0.5293
 4877TIP3    H136046   1.246   1.650  11.054  0.2072 -1.7805 -0.8711
 4877TIP3    H236047   1.178   1.675  10.921 -0.4003 -0.1553 -0.2687
 4878TIP3   OH236048   5.965   2.144  11.104 -0.4987  0.2246 -0.2630
 4878TIP3    H136049   5.999   2.232  11.114 -0.2553 -0.0214  1.2207
 4878TIP3    H236050   6.018   2.091  11.163 -0.4431 -0.9759 -1.3616
 4879TIP3   OH236051   4.039   1.663   0.079 -0.2485  0.0806  0.1746
 4879TIP3    H136052   4.097   1.620   0.016 -1.2340  1.7029 -1.8769
 4879TIP3    H236053   4.077   1.641   0.164  1.8901 -1.0220 -1.0144
 4880TIP3   OH236054   3.462   2.502  12.912 -0.3241 -0.5952  0.4399
 4880TIP3    H136055   3.532   2.455  12.958  0.4962 -0.3046 -0.5050
 4880TIP3    H236056   3.401   2.433  12.884  1.4615 -1.2572 -1.9568
 4881TIP3   OH236057   2.328   3.000  16.533 -0.2575  0.6272  0.0870
 4881TIP3    H136058   2.314   3.067  16.467 -0.6949  0.8218  0.3718
 4881TIP3    H236059   2.369   2.927  16.486 -0.8454  0.6468 -0.4571
 4882TIP3   OH236060   0.772   6.715   5.018 -0.0168 -0.5551 -0.0312
 4882TIP3    H136061   0.862   6.710   4.985  0.5846  0.2540  1.4211
 4882TIP3    H236062   0.756   6.629   5.058 -0.2671 -1.0622 -1.2105
 4883TIP3   OH236063   5.924   5.415   6.353  0.1194 -0.4038  0.3253
 4883TIP3    H136064   5.902   5.384   6.265  1.3644  1.3143 -0.6090
 4883TIP3    H236065   5.841   5.419   6.399 -1.0676  2.3587 -1.9658
 4884TIP3   OH236066   3.062   5.910   1.430 -0.0284 -0.1095  0.1268
 4884TIP3    H136067   3.052   5.841   1.496  1.0800 -0.8938 -0.5237
 4884TIP3    H236068   2.985   5.966   1.443  1.4365  1.2013  3.8218
 4885TIP3   OH236069   5.067   6.443  11.951  0.2626 -0.0867 -0.2206
 4885TIP3    H136070   4.980   6.430  11.914 -0.1313  2.6631 -0.3308
 4885TIP3    H236071   5.072   6.536  11.969  2.2076 -0.6093  2.2794
 4886TIP3   OH236072   5.618   2.800  13.986  0.1985 -0.5449  0.1280
 4886TIP3    H136073   5.624   2.754  13.902 -0.6381 -0.8001  0.1978
 4886TIP3    H236074   5.608   2.729  14.051  0.6739 -0.3426  0.4176
 4887TIP3   OH236075   6.743   5.280   6.227  0.2543  0.3139 -0.0296
 4887TIP3    H136076   6.751   5.188   6.253  1.1873 -0.1017 -1.7052
 4887TIP3    H236077   6.683   5.318   6.291 -0.6547 -1.6257  0.2992
 4888TIP3   OH236078   4.249   2.516  16.309  0.7427  0.3876 -0.5826
 4888TIP3    H136079   4.236   2.566  16.228  0.7402 -0.4525 -1.1083
 4888TIP3    H236080   4.188   2.442  16.301  0.1688  0.7338  0.5408
 4889TIP3   OH236081   3.075   0.849  13.059  0.6836 -0.0596  0.4316
 4889TIP3    H136082   3.167   0.826  13.070  1.5411  3.0047  0.2644
 4889TIP3    H236083   3.056   0.907  13.132 -0.3040  1.5429 -1.0438
 4890TIP3   OH236084   6.432   2.792  12.746  0.0860 -0.4332 -0.3735
 4890TIP3    H136085   6.408   2.825  12.659  2.2406 -0.0988 -0.8712
 4890TIP3    H236086   6.494   2.721  12.728  0.7436 -0.1845  0.9069
 4891TIP3   OH236087   0.219   1.415  11.614  0.0380  0.0042 -0.1369
 4891TIP3    H136088   0.236   1.459  11.697  3.1692 -2.2950  0.5533
 4891TIP3    H236089   0.270   1.465  11.550 -3.9308  2.9832 -1.1785
 4892TIP3   OH236090   2.191   3.153   5.810 -0.1723 -0.1762 -0.0824
 4892TIP3    H136091   2.265   3.160   5.870  0.4788 -0.1490 -0.8850
 4892TIP3    H236092   2.179   3.059   5.798  0.5704 -0.1691 -0.9673
 4893TIP3   OH236093   4.463   0.997  11.442  0.1895  0.4291  0.3168
 4893TIP3    H136094   4.477   1.090  11.427 -2.8246  0.8182 -0.3756
 4893TIP3    H236095   4.429   0.963  11.360  1.1345 -1.3010  0.5980
 4894TIP3   OH236096   3.284   0.999   5.890 -0.5087  0.3285 -0.7134
 4894TIP3    H136097   3.284   0.912   5.930 -0.0464  1.1387  1.0731
 4894TIP3    H236098   3.320   1.057   5.957 -2.0658  2.1407 -1.4006
 4895TIP3   OH236099   4.013   5.895  16.686  0.1743 -0.5300  0.0167
 4895TIP3    H136100   4.008   5.989  16.669  1.1427 -0.8025 -1.8412
 4895TIP3    H236101   3.941   5.858  16.634  1.2765 -1.0595 -1.1420
 4896TIP3   OH236102   4.905   4.998  12.480 -0.2877 -0.2200 -0.3539
 4896TIP3    H136103   4.892   5.053  12.403  0.7814 -0.2506 -0.5548
 4896TIP3    H236104   4.870   5.050  12.553  1.1957  0.9616 -0.4622
 4897TIP3   OH236105   0.003   5.903   5.268 -0.0583 -0.2314 -0.3585
 4897TIP3    H136106  -0.059   5.868   5.204  0.1837 -0.1830 -0.6208
 4897TIP3    H236107   0.089   5.885   5.230  0.0724  0.3527 -0.3450
 4898TIP3   OH236108   4.288   5.296   1.649  0.2875  0.4783 -0.3738
 4898TIP3    H136109   4.344   5.220   1.662  0.2274  0.5172  0.1573
 4898TIP3    H236110   4.344   5.371   1.672  0.6922  0.6762 -1.9861
 4899TIP3   OH236111   2.910   4.501   2.735 -0.1408  0.5266 -0.0051
 4899TIP3    H136112   3.002   4.485   2.756 -0.7213  1.1862  3.3049
 4899TIP3    H236113   2.880   4.420   2.694  0.8984 -1.1678  2.5258
 4900TIP3   OH236114   5.418   2.038  10.767 -0.3157 -0.2044  0.1807
 4900TIP3    H136115   5.423   1.970  10.700  0.3016  0.1968 -0.1867
 4900TIP3    H236116   5.332   2.078  10.753  0.7935  1.5232 -2.0021
 4901TIP3   OH236117   3.263   3.431  12.385 -0.0235 -0.6843  0.0583
 4901TIP3    H136118   3.236   3.349  12.344  2.0987 -1.2685 -0.2480
 4901TIP3    H236119   3.336   3.407  12.442 -1.1344  0.5774  2.0578
 4902TIP3   OH236120   1.588   1.638   3.244 -0.3316 -0.7768 -0.1660
 4902TIP3    H136121   1.666   1.613   3.293 -0.5605 -1.4553 -0.1466
 4902TIP3    H236122   1.560   1.720   3.284  1.3014  0.3482 -1.2273
 4903TIP3   OH236123   1.586   0.045   0.185  0.2063 -0.0866 -0.1955
 4903TIP3    H136124   1.535  -0.001   0.251 -0.3018  0.2350 -0.3595
 4903TIP3    H236125   1.636   0.110   0.233  1.6595 -1.4354  0.1554
 4904TIP3   OH236126   4.051   6.416  16.298 -0.2448  0.4787  0.2065
 4904TIP3    H136127   4.077   6.382  16.212 -2.1336 -2.7507  0.8110
 4904TIP3    H236128   4.100   6.362  16.360  0.1713  1.9758  1.2000
 4905TIP3   OH236129   1.286   3.710  16.278 -0.2546  0.6855  0.1885
 4905TIP3    H136130   1.305   3.782  16.218  0.2478  1.0247  0.7481
 4905TIP3    H236131   1.371   3.684  16.312 -0.6074  1.0175  1.3486
 4906TIP3   OH236132   1.478   6.394  16.718 -0.2275  0.2748  1.1831
 4906TIP3    H136133   1.447   6.375  16.630 -2.3213  0.9609  1.7510
 4906TIP3    H236134   1.480   6.309  16.762  0.9937 -0.0940  0.4432
 4907TIP3   OH236135   2.584   0.339  11.003  0.7637 -0.1118 -0.4993
 4907TIP3    H136136   2.617   0.274  10.941  0.1619  0.1008 -1.0597
 4907TIP3    H236137   2.519   0.388  10.952 -0.4512 -0.5675  0.5865
 4908TIP3   OH236138   1.169   6.068  15.607  0.0981 -0.1823 -0.0805
 4908TIP3    H136139   1.141   5.976  15.607  1.3135 -0.5723 -1.7443
 4908TIP3    H236140   1.264   6.065  15.619 -0.2947  1.0615  3.9001
 4909TIP3   OH236141   4.251   5.796   0.890  0.0347 -0.3378  0.0202
 4909TIP3    H136142   4.245   5.728   0.822  0.9611 -0.8873  0.4734
 4909TIP3    H236143   4.292   5.752   0.964 -0.4211  0.4225  0.7363
 4910TIP3   OH236144   4.941   2.805   4.272 -0.1714 -0.2568  0.4459
 4910TIP3    H136145   4.904   2.893   4.270 -2.3108 -1.0359  2.7747
 4910TIP3    H236146   4.913   2.765   4.190  0.9991  1.2846 -0.7258
 4911TIP3   OH236147   0.586   1.707  10.524 -1.1630  0.1626 -0.2277
 4911TIP3    H136148   0.656   1.656  10.485  0.1039  1.4871  0.2613
 4911TIP3    H236149   0.545   1.752  10.451 -1.3940 -0.4745 -0.4933
 4912TIP3   OH236150   4.635   4.949  11.407  0.4296  0.4045  0.5699
 4912TIP3    H136151   4.621   4.863  11.448 -2.0107  0.5085  0.0528
 4912TIP3    H236152   4.689   4.931  11.330  0.1137 -0.6444  0.5819
 4913TIP3   OH236153   5.567   0.689  13.694  0.0787  0.1059  0.8488
 4913TIP3    H136154   5.600   0.758  13.637 -0.9950 -0.7230 -0.7999
 4913TIP3    H236155   5.534   0.735  13.771 -0.7102  1.4434 -0.2771
 4914TIP3   OH236156   0.400   3.261   5.924  0.0162 -0.3444 -0.0903
 4914TIP3    H136157   0.455   3.227   5.853  0.3213 -1.4158  0.6490
 4914TIP3    H236158   0.321   3.292   5.879  1.3680  1.5719 -1.2003
 4915TIP3   OH236159   2.746   3.190   0.234 -0.4552 -0.1134  0.8777
 4915TIP3    H136160   2.675   3.253   0.234 -0.2101  0.1730  1.5134
 4915TIP3    H236161   2.735   3.141   0.153 -0.6296  0.7653  0.3577
 4916TIP3   OH236162   5.347   1.139   0.022  0.3158  0.7495  0.3511
 4916TIP3    H136163   5.391   1.153   0.106  1.6392 -0.0928 -0.1931
 4916TIP3    H236164   5.355   1.045   0.005 -0.4608  0.8130 -0.4389
 4917TIP3   OH236165   3.114   2.333   2.152  0.0842 -0.4223  0.1793
 4917TIP3    H136166   3.109   2.265   2.219 -2.3017 -0.8026 -0.3476
 4917TIP3    H236167   3.142   2.288   2.073  1.1924 -0.2893  0.4940
 4918TIP3   OH236168   4.792   0.755   5.790 -0.4625 -0.1643 -0.3368
 4918TIP3    H136169   4.867   0.707   5.825  0.6958  2.1688  0.5231
 4918TIP3    H236170   4.721   0.735   5.852  0.1301 -0.3714  0.2898
 4919TIP3   OH236171   3.272   3.781  11.471  0.0904 -0.1267  0.1324
 4919TIP3    H136172   3.216   3.718  11.426  0.0166 -0.6064  0.8919
 4919TIP3    H236173   3.220   3.811  11.546 -0.2268  1.5101 -0.7273
 4920TIP3   OH236174   3.129   1.870   4.241 -0.2426  0.0661 -0.5126
 4920TIP3    H136175   3.182   1.883   4.320  1.5569  0.5201 -1.7540
 4920TIP3    H236176   3.174   1.921   4.173 -1.2016 -1.0927 -2.0610
 4921TIP3   OH236177   6.732   5.107  12.465 -0.2104  0.5138  0.6476
 4921TIP3    H136178   6.768   5.120  12.378  0.9039  0.9076  1.1624
 4921TIP3    H236179   6.641   5.136  12.459 -0.1325  0.5375 -0.3769
 4922TIP3   OH236180   5.766   5.042   5.140 -0.0506  0.5837 -0.3659
 4922TIP3    H136181   5.686   5.074   5.099  0.5726  0.7415 -1.5049
 4922TIP3    H236182   5.804   4.983   5.074  0.6470  0.3267  0.2587
 4923TIP3   OH236183   1.349   0.246  14.869  0.0663  0.4602  0.4245
 4923TIP3    H136184   1.405   0.285  14.802 -0.4281 -1.1776 -0.9909
 4923TIP3    H236185   1.361   0.302  14.946  2.2787  1.1531 -0.3759
 4924TIP3   OH236186   1.476   3.553  13.817 -0.3077 -0.7905 -0.5192
 4924TIP3    H136187   1.564   3.547  13.780 -0.5099  0.3163 -1.1976
 4924TIP3    H236188   1.459   3.647  13.825 -0.9626 -1.0001  0.7376
 4925TIP3   OH236189   6.074   2.527  11.537 -0.0406 -0.6348 -0.4925
 4925TIP3    H136190   6.081   2.512  11.631 -0.3788 -0.6718 -0.4710
 4925TIP3    H236191   6.000   2.588  11.528 -1.7855 -2.7581 -0.9360
 4926TIP3   OH236192   0.376   1.711   5.211 -0.4949 -0.7004 -0.1533
 4926TIP3    H136193   0.297   1.731   5.160  0.5933 -2.0937 -2.4785
 4926TIP3    H236194   0.411   1.797   5.234 -1.8803 -0.0501 -0.3917
 4927TIP3   OH236195   0.390   1.579  11.425  0.1717  0.1166 -0.1833
 4927TIP3    H136196   0.414   1.614  11.339  2.7951 -1.5702 -0.2157
 4927TIP3    H236197   0.457   1.615  11.484 -1.2082  0.7108  1.0362
 4928TIP3   OH236198   1.686   5.119  11.212 -0.2352  0.5409  0.0486
 4928TIP3    H136199   1.661   5.045  11.266 -1.1052  1.8331  1.4629
 4928TIP3    H236200   1.669   5.196  11.266  1.6671  1.7485 -0.9670
 4929TIP3   OH236201   1.815   5.701   1.806  0.3344 -0.2240  0.0889
 4929TIP3    H136202   1.862   5.776   1.771 -1.1828  0.4022 -0.6374
 4929TIP3    H236203   1.758   5.737   1.874 -0.1716 -0.7387 -0.0523
 4930TIP3   OH236204   2.318   0.128   6.177 -0.1123 -0.2016 -0.5519
 4930TIP3    H136205   2.231   0.107   6.143 -0.2094 -0.5002 -0.1246
 4930TIP3    H236206   2.302   0.155   6.268  0.0291  1.4947 -1.0143
 4931TIP3   OH236207   4.131   0.261   4.321 -0.3553 -0.2236 -0.2447
 4931TIP3    H136208   4.049   0.260   4.272 -0.7738 -0.4939  0.4411
 4931TIP3    H236209   4.108   0.222   4.406  0.1416  1.0161  0.4831
 4932TIP3   OH236210   5.264   2.802   5.937  0.0762  0.0146  0.5219
 4932TIP3    H136211   5.336   2.840   5.988  1.6789 -1.3596 -0.6704
 4932TIP3    H236212   5.236   2.872   5.879  1.5056  0.0950 -0.0924
 4933TIP3   OH236213   6.478   2.993   5.012  0.3998  0.2795  0.3150
 4933TIP3    H136214   6.447   2.989   4.922 -0.3995  2.1286  0.4915
 4933TIP3    H236215   6.423   3.059   5.054  0.9883 -0.3137  2.0734
 4934TIP3   OH236216   0.817   6.505  17.107 -0.0945 -0.7217  0.2690
 4934TIP3    H136217   0.800   6.599  17.102 -0.5883 -0.8077  0.3473
 4934TIP3    H236218   0.853   6.483  17.022 -1.3552 -0.7410 -0.2593
 4935TIP3   OH236219   6.527   4.418  12.124 -0.2671 -0.1431  0.6067
 4935TIP3    H136220   6.611   4.409  12.079 -0.1646  0.4667  0.6749
 4935TIP3    H236221   6.472   4.468  12.064 -0.9789 -1.5619  0.0427
 4936TIP3   OH236222   0.885   4.139   0.014 -0.0431 -0.2428 -0.1267
 4936TIP3    H136223   0.832   4.158  -0.063 -1.7856 -0.6418  0.9542
 4936TIP3    H236224   0.877   4.218   0.069  0.6730 -0.2094 -0.0611
 4937TIP3   OH236225   5.907   5.037  16.123  0.3640 -0.0770  0.4126
 4937TIP3    H136226   5.856   4.963  16.089  0.9058  0.4259 -1.5842
 4937TIP3    H236227   5.891   5.107  16.060  1.2083  0.9917  1.3674
 4938TIP3   OH236228   0.768   2.710  13.625  0.6581 -0.2840  0.3548
 4938TIP3    H136229   0.710   2.735  13.553 -1.6291 -1.1285  1.8600
 4938TIP3    H236230   0.856   2.729  13.592 -0.5341  2.5154 -1.3876
 4939TIP3   OH236231   1.935   4.622   1.989 -0.5243 -0.7343 -0.6516
 4939TIP3    H136232   2.013   4.574   2.018 -0.5403  0.2086  1.0410
 4939TIP3    H236233   1.869   4.554   1.975  0.0164 -1.3834 -0.1374
 4940TIP3   OH236234   5.684   0.416   3.775  0.1206  0.1435 -0.3839
 4940TIP3    H136235   5.673   0.341   3.717 -0.9593 -1.6812  2.1028
 4940TIP3    H236236   5.733   0.383   3.850 -0.2506  1.9416  0.6940
 4941TIP3   OH236237   4.543   1.867  16.386  0.6561  0.0035  0.0356
 4941TIP3    H136238   4.462   1.884  16.434 -0.9639 -1.5997 -2.0652
 4941TIP3    H236239   4.595   1.813  16.446 -0.6222 -0.5541  0.6564
 4942TIP3   OH236240   4.563   4.058   0.267  0.4236 -0.6167  0.2546
 4942TIP3    H136241   4.537   4.141   0.306 -2.0749 -1.3219  0.2139
 4942TIP3    H236242   4.658   4.063   0.258  0.3313  2.0733  0.5719
 4943TIP3   OH236243   3.962   3.217   3.938 -0.0187  0.2984 -0.1929
 4943TIP3    H136244   3.892   3.157   3.964  2.2443 -1.5953  1.7105
 4943TIP3    H236245   3.942   3.239   3.847 -1.9835 -1.7781 -0.2944
 4944TIP3   OH236246   3.322   1.140   1.561 -0.1541 -0.7634  0.0863
 4944TIP3    H136247   3.399   1.099   1.521  0.8673  0.0322  1.2129
 4944TIP3    H236248   3.327   1.232   1.532 -0.0795 -0.4657  1.0262
 4945TIP3   OH236249   1.458   6.570   0.324  0.3379  0.1481 -0.0058
 4945TIP3    H136250   1.445   6.651   0.373 -1.5502 -1.0188  1.4875
 4945TIP3    H236251   1.500   6.598   0.243  1.7538  2.3435  1.4244
 4946TIP3   OH236252   4.879   0.284  11.977  0.5147 -0.6165 -0.0522
 4946TIP3    H136253   4.871   0.370  11.936  2.4967  0.0990  0.9945
 4946TIP3    H236254   4.921   0.229  11.911  1.2108 -0.1993  0.0428
 4947TIP3   OH236255   0.245   6.638  12.654 -0.0722  0.6488 -0.1270
 4947TIP3    H136256   0.286   6.676  12.732 -2.5889  0.4298  1.3260
 4947TIP3    H236257   0.171   6.695  12.634 -0.6313 -0.4105 -1.1824
 4948TIP3   OH236258   5.637   6.624  15.341 -0.1881 -0.2646 -0.1301
 4948TIP3    H136259   5.647   6.626  15.245  0.3104 -2.5179 -0.1539
 4948TIP3    H236260   5.658   6.713  15.369 -0.0997  0.3572 -2.1019
 4949TIP3   OH236261   5.510   6.466  14.368 -0.3512 -0.0407  0.4266
 4949TIP3    H136262   5.468   6.404  14.427  0.0696 -2.1367 -1.3776
 4949TIP3    H236263   5.441   6.527  14.344 -0.9760 -0.2388  1.6814
 4950TIP3   OH236264   2.850   6.509   2.859 -0.2575  0.0687  0.0380
 4950TIP3    H136265   2.920   6.524   2.795 -0.7708 -0.2266 -0.5964
 4950TIP3    H236266   2.786   6.577   2.841 -0.9183 -0.6896 -0.4882
 4951TIP3   OH236267   2.455   4.297   0.871 -0.2539  0.0205 -0.0917
 4951TIP3    H136268   2.386   4.248   0.916  1.1666 -0.5541  1.5191
 4951TIP3    H236269   2.500   4.232   0.817 -0.2099  0.1433 -0.2024
 4952TIP3   OH236270   0.007   0.426   4.593 -0.4254 -0.2897 -0.1173
 4952TIP3    H136271   0.045   0.379   4.519  1.0890  1.7084 -0.6587
 4952TIP3    H236272   0.065   0.406   4.667 -1.0525 -1.0354  0.1825
 4953TIP3   OH236273   5.688   1.288  14.090  0.4359 -0.5475  0.1041
 4953TIP3    H136274   5.670   1.280  14.184  0.7946  0.1583  0.2434
 4953TIP3    H236275   5.617   1.241  14.047  1.2314 -2.4113  0.7822
 4954TIP3   OH236276   3.877   0.608  16.015 -0.2139  0.2484 -0.0787
 4954TIP3    H136277   3.971   0.619  16.033 -0.4451  0.3818  1.0454
 4954TIP3    H236278   3.843   0.697  16.010 -0.5333  0.1768  0.8369
 4955TIP3   OH236279   4.914   0.071  12.759 -0.3427 -0.8779 -0.6381
 4955TIP3    H136280   4.840   0.111  12.804  0.8927  1.1139 -0.3202
 4955TIP3    H236281   4.988   0.084  12.818  0.7981 -0.4437 -2.1239
 4956TIP3   OH236282   2.547   6.032   5.390 -0.0800 -0.2112 -0.2094
 4956TIP3    H136283   2.478   6.029   5.456  0.5735 -1.5647  0.4551
 4956TIP3    H236284   2.597   5.951   5.405  3.3247  2.0255  1.1831
 4957TIP3   OH236285   6.115   5.295  16.037 -0.5569 -0.1123 -0.0547
 4957TIP3    H136286   6.163   5.238  15.977 -0.1230  0.0590  0.1270
 4957TIP3    H236287   6.084   5.367  15.982  0.6896  0.5672  0.0923
 4958TIP3   OH236288   1.428   3.013  12.343 -0.2189 -0.2902  0.1409
 4958TIP3    H136289   1.366   2.941  12.328 -0.6677 -0.0274  0.6916
 4958TIP3    H236290   1.461   2.998  12.431 -0.2694  0.1467  0.2344
 4959TIP3   OH236291   6.705   2.645  14.899 -0.0533  0.8653  0.0153
 4959TIP3    H136292   6.648   2.692  14.961  0.4526  1.8854 -0.2745
 4959TIP3    H236293   6.786   2.631  14.947  0.6845  2.5077 -0.7049
 4960TIP3   OH236294   4.973   5.289   4.045 -0.0573  0.5530 -0.2020
 4960TIP3    H136295   4.953   5.204   4.084 -0.5361  0.4896 -0.5865
 4960TIP3    H236296   5.037   5.328   4.105  0.2425 -0.1167 -0.0737
 4961TIP3   OH236297   1.038   3.215  14.568  0.3385  0.2618  0.2585
 4961TIP3    H136298   1.032   3.178  14.480  1.8864  1.5411 -0.4081
 4961TIP3    H236299   0.974   3.166  14.619  0.3838 -1.4176 -1.2590
 4962TIP3   OH236300   5.195   3.023   5.538  0.5929 -0.4095  0.0271
 4962TIP3    H136301   5.211   2.928   5.540  0.4961 -0.4197  0.2802
 4962TIP3    H236302   5.211   3.052   5.628  2.1827  0.0609 -0.3875
 4963TIP3   OH236303   3.979   6.580  14.729 -0.1684  0.4019 -0.4208
 4963TIP3    H136304   3.982   6.589  14.634  2.2977  0.0940 -0.4002
 4963TIP3    H236305   3.940   6.494  14.744  0.4121 -0.0130 -1.2046
 4964TIP3   OH236306   2.784   4.002   0.467 -0.3297  0.5147  0.6140
 4964TIP3    H136307   2.770   3.985   0.560 -1.3099 -0.2707  0.3324
 4964TIP3    H236308   2.778   3.915   0.426  2.6929  0.4926  0.1220
 4965TIP3   OH236309   6.437   6.207  13.242  0.4665  0.3376  0.2160
 4965TIP3    H136310   6.487   6.252  13.310  0.4991  0.0263  0.4000
 4965TIP3    H236311   6.346   6.214  13.270  0.4358  0.6121  0.0538
 4966TIP3   OH236312   3.117   2.204  15.817  0.2917 -0.4368 -0.2393
 4966TIP3    H136313   3.207   2.222  15.789  0.3794  0.0623  0.3597
 4966TIP3    H236314   3.095   2.277  15.875 -0.0460 -1.2385  0.6381
 4967TIP3   OH236315   1.121   1.229   4.624 -0.0578 -0.4492 -0.0684
 4967TIP3    H136316   1.027   1.248   4.631  0.3785  1.8997 -0.2318
 4967TIP3    H236317   1.130   1.181   4.542 -0.8169  1.4188 -1.2733
 4968TIP3   OH236318   0.070   5.710  15.612 -0.0886  0.0725  0.1177
 4968TIP3    H136319   0.002   5.671  15.558 -1.0824 -0.0890  1.4552
 4968TIP3    H236320   0.024   5.740  15.690  1.3617  0.0745  0.9860
 4969TIP3   OH236321   4.814   2.752   3.596 -0.5429  0.1439 -0.3830
 4969TIP3    H136322   4.728   2.775   3.562  0.3510  1.5302 -1.7920
 4969TIP3    H236323   4.872   2.819   3.561  1.5447 -2.1916 -1.5254
 4970TIP3   OH236324   2.141   5.062  12.890 -0.0109 -0.6374  0.6450
 4970TIP3    H136325   2.233   5.089  12.884 -0.0619 -0.6834 -0.4978
 4970TIP3    H236326   2.129   5.001  12.818 -1.3745  0.6883 -0.2955
 4971TIP3   OH236327   2.476   4.594   2.597  0.2788 -0.3444 -0.0375
 4971TIP3    H136328   2.401   4.619   2.652  0.0402  1.8767 -1.3141
 4971TIP3    H236329   2.546   4.578   2.660  0.2869  3.1076  0.9380
 4972TIP3   OH236330   4.943   4.320  14.553 -0.6565 -0.0876 -0.0687
 4972TIP3    H136331   4.994   4.241  14.534  0.8127  1.4516 -2.8493
 4972TIP3    H236332   4.978   4.352  14.636 -0.4094 -1.6460  0.4579
 4973TIP3   OH236333   4.826   2.859   0.481  0.1927 -0.0624  0.0587
 4973TIP3    H136334   4.748   2.828   0.434 -0.2948  1.3545 -0.0852
 4973TIP3    H236335   4.899   2.839   0.421 -0.1854 -0.2587 -0.3396
 4974TIP3   OH236336   2.584   2.302   0.676  0.2124  0.0846  0.1125
 4974TIP3    H136337   2.632   2.261   0.747  0.6197 -1.9821 -1.3100
 4974TIP3    H236338   2.492   2.297   0.703  0.5306  1.2261  1.4307
 4975TIP3   OH236339   3.149   1.401   0.527 -0.0406  0.3885 -0.4593
 4975TIP3    H136340   3.140   1.376   0.435 -0.6679  1.1542 -0.6063
 4975TIP3    H236341   3.059   1.415   0.557  0.2490  1.6592 -0.1616
 4976TIP3   OH236342   6.379   5.576  12.071 -0.0696 -0.2091 -0.5115
 4976TIP3    H136343   6.308   5.640  12.082 -1.5431 -1.8945  0.1426
 4976TIP3    H236344   6.456   5.617  12.110 -0.5127  1.9537 -1.8652
 4977TIP3   OH236345   2.085   3.147  17.016 -0.0891 -0.3061  0.1477
 4977TIP3    H136346   2.021   3.087  16.976  0.9870 -1.2832 -0.1192
 4977TIP3    H236347   2.056   3.234  16.989  0.7390 -0.9396 -3.0007
 4978TIP3   OH236348   1.305   4.638   2.684 -0.4983  0.0015 -0.5098
 4978TIP3    H136349   1.325   4.648   2.591 -1.6331 -0.6223 -0.8396
 4978TIP3    H236350   1.329   4.721   2.724  0.8871 -0.0590 -1.1972
 4979TIP3   OH236351   2.930   6.274  12.783 -0.3091 -0.1059 -0.3614
 4979TIP3    H136352   2.908   6.322  12.703  1.8826 -0.2536 -1.0725
 4979TIP3    H236353   2.938   6.183  12.755  0.7849 -0.1101 -0.0596
 4980TIP3   OH236354   3.841   0.163  13.461 -0.0039 -0.0749  0.0971
 4980TIP3    H136355   3.860   0.228  13.529  1.5524 -0.1950 -0.2085
 4980TIP3    H236356   3.881   0.200  13.382  0.7434 -1.3349 -0.1164
 4981TIP3   OH236357   0.175   1.990  14.608 -0.9621 -0.4876 -0.4078
 4981TIP3    H136358   0.199   2.075  14.645  0.0929 -1.4206  1.1263
 4981TIP3    H236359   0.255   1.960  14.565 -1.0895 -1.0736 -0.2333
 4982TIP3   OH236360   1.689   0.951  14.196 -0.2630  0.2445  0.4261
 4982TIP3    H136361   1.748   1.024  14.217 -0.3995  0.9215 -1.4165
 4982TIP3    H236362   1.617   0.960  14.259 -0.0252  1.4116  0.5518
 4983TIP3   OH236363   2.105   4.985   2.333 -0.4845  0.5918  0.2415
 4983TIP3    H136364   2.019   4.992   2.293  0.1742 -0.8035 -1.4574
 4983TIP3    H236365   2.161   5.044   2.283  0.4093 -1.3746 -1.1571
 4984TIP3   OH236366   3.700   6.000   3.608 -0.1453 -0.2730  0.1093
 4984TIP3    H136367   3.668   6.084   3.577  0.0545  0.2434  1.2804
 4984TIP3    H236368   3.760   5.970   3.540 -0.7667  0.1788 -0.6543
 4985TIP3   OH236369   0.811   0.681  14.970  0.3668  0.6571  0.3385
 4985TIP3    H136370   0.874   0.687  15.041 -0.0490 -1.9856  0.9728
 4985TIP3    H236371   0.849   0.735  14.900  2.0936  1.1074  1.5819
 4986TIP3   OH236372   6.026   0.847  10.515 -0.4817  0.1236  0.2014
 4986TIP3    H136373   6.014   0.822  10.423 -0.4926  0.8113  0.0070
 4986TIP3    H236374   5.949   0.813  10.559 -0.8946  0.5106 -0.2053
 4987TIP3   OH236375   4.025   0.002   3.695  0.1552 -0.1562  0.3549
 4987TIP3    H136376   3.983   0.076   3.651 -0.4387 -1.3081 -1.0914
 4987TIP3    H236377   4.043  -0.060   3.624 -0.4919 -1.9147  1.7054
 4988TIP3   OH236378   5.944   5.900   0.820 -0.2442  0.2941  0.4249
 4988TIP3    H136379   5.877   5.964   0.795  0.7021  1.5771  1.0834
 4988TIP3    H236380   5.949   5.907   0.916 -0.5801 -1.2553  0.5767
 4989TIP3   OH236381   0.689   1.893   2.915 -0.2853 -0.1692  0.0871
 4989TIP3    H136382   0.651   1.980   2.926  0.6523  0.4674 -1.5746
 4989TIP3    H236383   0.619   1.842   2.874 -1.8633 -1.0545  3.6636
 4990TIP3   OH236384   5.172   6.749  15.520  0.1539 -0.1387 -0.0959
 4990TIP3    H136385   5.252   6.708  15.486  0.5162  0.2652  0.2636
 4990TIP3    H236386   5.141   6.688  15.588  0.7964  0.2707  0.5737
 4991TIP3   OH236387   4.546   0.226  14.944 -0.0298  0.9050  0.5222
 4991TIP3    H136388   4.491   0.151  14.921  0.3841  0.2964  1.4740
 4991TIP3    H236389   4.526   0.292  14.877 -1.1175  0.3064  0.2414
 4992TIP3   OH236390   4.923   3.541   2.135  0.3984  0.0922  0.0995
 4992TIP3    H136391   4.848   3.541   2.194 -0.0975  0.3123 -0.5342
 4992TIP3    H236392   4.886   3.533   2.047  1.0861  0.6537 -0.2486
 4993TIP3   OH236393   4.994   5.245   0.591  0.2314  0.5853  0.2190
 4993TIP3    H136394   4.995   5.339   0.575 -0.3694  0.4330 -0.7805
 4993TIP3    H236395   5.085   5.217   0.583  0.2975  0.9531 -0.2696
 4994TIP3   OH236396   0.709   4.128   5.006 -0.0746 -0.3776  0.1380
 4994TIP3    H136397   0.736   4.107   5.096 -1.2885  0.2971  0.6776
 4994TIP3    H236398   0.682   4.045   4.969  1.3522 -0.8221  0.0739
 4995TIP3   OH236399   6.463   3.601   3.879  0.0595 -0.6852 -0.3292
 4995TIP3    H136400   6.428   3.619   3.791  0.0336 -0.7021 -0.3227
 4995TIP3    H236401   6.499   3.684   3.908 -5.2695  0.9840  2.0928
 4996TIP3   OH236402   5.011   0.494  13.513 -0.5244  0.3906 -0.2721
 4996TIP3    H136403   5.051   0.415  13.478  0.5092  0.1669  1.3324
 4996TIP3    H236404   5.028   0.561  13.448 -0.3610 -0.4353 -1.0909
 4997TIP3   OH236405   5.750   6.059   0.726  0.8892  0.1919 -0.6487
 4997TIP3    H136406   5.805   6.104   0.662  1.7098 -0.8392 -0.6934
 4997TIP3    H236407   5.706   5.991   0.675  0.1470  0.5288 -0.4626
 4998TIP3   OH236408   1.450   5.808   2.500 -0.3250 -0.1009 -0.0721
 4998TIP3    H136409   1.385   5.874   2.523  0.7771  0.4182  1.6380
 4998TIP3    H236410   1.422   5.729   2.548  0.3464  0.1502  0.7403
 4999TIP3   OH236411   0.827   5.043   4.908  0.5294 -0.4251  0.0009
 4999TIP3    H136412   0.765   5.099   4.955  1.0330  0.6913 -0.6422
 4999TIP3    H236413   0.889   5.016   4.975  0.0231 -0.5850  0.4111
 5000TIP3   OH236414   1.805   1.343  11.152 -0.2144  0.4300  0.4980
 5000TIP3    H136415   1.717   1.377  11.136  0.1768  1.5595  0.6945
 5000TIP3    H236416   1.804   1.255  11.113 -0.8441  1.1464 -1.1564
 5001TIP3   OH236417   3.989   1.754   6.264  0.6301 -0.0835  0.1230
 5001TIP3    H136418   4.038   1.739   6.345  1.0758  0.1423 -0.1044
 5001TIP3    H236419   4.012   1.843   6.238 -1.4404  0.7588  1.0685
 5002TIP3   OH236420   5.442   1.579  12.641  0.2279 -0.0338 -0.1886
 5002TIP3    H136421   5.472   1.494  12.673 -0.4637 -0.8818 -1.7194
 5002TIP3    H236422   5.504   1.601  12.572 -1.1991 -0.6277 -1.6785
 5003TIP3   OH236423   4.856   2.902   0.867  0.1667  0.0754  0.1004
 5003TIP3    H136424   4.930   2.913   0.807 -0.4849 -2.4448 -1.2652
 5003TIP3    H236425   4.781   2.936   0.818  0.2580  1.8871  1.1714
 5004TIP3   OH236426   2.310   3.575   2.763  0.2310 -0.0665 -0.2860
 5004TIP3    H136427   2.258   3.572   2.683 -0.5767 -0.6722  0.2536
 5004TIP3    H236428   2.292   3.492   2.806  1.2063 -0.0416  0.1905
 5005TIP3   OH236429   6.430   6.285  16.332 -0.4593  0.1762  0.3204
 5005TIP3    H136430   6.419   6.239  16.249  1.3094  1.2259 -0.5280
 5005TIP3    H236431   6.468   6.369  16.308  1.1231  0.0665  2.2787
 5006TIP3   OH236432   6.270   1.184   2.652 -0.1446 -0.4305 -0.2904
 5006TIP3    H136433   6.200   1.136   2.607  0.5463  0.4217 -2.2896
 5006TIP3    H236434   6.236   1.196   2.741 -2.5869  0.0261 -1.2427
 5007TIP3   OH236435   1.003   4.740   0.415 -0.2192 -0.0929  0.2419
 5007TIP3    H136436   1.096   4.752   0.398  0.0881 -0.4874  1.6095
 5007TIP3    H236437   0.980   4.811   0.476 -0.7199 -0.2544  0.2471
 5008TIP3   OH236438   6.597   4.822   2.248 -0.0336 -0.1015 -0.2731
 5008TIP3    H136439   6.680   4.860   2.278 -1.1007  1.0305  1.3750
 5008TIP3    H236440   6.617   4.785   2.162  1.7527  1.7070 -0.6914
 5009TIP3   OH236441   2.662   1.404   2.013  0.6839  0.7293  0.8513
 5009TIP3    H136442   2.748   1.436   1.987  0.0540  0.7660 -1.3399
 5009TIP3    H236443   2.601   1.457   1.962 -0.5331 -0.9578  0.4891
 5010TIP3   OH236444   5.299   0.733  12.717  0.1923 -0.6800 -0.5462
 5010TIP3    H136445   5.357   0.806  12.695  0.8812 -1.3776 -1.0553
 5010TIP3    H236446   5.346   0.655  12.687 -0.0765 -1.4227  0.9329
 5011TIP3   OH236447   3.440   1.057   3.706  0.1722 -0.1094 -0.3082
 5011TIP3    H136448   3.352   1.035   3.736  0.0371  0.6015 -0.1790
 5011TIP3    H236449   3.496   1.046   3.783  0.2584 -0.9086 -0.4786
 5012TIP3   OH236450   2.742   1.678   4.506  0.0087 -0.3517 -0.3724
 5012TIP3    H136451   2.709   1.624   4.435  2.6714 -0.2875 -1.7066
 5012TIP3    H236452   2.832   1.650   4.519 -0.5294 -0.6722  3.3232
 5013TIP3   OH236453   2.269   6.010   6.230 -0.5861  0.0264  0.5071
 5013TIP3    H136454   2.178   5.998   6.259 -1.1627  0.5796 -1.0471
 5013TIP3    H236455   2.284   5.940   6.168 -0.0001  0.0488  0.6233
 5014TIP3   OH236456   5.654   2.671   2.851  0.4036  0.7562 -0.4930
 5014TIP3    H136457   5.742   2.666   2.815  1.2900 -0.2711  1.7369
 5014TIP3    H236458   5.624   2.759   2.830  1.4672  0.6820 -2.3586
 5015TIP3   OH236459   2.870   0.530  14.431  0.5953 -0.0091  0.2137
 5015TIP3    H136460   2.867   0.508  14.524 -2.1505  0.2716  0.2310
 5015TIP3    H236461   2.859   0.625  14.429 -1.1854 -0.2151 -0.4629
 5016TIP3   OH236462   6.140   4.462   0.233  0.2811  0.0227  0.0945
 5016TIP3    H136463   6.110   4.372   0.242 -1.3719  0.5895  0.2865
 5016TIP3    H236464   6.220   4.466   0.287 -0.6256 -0.8578  1.5266
 5017TIP3   OH236465   1.812   5.508   3.940  0.3051 -0.3037 -0.4924
 5017TIP3    H136466   1.740   5.544   3.991 -0.1548 -1.0198 -0.6222
 5017TIP3    H236467   1.806   5.553   3.855  0.7419  0.4957 -0.1007
 5018TIP3   OH236468   6.190   5.803  16.073 -0.1339  0.1791 -0.4652
 5018TIP3    H136469   6.251   5.877  16.080  0.3737 -0.1524 -1.3183
 5018TIP3    H236470   6.155   5.809  15.984 -0.9832  0.0760 -0.1425
 5019TIP3   OH236471   4.435   0.427  14.508 -0.3215  0.3620  0.5076
 5019TIP3    H136472   4.354   0.397  14.466 -1.2671  1.5368  1.4757
 5019TIP3    H236473   4.475   0.485  14.443 -0.3954  0.0192  0.1497
 5020TIP3   OH236474   3.895   2.174  15.272 -0.3097 -0.4616 -0.3378
 5020TIP3    H136475   3.869   2.258  15.309 -0.3388  0.4611 -2.3975
 5020TIP3    H236476   3.879   2.183  15.178 -1.2841 -3.1339 -0.4703
 5021TIP3   OH236477   4.998   1.732  15.048 -0.0142  0.0742  0.2476
 5021TIP3    H136478   5.004   1.685  15.131 -0.0355  0.8962  0.7249
 5021TIP3    H236479   4.907   1.722  15.021 -0.2336  0.5498  0.7846
 5022TIP3   OH236480   1.875   4.870   0.246  0.1780 -0.1246 -0.0273
 5022TIP3    H136481   1.791   4.855   0.290 -0.5638  1.6399 -0.8108
 5022TIP3    H236482   1.908   4.951   0.285  0.5833  0.2347 -1.1178
 5023TIP3   OH236483   5.320   1.702  16.842 -0.2484  0.5349 -0.0239
 5023TIP3    H136484   5.300   1.630  16.903  1.8063  1.9521  2.4623
 5023TIP3    H236485   5.375   1.662  16.775 -0.9808 -0.6912  0.1003
 5024TIP3   OH236486   1.808   0.614  12.047  0.4224 -0.5688 -0.2154
 5024TIP3    H136487   1.735   0.558  12.019  1.2486 -1.0976 -1.3303
 5024TIP3    H236488   1.868   0.555  12.092  0.5870 -0.2848 -0.0584
 5025TIP3   OH236489   3.415   5.423  16.026  0.4222  0.1427 -0.5736
 5025TIP3    H136490   3.495   5.476  16.032  0.7888 -0.2151 -2.1325
 5025TIP3    H236491   3.344   5.487  16.023  0.7199  0.4895 -0.3320
 5026TIP3   OH236492   1.264   5.977   2.584  0.0030 -0.0786 -0.4697
 5026TIP3    H136493   1.191   6.025   2.544 -0.1239 -0.6496 -0.9212
 5026TIP3    H236494   1.272   6.015   2.672 -0.2291  0.6319 -0.7481
 5027TIP3   OH236495   4.415   2.056  15.282  0.6189  0.3759  0.0106
 5027TIP3    H136496   4.369   1.991  15.334 -0.2603 -0.5977 -1.9309
 5027TIP3    H236497   4.500   2.017  15.264  1.2452  1.0679  1.3872
 5028TIP3   OH236498   2.823   0.148  12.944 -0.0643 -0.4474 -1.1342
 5028TIP3    H136499   2.843   0.239  12.965 -0.8889 -0.4337 -0.3683
 5028TIP3    H236500   2.898   0.099  12.978  0.1572 -0.1018 -1.1229
 5029TIP3   OH236501   0.290   2.026  10.456 -0.3034  0.3340 -0.3078
 5029TIP3    H136502   0.265   2.113  10.424 -1.0836 -0.1405 -1.0314
 5029TIP3    H236503   0.223   2.005  10.521 -0.3335  0.1214 -0.4077
 5030TIP3   OH236504   0.966   3.753   5.168  0.1822  0.0987  0.2257
 5030TIP3    H136505   0.928   3.672   5.203  0.3630  0.1643  0.5778
 5030TIP3    H236506   1.046   3.765   5.219  0.8101 -0.1802 -0.6940
 5031TIP3   OH236507   3.980   0.197   4.055  0.2387  0.0281 -0.1616
 5031TIP3    H136508   4.013   0.111   4.026  0.4040  0.2756 -0.7282
 5031TIP3    H236509   4.059   0.250   4.066  0.1013  0.2859 -0.4080
 5032TIP3   OH236510   0.657   5.629   0.206 -0.6827  0.0176  0.4950
 5032TIP3    H136511   0.623   5.547   0.170 -1.9519  1.3913 -1.5500
 5032TIP3    H236512   0.746   5.635   0.170 -1.0205  0.1179 -0.3362
 5033TIP3   OH236513   1.553   5.533  17.213  0.0377  0.1849  0.0715
 5033TIP3    H136514   1.615   5.568  17.278 -1.2347  1.1977  0.7804
 5033TIP3    H236515   1.608   5.501  17.142  1.4827 -0.9790  1.6528
 5034TIP3   OH236516   5.153   3.655   2.094  0.4026  0.2305 -0.0170
 5034TIP3    H136517   5.076   3.611   2.130 -0.1256 -0.3940 -1.8866
 5034TIP3    H236518   5.138   3.748   2.111 -1.0661  0.1644 -0.9243
 5035TIP3   OH236519   3.043   6.044  14.710 -0.4159 -0.2098 -0.6289
 5035TIP3    H136520   3.059   5.966  14.763 -1.9132  0.0469  0.2249
 5035TIP3    H236521   3.050   6.117  14.772 -0.9536  0.1773 -1.0164
 5036TIP3   OH236522   2.252   5.792  11.476 -0.3763  0.2621 -0.5898
 5036TIP3    H136523   2.342   5.765  11.496  0.0247  0.8474 -1.5772
 5036TIP3    H236524   2.236   5.758  11.387 -1.4300 -0.5690 -0.0980
 5037TIP3   OH236525   5.834   0.570   5.824 -0.0002 -0.1527  0.0996
 5037TIP3    H136526   5.902   0.577   5.891  0.4576  0.7083 -0.4278
 5037TIP3    H236527   5.872   0.514   5.757 -0.9902 -2.1434  1.1721
 5038TIP3   OH236528   2.456   0.879   2.326  0.4311  0.6410  0.5509
 5038TIP3    H136529   2.466   0.891   2.421 -0.7498 -0.9325  0.9016
 5038TIP3    H236530   2.448   0.968   2.292  1.3415  1.2553  1.8631
 5039TIP3   OH236531   2.582   1.313  14.630 -0.8422  0.2251 -1.3695
 5039TIP3    H136532   2.587   1.251  14.558  0.7392 -2.0886  0.6985
 5039TIP3    H236533   2.671   1.319  14.664 -1.6694  0.8164  0.7767
 5040TIP3   OH236534   1.361   6.772  14.818 -0.0892  0.0043  0.2056
 5040TIP3    H136535   1.390   6.748  14.906  1.1710 -0.5569 -0.3444
 5040TIP3    H236536   1.342   6.865  14.823  0.0825 -0.0062  1.0532
 5041TIP3   OH236537   2.337   1.253   5.688  0.3542  0.4712  0.6211
 5041TIP3    H136538   2.359   1.252   5.781  0.5435 -0.2682  0.5711
 5041TIP3    H236539   2.421   1.266   5.643  0.2902  0.6263  0.5448
 5042TIP3   OH236540   1.630   3.502  12.689 -0.4323 -0.0151 -0.0606
 5042TIP3    H136541   1.578   3.460  12.757  0.1391  0.4744  0.6912
 5042TIP3    H236542   1.676   3.573  12.734 -0.3362  0.5580 -1.0322
 5043TIP3   OH236543   6.558   6.776  16.489 -0.4478  1.0396  0.0891
 5043TIP3    H136544   6.476   6.821  16.473 -0.2048  1.0979 -0.9911
 5043TIP3    H236545   6.545   6.732  16.573 -2.0012  0.1096 -0.6144
 5044TIP3   OH236546   1.089   4.112  12.630  0.0118 -0.0242  0.3663
 5044TIP3    H136547   1.141   4.108  12.711 -0.3554 -0.6153  0.5765
 5044TIP3    H236548   1.051   4.025  12.622 -1.1610  0.4911  0.3572
 5045TIP3   OH236549   5.420   3.929   6.770 -0.7062  0.4896  0.8245
 5045TIP3    H136550   5.403   3.843   6.808  1.6841  0.0753  0.9964
 5045TIP3    H236551   5.397   3.920   6.678 -2.7524  0.3872  1.3072
 5046TIP3   OH236552   1.531   1.354  16.840  0.4286  0.1308 -0.8072
 5046TIP3    H136553   1.521   1.431  16.784  1.4636  0.0039 -1.1764
 5046TIP3    H236554   1.615   1.367  16.883 -0.2746  0.1301  0.5789
 5047TIP3   OH236555   4.532   5.519  15.934 -0.4659 -0.4847  0.0545
 5047TIP3    H136556   4.476   5.568  15.875 -0.2807 -0.9753 -0.5293
 5047TIP3    H236557   4.605   5.578  15.953 -1.8463  0.6863  1.9076
 5048TIP3   OH236558   2.450   2.203   2.084 -0.0272  0.1992  0.7653
 5048TIP3    H136559   2.387   2.142   2.046  1.9725 -0.0416 -2.4025
 5048TIP3    H236560   2.410   2.289   2.072  0.2332  0.0612 -1.3335
 5049TIP3   OH236561   0.120   2.435  12.535  0.3186 -0.0960 -0.1067
 5049TIP3    H136562   0.200   2.487  12.526 -0.7985  1.7784  0.5999
 5049TIP3    H236563   0.049   2.498  12.526 -1.1059 -1.8258 -1.2058
 5050TIP3   OH236564   0.101   5.293   3.644  0.8841  0.2729  0.1000
 5050TIP3    H136565   0.157   5.224   3.680 -0.1733  0.6643  2.5702
 5050TIP3    H236566   0.076   5.261   3.557  1.0028 -2.1284  0.9275
 5051TIP3   OH236567   6.204   6.020   7.011 -0.3965  0.2881 -0.0462
 5051TIP3    H136568   6.205   6.108   6.974 -0.4550  0.6224  0.7413
 5051TIP3    H236569   6.118   5.985   6.988  0.0942 -0.0288 -1.4347
 5052TIP3   OH236570   3.981   6.197  16.697 -0.2355 -0.3358 -0.4335
 5052TIP3    H136571   3.897   6.230  16.666  0.1548  1.5723  0.4413
 5052TIP3    H236572   4.043   6.220  16.627 -0.1632 -0.2650 -0.3477
 5053TIP3   OH236573   1.066   6.256   6.587 -0.3134 -0.2066  0.4055
 5053TIP3    H136574   1.155   6.229   6.565 -0.6301 -0.6798 -0.3477
 5053TIP3    H236575   1.037   6.194   6.654  0.4261  0.8262  1.6771
 5054TIP3   OH236576   4.954   3.933   4.287 -0.4365 -0.1696  0.1196
 5054TIP3    H136577   4.907   4.016   4.290 -0.8403 -0.4347  1.1059
 5054TIP3    H236578   4.913   3.885   4.214 -1.6483 -0.3659  0.9173
 5055TIP3   OH236579   3.869   1.060   6.120  0.4020  0.5469 -0.3694
 5055TIP3    H136580   3.905   1.131   6.174 -0.4572  0.8872 -0.2427
 5055TIP3    H236581   3.943   1.032   6.066  1.2382  0.3192  0.8514
 5056TIP3   OH236582   5.367   5.777  13.643  0.2113  0.0164  0.3090
 5056TIP3    H136583   5.328   5.745  13.724 -0.4333  0.8488  0.3395
 5056TIP3    H236584   5.423   5.706  13.613 -1.2261 -1.1303  0.3384
 5057TIP3   OH236585   6.209   0.189  16.152 -0.2260 -0.2435  0.0462
 5057TIP3    H136586   6.169   0.268  16.115 -2.3208 -1.9891 -1.5884
 5057TIP3    H236587   6.292   0.181  16.105  0.0591  1.0551  0.3100
 5058TIP3   OH236588   4.725   5.234   4.459  0.5629 -0.9089  0.6065
 5058TIP3    H136589   4.661   5.251   4.528  1.4232 -0.7456  1.3685
 5058TIP3    H236590   4.767   5.318   4.444 -0.3983 -0.6792 -0.9302
 5059TIP3   OH236591   2.959   6.299   5.467  0.0903  0.5747  0.1624
 5059TIP3    H136592   2.907   6.281   5.389  1.6758  0.1216 -0.8180
 5059TIP3    H236593   3.046   6.268   5.445  0.7515  1.1913  1.8267
 5060TIP3   OH236594   3.158   2.130   2.335  0.1823 -0.3923  0.1600
 5060TIP3    H136595   3.232   2.121   2.275  1.5382 -1.4928  1.9330
 5060TIP3    H236596   3.197   2.160   2.417 -1.6370  1.1288  0.4933
 5061TIP3   OH236597   6.139   3.859  13.371  0.3722 -0.2536  0.2675
 5061TIP3    H136598   6.147   3.778  13.321 -0.9909 -1.4526  1.9161
 5061TIP3    H236599   6.122   3.927  13.306 -0.1091 -1.5664 -0.9837
 5062TIP3   OH236600   0.647   1.036  12.952  0.1726 -0.4432 -0.3053
 5062TIP3    H136601   0.592   0.971  12.909  0.0920 -0.4288 -0.2246
 5062TIP3    H236602   0.605   1.050  13.037  1.1938 -1.6064  0.3938
 5063TIP3   OH236603   2.454   0.002  11.884  0.1186  0.4837  0.2486
 5063TIP3    H136604   2.499   0.084  11.864  2.1046 -0.6697 -0.1361
 5063TIP3    H236605   2.518  -0.048  11.935 -0.3739 -1.5872 -1.1511
 5064TIP3   OH236606   2.879   4.594  17.179 -0.7120 -0.8317  0.7465
 5064TIP3    H136607   2.923   4.518  17.218  1.1375  0.5305  1.4310
 5064TIP3    H236608   2.938   4.622  17.109  0.6999  2.3330  3.0669
 5065TIP3   OH236609   1.345   5.574   3.036  0.5826 -0.0517  0.1938
 5065TIP3    H136610   1.331   5.663   3.004  0.6322  0.1320  0.6777
 5065TIP3    H236611   1.287   5.520   2.983 -0.0062  0.3672  0.4020
 5066TIP3   OH236612   0.275   4.605   1.201 -0.4181  0.7235  0.2039
 5066TIP3    H136613   0.317   4.536   1.150 -0.7356  0.3177  0.4797
 5066TIP3    H236614   0.182   4.594   1.184 -0.5471  0.4176  1.0584
 5067TIP3   OH236615   2.467   5.307  13.479 -0.3945 -0.0162  0.6608
 5067TIP3    H136616   2.398   5.248  13.449 -0.5478  0.5143 -0.0370
 5067TIP3    H236617   2.467   5.379  13.416  1.2643 -0.3455  0.2415
 5068TIP3   OH236618   0.479   1.947   5.143 -0.3099  0.0107 -0.2388
 5068TIP3    H136619   0.470   1.971   5.050 -0.2300  1.4219  0.1117
 5068TIP3    H236620   0.567   1.974   5.166 -0.5606  0.2627  0.4292
 5069TIP3   OH236621   4.190   3.361   5.429 -0.1558  0.1525  0.3495
 5069TIP3    H136622   4.203   3.351   5.335  0.5451  1.8876  0.2320
 5069TIP3    H236623   4.240   3.289   5.468  0.2318 -0.0845 -0.5704
 5070TIP3   OH236624   3.559   6.409  13.365  0.1124  0.3920 -0.5057
 5070TIP3    H136625   3.498   6.396  13.292 -1.1243 -1.2564  0.7802
 5070TIP3    H236626   3.536   6.340  13.428  2.7628  0.2601  0.3817
 5071TIP3   OH236627   0.358   3.436   2.755  0.1805 -0.3006  0.0313
 5071TIP3    H136628   0.380   3.389   2.835 -1.1432 -1.3059 -0.1661
 5071TIP3    H236629   0.361   3.369   2.686 -0.4337  0.1766 -0.4626
 5072TIP3   OH236630   1.448   0.043  13.632 -0.1064 -0.1704  0.0064
 5072TIP3    H136631   1.440  -0.048  13.604  0.4262  0.3213 -1.8025
 5072TIP3    H236632   1.513   0.041  13.702  1.6793 -0.8877 -1.6134
 5073TIP3   OH236633   2.397   0.532  12.895 -0.1510  0.2782  0.0980
 5073TIP3    H136634   2.466   0.469  12.876 -1.9292 -1.6263 -0.3004
 5073TIP3    H236635   2.316   0.480  12.892 -1.5182  2.2469  1.4590
 5074TIP3   OH236636   4.054   3.213   2.906  0.3757  0.3937  0.2893
 5074TIP3    H136637   4.058   3.232   2.812  1.2300  2.1355  0.6562
 5074TIP3    H236638   4.103   3.285   2.947 -0.8836  0.2227  2.1431
 5075TIP3   OH236639   4.154   1.312  12.148 -0.0964  0.6654 -0.6107
 5075TIP3    H136640   4.100   1.382  12.109 -0.8428  0.4126 -0.0455
 5075TIP3    H236641   4.181   1.348  12.233 -1.4969 -0.1838  0.2221
 5076TIP3   OH236642   1.896   5.617  10.636 -0.4877  0.0184 -0.6073
 5076TIP3    H136643   1.886   5.701  10.591 -0.1233 -0.1426 -0.9890
 5076TIP3    H236644   1.991   5.604  10.641 -0.5557 -0.5501 -0.8691
 5077TIP3   OH236645   5.468   2.258   6.276 -0.1430 -0.0756 -0.3605
 5077TIP3    H136646   5.497   2.313   6.349  0.4430  0.4940 -1.0251
 5077TIP3    H236647   5.510   2.173   6.293  0.0766  0.0846 -0.0853
 5078TIP3   OH236648   1.364   4.529  12.476 -0.4738 -0.1299  0.1915
 5078TIP3    H136649   1.337   4.455  12.530 -1.1414  1.0346  1.4740
 5078TIP3    H236650   1.439   4.567  12.522 -0.5127  0.3586 -0.1434
 5079TIP3   OH236651   4.759   2.123  16.223 -0.3591 -0.1931 -0.2973
 5079TIP3    H136652   4.775   2.216  16.207  1.1578 -0.4883 -0.6416
 5079TIP3    H236653   4.713   2.093  16.144 -1.7170  0.4630  0.2347
 5080TIP3   OH236654   3.181   0.808   1.011  0.1855  0.0192  0.2886
 5080TIP3    H136655   3.178   0.825   0.917 -0.2491 -0.5675  0.1919
 5080TIP3    H236656   3.090   0.789   1.035  0.0442  1.7233  1.1304
 5081TIP3   OH236657   2.631   3.761  11.860  0.4605  0.2854 -0.0650
 5081TIP3    H136658   2.716   3.733  11.826  0.4073  0.4607 -0.3509
 5081TIP3    H236659   2.569   3.742  11.789 -0.3444 -3.1867  1.4780
 5082TIP3   OH236660   0.749   1.389  16.314  0.6885  0.6416  0.1280
 5082TIP3    H136661   0.756   1.322  16.382  0.8633  1.3585  0.8316
 5082TIP3    H236662   0.655   1.402  16.303  0.6577  1.8681  1.6080
 5083TIP3   OH236663   1.017   3.329   2.159 -0.5753  0.3010  0.6596
 5083TIP3    H136664   1.066   3.260   2.205  1.9075 -0.3342 -2.7276
 5083TIP3    H236665   0.987   3.387   2.228  1.4814 -1.5439  3.2244
 5084TIP3   OH236666   4.062   6.230   0.423 -0.0522  0.2024 -0.2116
 5084TIP3    H136667   4.150   6.259   0.446 -0.2313  1.4779 -1.0920
 5084TIP3    H236668   4.053   6.144   0.464  1.9829 -0.3894 -0.9683
 5085TIP3   OH236669   2.433   5.571  11.362 -0.1767 -0.0912 -0.2435
 5085TIP3    H136670   2.526   5.549  11.373  0.0446  0.6000 -0.6377
 5085TIP3    H236671   2.406   5.522  11.284  0.7892  2.3324 -2.1964
 5086TIP3   OH236672   3.717   4.483   4.620 -0.3304 -0.0654  0.2214
 5086TIP3    H136673   3.792   4.542   4.625 -1.3535  1.1350  1.7918
 5086TIP3    H236674   3.650   4.534   4.573 -0.4719 -0.8190 -0.4153
 5087TIP3   OH236675   0.032   4.175   3.679 -0.9398  0.0788 -0.6228
 5087TIP3    H136676   0.012   4.165   3.586  0.6883 -1.3694 -0.8426
 5087TIP3    H236677   0.126   4.157   3.686 -0.4750  2.7639  0.9274
 5088TIP3   OH236678   0.440   5.013   3.237 -0.1950 -0.5846 -0.1213
 5088TIP3    H136679   0.437   5.005   3.332 -1.2849  2.8999  0.2199
 5088TIP3    H236680   0.529   4.986   3.213  0.5852 -0.0484  2.0562
 5089TIP3   OH236681   4.548   6.212  14.506  0.2246  0.3357 -0.1193
 5089TIP3    H136682   4.578   6.194  14.595  0.2328  1.6705  0.1600
 5089TIP3    H236683   4.593   6.293  14.482  1.2926 -0.7416 -1.8658
 5090TIP3   OH236684   3.752   2.672   2.638  0.0583 -0.4958 -0.5763
 5090TIP3    H136685   3.779   2.603   2.698  0.4612 -0.3001 -0.5343
 5090TIP3    H236686   3.707   2.736   2.694  2.3529  0.7648 -0.1017
 5091TIP3   OH236687   1.147   2.188   5.701 -0.2960 -0.3293  0.4469
 5091TIP3    H136688   1.158   2.098   5.731 -0.5596 -0.9460 -1.2405
 5091TIP3    H236689   1.166   2.242   5.777  1.7885 -1.7443  0.9555
 5092TIP3   OH236690   6.708   3.346   6.154 -0.4860  0.6724 -0.1777
 5092TIP3    H136691   6.766   3.276   6.183 -2.2160 -0.4050  0.7603
 5092TIP3    H236692   6.681   3.389   6.235 -1.1512  1.0506 -0.5984
 5093TIP3   OH236693   2.961   2.580   5.320 -0.5315 -0.1283 -0.1638
 5093TIP3    H136694   2.952   2.560   5.413 -1.8138  0.4018 -0.1606
 5093TIP3    H236695   2.900   2.520   5.277 -0.5677  0.2101 -0.5828
 5094TIP3   OH236696   3.700   4.012  17.046  0.5289 -0.3027 -0.6142
 5094TIP3    H136697   3.676   4.032  16.955 -1.4981  2.4619  0.4441
 5094TIP3    H236698   3.795   4.019  17.048  0.4814  1.2821 -2.1848
 5095TIP3   OH236699   5.516   1.788   0.047  0.1856 -0.1176  0.1279
 5095TIP3    H136700   5.563   1.749   0.121  0.7968  0.1094 -0.1309
 5095TIP3    H236701   5.426   1.756   0.055  0.2458 -0.0795  0.9764
 5096TIP3   OH236702   4.822   5.500  16.878 -0.3004 -0.3632 -0.0363
 5096TIP3    H136703   4.799   5.409  16.859  0.5425 -0.4319 -0.7479
 5096TIP3    H236704   4.751   5.531  16.935 -0.0845 -1.7471  1.0204
 5097TIP3   OH236705   2.269   1.946   6.026  0.1512 -0.1099  0.0530
 5097TIP3    H136706   2.202   1.997   6.071  0.7034 -0.1487  0.9330
 5097TIP3    H236707   2.350   1.996   6.038  0.8500 -1.5330  1.5891
 5098TIP3   OH236708   2.253   4.287  16.838 -0.6352  0.4185  0.2448
 5098TIP3    H136709   2.321   4.351  16.816  1.0398 -1.6231 -0.6715
 5098TIP3    H236710   2.177   4.316  16.787  0.4068  1.1143 -0.9562
 5099TIP3   OH236711   1.231   0.641  13.110 -0.5784 -0.2656 -0.6031
 5099TIP3    H136712   1.143   0.604  13.101 -0.2350 -0.9198 -1.2986
 5099TIP3    H236713   1.255   0.667  13.021 -0.0464 -0.1417 -0.4233
 5100TIP3   OH236714   4.474   2.182   0.625 -0.2714 -0.4284 -0.1411
 5100TIP3    H136715   4.488   2.087   0.633  0.4786 -0.2464  0.6749
 5100TIP3    H236716   4.554   2.214   0.584 -0.0798  0.0078  0.5796
 5101TIP3   OH236717   5.374   2.016   6.445 -0.6423  0.2903 -0.2253
 5101TIP3    H136718   5.322   2.015   6.364 -1.6897 -1.9857  0.4446
 5101TIP3    H236719   5.461   2.043   6.416 -0.8649 -1.0379 -2.2199
 5102TIP3   OH236720   2.335   1.822   5.050 -1.0875  0.2772  0.1173
 5102TIP3    H136721   2.285   1.844   4.972 -0.5631  0.7914 -0.0771
 5102TIP3    H236722   2.270   1.783   5.110 -1.6337  0.5651 -0.2820
 5103TIP3   OH236723   1.674   6.444   3.999  0.4778  0.1061  0.8904
 5103TIP3    H136724   1.761   6.475   4.026  0.4588  0.6936  0.3116
 5103TIP3    H236725   1.681   6.349   4.000  1.4508  0.1507 -0.1000
 5104TIP3   OH236726   6.677   3.909  12.854 -0.6636 -0.0468  0.0239
 5104TIP3    H136727   6.731   3.927  12.777 -1.7169 -1.2846 -1.0339
 5104TIP3    H236728   6.702   3.976  12.918  2.5871 -0.9671 -0.1990
 5105TIP3   OH236729   1.149   2.496   1.944 -0.0098 -0.3809  0.4893
 5105TIP3    H136730   1.188   2.409   1.945  0.7310 -0.0852 -0.9334
 5105TIP3    H236731   1.117   2.507   1.855 -0.7351  0.5294  0.8511
 5106TIP3   OH236732   6.380   1.726   4.848 -0.0778 -0.3701  0.0060
 5106TIP3    H136733   6.351   1.818   4.845  0.7418 -0.1365 -1.1189
 5106TIP3    H236734   6.472   1.730   4.871  0.3688 -0.8099 -1.6305
 5107TIP3   OH236735   4.884   4.185  12.378  0.2866 -0.2388  0.4130
 5107TIP3    H136736   4.855   4.138  12.299  0.4209 -0.4946  0.5134
 5107TIP3    H236737   4.833   4.266  12.378 -1.4877 -1.3268  1.3584
 5108TIP3   OH236738   2.721   5.372   1.143 -0.0172  0.1978 -0.3494
 5108TIP3    H136739   2.668   5.450   1.158 -1.7741 -1.0440  0.0599
 5108TIP3    H236740   2.766   5.357   1.226 -2.1635 -1.0392  0.6289
 5109TIP3   OH236741   3.273   5.529  15.634 -0.2615 -0.2464 -0.5647
 5109TIP3    H136742   3.304   5.620  15.638 -0.6860 -0.1000 -0.5292
 5109TIP3    H236743   3.183   5.533  15.668 -0.4645 -0.5972 -1.0483
 5110TIP3   OH236744   0.011   2.015   2.258 -0.4133  0.6399 -0.6619
 5110TIP3    H136745   0.039   1.937   2.306 -0.4897  1.0238  0.0030
 5110TIP3    H236746   0.085   2.036   2.202 -0.3747  0.1120 -0.8157
 5111TIP3   OH236747   4.624   4.803  11.849  0.2258 -0.4252 -0.9492
 5111TIP3    H136748   4.582   4.791  11.764  1.0307 -1.1690 -1.2443
 5111TIP3    H236749   4.643   4.714  11.879  1.0578 -0.1125 -0.5493
 5112TIP3   OH236750   6.393   0.519  13.064  0.4965  0.6149  0.3708
 5112TIP3    H136751   6.391   0.527  12.969 -1.8178  0.5338  0.3895
 5112TIP3    H236752   6.351   0.435  13.082 -0.1051  1.1529  1.5214
 5113TIP3   OH236753   2.029   6.431  12.750 -0.5229  0.1832 -0.0643
 5113TIP3    H136754   2.050   6.344  12.783 -1.5618 -0.7703 -1.8070
 5113TIP3    H236755   1.997   6.479  12.826 -1.3782 -1.4502  0.6320
 5114TIP3   OH236756   4.236   1.973   0.604  0.3675 -0.4797  0.1985
 5114TIP3    H136757   4.192   2.053   0.633  1.4458  1.0428 -2.1278
 5114TIP3    H236758   4.274   1.936   0.683 -0.6490  1.0100  1.4178
 5115TIP3   OH236759   4.933   0.547   3.926 -0.2280 -0.0585 -0.1092
 5115TIP3    H136760   4.948   0.637   3.898 -2.2719  0.1493 -0.6264
 5115TIP3    H236761   4.904   0.555   4.017  0.6352 -0.2835  0.1887
 5116TIP3   OH236762   5.436   2.022   0.892  0.7153 -0.1862 -0.0158
 5116TIP3    H136763   5.457   2.115   0.899  0.3662 -0.1269  0.2525
 5116TIP3    H236764   5.395   2.000   0.975  1.4828 -0.7574  0.2175
 5117TIP3   OH236765   5.493   6.177   2.070 -0.0239 -0.6818  0.1169
 5117TIP3    H136766   5.555   6.135   2.129 -0.9543 -0.3121  1.3833
 5117TIP3    H236767   5.547   6.228   2.009  0.8282  1.4181  2.5775
 5118TIP3   OH236768   2.720   5.177  17.065  0.4248 -0.6413  0.0421
 5118TIP3    H136769   2.689   5.140  16.983  0.8433 -0.5313 -0.1651
 5118TIP3    H236770   2.739   5.101  17.120  0.6442 -0.7266 -0.1505
 5119TIP3   OH236771   4.885   2.070   6.685 -0.2974 -0.4697  0.1282
 5119TIP3    H136772   4.971   2.102   6.656 -0.7100 -0.2219 -0.8331
 5119TIP3    H236773   4.893   1.974   6.683 -0.5426 -0.4756 -1.5267
 5120TIP3   OH236774   2.013   1.217   1.847 -0.5511  0.2132 -0.0649
 5120TIP3    H136775   1.969   1.273   1.911  0.7536 -0.0273  1.0731
 5120TIP3    H236776   1.968   1.235   1.765 -2.4069  0.3461  0.9611
 5121TIP3   OH236777   6.110   3.246   1.442  0.3986  0.4773 -0.2325
 5121TIP3    H136778   6.143   3.187   1.509  0.1242  1.3099  0.6366
 5121TIP3    H236779   6.186   3.300   1.419  0.5895 -0.0439 -0.8688
 5122TIP3   OH236780   5.427   5.920  16.093  0.7407  0.0329 -0.0304
 5122TIP3    H136781   5.477   5.859  16.039  2.4920  0.7887  0.6970
 5122TIP3    H236782   5.468   6.005  16.075  0.9221  0.3878  1.9911
 5123TIP3   OH236783   1.662   3.735  11.041 -0.0041  0.4319  0.0538
 5123TIP3    H136784   1.598   3.720  11.110  2.4973  2.1650  2.8993
 5123TIP3    H236785   1.659   3.656  10.987 -0.7912 -1.7903  3.2115
 5124TIP3   OH236786   5.619   1.470  15.317  0.1010  0.1060 -0.6707
 5124TIP3    H136787   5.583   1.406  15.377  0.3813  1.6843  1.2333
 5124TIP3    H236788   5.551   1.537  15.311  0.3475  0.2777 -1.6054
 5125TIP3   OH236789   0.480   2.462   1.767  0.0375  0.1050 -0.4590
 5125TIP3    H136790   0.536   2.452   1.690  1.0731 -3.0398  0.6174
 5125TIP3    H236791   0.541   2.476   1.839 -0.8986  2.2931 -0.0489
 5126TIP3   OH236792   2.274   0.334   6.504 -0.0227  0.0537 -0.1966
 5126TIP3    H136793   2.276   0.239   6.514  0.4156  0.0812 -0.0114
 5126TIP3    H236794   2.345   0.354   6.442  0.1222  0.2883  0.0407
 5127TIP3   OH236795   4.890   1.584  11.679  0.3237  0.1583  0.1881
 5127TIP3    H136796   4.922   1.500  11.712  1.0043  0.4228  0.1920
 5127TIP3    H236797   4.796   1.582  11.699  0.3029 -0.6658  0.0465
 5128TIP3   OH236798   1.390   4.390   0.002  0.0598 -0.3694  0.3899
 5128TIP3    H136799   1.330   4.337  -0.049 -0.4025  1.3012 -0.8535
 5128TIP3    H236800   1.439   4.440  -0.064  0.4575  0.7556  1.5172
 5129TIP3   OH236801   0.844   0.539  12.837 -0.1466 -0.5491  0.1062
 5129TIP3    H136802   0.880   0.581  12.758  1.5295 -1.3784  0.4276
 5129TIP3    H236803   0.761   0.500  12.807  1.4721 -2.6551 -1.7712
 5130TIP3   OH236804   4.747   4.967  16.839  0.3264  0.2197 -0.4060
 5130TIP3    H136805   4.795   4.884  16.845  1.0590  0.6369 -0.3627
 5130TIP3    H236806   4.720   4.985  16.929 -0.6041 -0.4114 -0.5529
 5131TIP3   OH236807   5.772   3.175   4.111 -0.2294 -0.4739  0.2095
 5131TIP3    H136808   5.683   3.139   4.115  0.6928 -2.9427 -0.4966
 5131TIP3    H236809   5.812   3.131   4.037  1.8919 -0.0544  1.0776
 5132TIP3   OH236810   2.745   1.778  11.166  0.5963 -0.0866 -0.2809
 5132TIP3    H136811   2.787   1.692  11.164  1.8466  0.5433 -2.4567
 5132TIP3    H236812   2.688   1.778  11.089  1.0166  1.2512 -0.5892
 5133TIP3   OH236813   4.155   2.716  13.168 -0.3895 -0.1306 -0.6271
 5133TIP3    H136814   4.185   2.688  13.255 -2.6111  0.1552  0.2799
 5133TIP3    H236815   4.131   2.635  13.124 -2.6262 -0.0593  0.3742
 5134TIP3   OH236816   1.221   4.908   3.006 -0.4712  0.0669  1.1128
 5134TIP3    H136817   1.257   4.950   2.928  1.2844 -0.7200  1.4887
 5134TIP3    H236818   1.296   4.869   3.050 -1.6426 -0.7665  2.4309
 5135TIP3   OH236819   3.611   4.366  15.170  0.4484 -0.1188 -0.6014
 5135TIP3    H136820   3.580   4.341  15.258  1.1121  0.5396 -0.1751
 5135TIP3    H236821   3.546   4.328  15.111  0.7638 -1.8262  0.0970
 5136TIP3   OH236822   4.719   0.408   1.125 -0.7169 -0.6586  0.3565
 5136TIP3    H136823   4.681   0.341   1.182 -0.0477 -0.9711  0.4447
 5136TIP3    H236824   4.766   0.466   1.184 -0.5226 -0.6437  0.1892
 5137TIP3   OH236825   1.802   2.116  13.764 -0.3065 -0.1797 -0.5826
 5137TIP3    H136826   1.859   2.075  13.829 -1.0430 -0.1977  0.0657
 5137TIP3    H236827   1.860   2.140  13.692  0.2584 -1.6933 -0.6474
 5138TIP3   OH236828   3.615   3.716   4.813  0.0235  0.2424  0.2663
 5138TIP3    H136829   3.528   3.683   4.789  0.7505 -1.3404 -0.2143
 5138TIP3    H236830   3.613   3.808   4.786 -1.2403  0.0289 -0.4222
 5139TIP3   OH236831   4.397   2.071   4.859  0.1402 -0.2750 -0.3773
 5139TIP3    H136832   4.447   2.106   4.785  0.3099  0.2398 -0.0207
 5139TIP3    H236833   4.421   1.978   4.861  1.2604  0.0074 -0.0854
 5140TIP3   OH236834   3.884   2.839  13.077  0.2612  0.7563  0.1009
 5140TIP3    H136835   3.976   2.863  13.085  1.0736 -2.1006 -0.1063
 5140TIP3    H236836   3.882   2.746  13.097 -2.2911  0.3239 -1.9544
 5141TIP3   OH236837   1.757   1.004   5.252  0.2974 -0.3544 -0.3685
 5141TIP3    H136838   1.796   1.061   5.318  0.0274 -0.8101  0.1824
 5141TIP3    H236839   1.809   0.923   5.256  1.0894  0.0742 -1.5929
 5142TIP3   OH236840   2.159   0.788   2.225 -0.6311 -0.0892  0.0779
 5142TIP3    H136841   2.205   0.809   2.144  0.6431 -1.4318  0.4395
 5142TIP3    H236842   2.228   0.768   2.288 -1.6426  0.0636  1.2517
 5143TIP3   OH236843   6.035   5.017  15.398 -0.0911 -0.2844  0.0648
 5143TIP3    H136844   6.019   5.108  15.374  3.3322 -0.0867 -1.7622
 5143TIP3    H236845   6.031   5.017  15.494 -0.7403  1.6404  0.0699
 5144TIP3   OH236846   5.079   0.785   1.848  0.1323 -0.1075 -0.2653
 5144TIP3    H136847   5.172   0.795   1.829  0.0101  1.9941  0.1116
 5144TIP3    H236848   5.064   0.844   1.922 -1.6054 -0.0361 -0.6633
 5145TIP3   OH236849   0.376   0.085   1.691  0.4827 -0.5549 -0.4811
 5145TIP3    H136850   0.440   0.139   1.737 -1.2278  0.9140  0.2339
 5145TIP3    H236851   0.345   0.023   1.757 -1.2449  0.9087  0.1227
 5146TIP3   OH236852   1.657   2.109   1.564 -0.3648  0.5546 -0.1495
 5146TIP3    H136853   1.743   2.150   1.551 -0.1382  0.3124  0.5568
 5146TIP3    H236854   1.656   2.086   1.657 -1.3591  0.9299 -0.0658
 5147TIP3   OH236855   4.724   0.072   4.795 -0.1799 -0.0385 -0.0815
 5147TIP3    H136856   4.727   0.166   4.813  0.5179 -0.1239  0.2497
 5147TIP3    H236857   4.764   0.032   4.872  1.1147 -0.5059 -0.9881
 5148TIP3   OH236858   2.142   0.096  11.468 -0.8523  0.1583  0.2461
 5148TIP3    H136859   2.227   0.130  11.439  0.0261 -1.1196  1.2854
 5148TIP3    H236860   2.078   0.153  11.425  0.5249  1.2063 -0.4642
 5149TIP3   OH236861   5.349   2.555  15.996 -0.3545  0.7773 -0.3933
 5149TIP3    H136862   5.361   2.609  16.075 -1.3468  1.0629 -0.4335
 5149TIP3    H236863   5.329   2.618  15.927  0.1538  0.4923 -0.8074
 5150TIP3   OH236864   3.434   0.977  11.668  0.4040  0.4344  0.5531
 5150TIP3    H136865   3.366   1.029  11.710 -1.1725 -0.7198 -0.5238
 5150TIP3    H236866   3.461   0.914  11.735 -1.2333 -0.6055  0.2438
 5151TIP3   OH236867   6.161   0.086  14.197 -0.0239 -0.6497  0.0511
 5151TIP3    H136868   6.146   0.176  14.224  1.0363  0.2728 -2.2712
 5151TIP3    H236869   6.231   0.055  14.255  0.1212  0.2694  0.3747
 5152TIP3   OH236870   5.103   3.934  13.693 -0.1515 -0.3529 -0.0036
 5152TIP3    H136871   5.043   3.861  13.682 -0.0910 -0.1724 -1.6674
 5152TIP3    H236872   5.155   3.936  13.612  0.2416  1.1510  0.2539
 5153TIP3   OH236873   4.189   2.139  13.960 -0.4929  0.3319  0.1701
 5153TIP3    H136874   4.241   2.187  14.024 -0.2072 -1.4228  1.3071
 5153TIP3    H236875   4.099   2.144  13.994 -0.4057 -0.2304  0.5030
 5154TIP3   OH236876   4.222   4.053   1.970  0.3741  0.2835 -0.3867
 5154TIP3    H136877   4.231   3.999   1.891  0.1239 -1.7257  0.9068
 5154TIP3    H236878   4.309   4.088   1.986  0.4543  0.6014 -1.4672
 5155TIP3   OH236879   5.234   3.537   3.566  0.3626  0.0187 -0.5599
 5155TIP3    H136880   5.173   3.503   3.500 -0.0027  1.0233 -0.7444
 5155TIP3    H236881   5.321   3.517   3.530  0.1631  0.4304 -1.2877
 5156TIP3   OH236882   4.890   1.254   6.205 -0.4868  0.6044 -0.3218
 5156TIP3    H136883   4.941   1.283   6.129 -0.6184  1.1215 -0.2174
 5156TIP3    H236884   4.804   1.295   6.192 -0.5994  0.4576 -0.0423
 5157TIP3   OH236885   2.170   0.790  11.561 -0.2776 -0.3939  0.0644
 5157TIP3    H136886   2.160   0.782  11.656  0.2935  0.9056  0.2437
 5157TIP3    H236887   2.150   0.882  11.542  1.0108 -0.3017 -0.8854
 5158TIP3   OH236888   0.896   1.718   2.870 -0.2118 -0.2581 -0.2677
 5158TIP3    H136889   0.817   1.762   2.902  1.0824  1.2205  0.9690
 5158TIP3    H236890   0.874   1.625   2.872 -2.1872  0.1771 -0.6845
 5159TIP3   OH236891   1.828   0.597   2.073 -0.0037 -0.3003  0.0829
 5159TIP3    H136892   1.806   0.653   2.148  0.2871  0.7164 -0.5801
 5159TIP3    H236893   1.906   0.638   2.035  1.5546 -2.4415  0.9108
 5160TIP3   OH236894   5.397   0.115   3.892  0.2812  0.0639  0.0493
 5160TIP3    H136895   5.330   0.056   3.927  1.4869 -0.6125  1.2698
 5160TIP3    H236896   5.351   0.199   3.881 -1.2165 -0.8394 -0.8667
 5161TIP3   OH236897   4.609   0.235   5.135  0.0806  0.0902  0.7767
 5161TIP3    H136898   4.545   0.305   5.148  1.4185  1.5443 -0.2168
 5161TIP3    H236899   4.694   0.280   5.136  0.9677 -1.5356  0.2131
 5162TIP3   OH236900   0.775   4.058   5.271 -0.2501 -0.3185  0.2411
 5162TIP3    H136901   0.857   4.021   5.305  0.0240  0.1546  0.1022
 5162TIP3    H236902   0.741   4.110   5.343 -0.8686 -1.1926  0.5938
 5163TIP3   OH236903   0.804   4.132  13.285  0.2097 -0.3983  0.2096
 5163TIP3    H136904   0.889   4.113  13.324  1.2754 -0.4150 -2.0626
 5163TIP3    H236905   0.772   4.209  13.332  0.7755 -1.3131  2.1166
 5164TIP3   OH236906   1.127   4.091  15.931 -0.2830 -0.1984 -0.2145
 5164TIP3    H136907   1.146   4.146  16.006 -1.0373 -0.8518  0.4608
 5164TIP3    H236908   1.057   4.137  15.884  2.4190  1.8686 -2.3355
 5165TIP3   OH236909   5.965   1.380  15.081 -0.2761 -0.1885  0.3656
 5165TIP3    H136910   6.036   1.349  15.137 -0.2393 -0.9976 -0.1222
 5165TIP3    H236911   5.946   1.306  15.023 -0.3127  0.6414 -0.6888
 5166TIP3   OH236912   2.727   5.290  12.128 -0.2862  0.5017 -0.7571
 5166TIP3    H136913   2.740   5.237  12.207  0.7079 -1.0871 -1.9402
 5166TIP3    H236914   2.672   5.363  12.156 -0.3929 -0.3328  1.2756
 5167TIP3   OH236915   0.521   2.359  13.474  0.1941  0.1103 -0.1362
 5167TIP3    H136916   0.536   2.361  13.568  0.1244 -0.1250 -0.1193
 5167TIP3    H236917   0.469   2.437  13.456 -0.9942 -0.5908  0.2298
 5168TIP3   OH236918   0.859   4.143  11.925  0.0839  0.0854  0.2251
 5168TIP3    H136919   0.912   4.066  11.946  2.3549  0.5610 -3.3332
 5168TIP3    H236920   0.796   4.111  11.861  0.7020  1.0476 -0.8751
 5169TIP3   OH236921   3.523   0.076   4.200 -0.2414 -0.0867 -0.1169
 5169TIP3    H136922   3.474   0.081   4.119 -1.7674  0.3300  0.8123
 5169TIP3    H236923   3.562   0.163   4.210  2.1460 -0.9217 -1.7158
 5170TIP3   OH236924   6.137   1.235  11.551 -0.4397 -0.2135 -0.3618
 5170TIP3    H136925   6.154   1.248  11.644  0.8488 -2.6282 -0.2304
 5170TIP3    H236926   6.142   1.323  11.513 -0.1005  0.6755  1.6827
 5171TIP3   OH236927   1.820   4.275   0.258  0.4463  0.5226  0.2900
 5171TIP3    H136928   1.768   4.229   0.191 -1.9571  1.6877  1.3026
 5171TIP3    H236929   1.758   4.332   0.302  2.4150  1.2581  2.2251
 5172TIP3   OH236930   5.271   5.686   2.864 -0.2897 -0.4527  0.2836
 5172TIP3    H136931   5.259   5.602   2.907 -1.1512 -1.3495 -1.6555
 5172TIP3    H236932   5.182   5.713   2.840  0.2088 -0.0711 -1.1270
 5173TIP3   OH236933   2.244   5.606   1.181  0.2942 -0.3991  0.0238
 5173TIP3    H136934   2.303   5.603   1.106 -0.5997  1.5339 -0.8012
 5173TIP3    H236935   2.291   5.561   1.251  1.5795 -1.3023 -1.3964
 5174TIP3   OH236936   0.674   4.523  13.305  0.3887  0.2532  0.3777
 5174TIP3    H136937   0.658   4.455  13.239  1.0010  1.1252 -0.6804
 5174TIP3    H236938   0.629   4.491  13.383  1.0708 -1.6052  0.0345
 5175TIP3   OH236939   2.280   3.127   3.412  0.2093 -0.5907  0.4365
 5175TIP3    H136940   2.357   3.107   3.465  0.4965  0.1040  0.2836
 5175TIP3    H236941   2.237   3.042   3.399  1.1800 -1.0518  0.1683
 5176TIP3   OH236942   3.157   2.257  11.554  0.1330 -0.1261 -0.1099
 5176TIP3    H136943   3.129   2.345  11.528  1.7634  0.1938 -0.8556
 5176TIP3    H236944   3.095   2.231  11.622 -0.5284  1.4931 -0.0755
 5177TIP3   OH236945   1.085   0.802  15.587  0.3173 -0.6067  0.4229
 5177TIP3    H136946   1.047   0.801  15.675 -0.0375 -2.1730  0.2622
 5177TIP3    H236947   1.144   0.727  15.586 -0.2806 -1.0741 -0.9342
 5178TIP3   OH236948   3.533   3.721   0.175 -0.1786 -0.1281  0.3591
 5178TIP3    H136949   3.595   3.748   0.108 -0.1618  0.0884  0.4614
 5178TIP3    H236950   3.460   3.681   0.127  0.9118 -2.1656  0.3267
 5179TIP3   OH236951   3.390   0.312   2.267 -0.3398  0.4125  0.1868
 5179TIP3    H136952   3.416   0.401   2.245 -1.2002  0.4145 -0.8709
 5179TIP3    H236953   3.472   0.266   2.286  0.1858  1.1581 -0.2788
 5180TIP3   OH236954   1.551   2.763  15.782 -0.3624 -0.2535 -0.2443
 5180TIP3    H136955   1.605   2.816  15.840 -0.8389  0.7588 -0.7213
 5180TIP3    H236956   1.558   2.674  15.818  0.0267  0.2116  0.8493
 5181TIP3   OH236957   1.230   3.268   3.570  0.4351  0.3564 -0.3297
 5181TIP3    H136958   1.213   3.218   3.650  0.2575  0.7591 -0.1132
 5181TIP3    H236959   1.249   3.356   3.600 -0.1477  0.6325 -0.7607
 5182TIP3   OH236960   5.031   5.115  15.465 -0.0330  0.3317  0.0704
 5182TIP3    H136961   4.989   5.074  15.389  2.6734  0.3041 -1.4945
 5182TIP3    H236962   5.025   5.049  15.534 -0.5303 -0.5631 -0.8072
 5183TIP3   OH236963   0.444   0.998   1.594 -0.0904 -0.2341  0.0200
 5183TIP3    H136964   0.512   1.065   1.593 -1.1090  0.8371 -1.8504
 5183TIP3    H236965   0.370   1.040   1.638 -0.7538 -0.0879 -1.2130
 5184TIP3   OH236966   0.500   1.786  12.543  0.0706 -0.4926 -0.7858
 5184TIP3    H136967   0.542   1.728  12.479  2.7198  0.0186  0.4240
 5184TIP3    H236968   0.444   1.728  12.595  0.8489 -1.5568 -1.1238
 5185TIP3   OH236969   6.451   0.995   5.042 -0.2852 -0.0359  0.1091
 5185TIP3    H136970   6.528   1.022   5.092 -0.7077  1.1407  0.1454
 5185TIP3    H236971   6.440   0.902   5.062 -2.5131  1.1483  4.9473
 5186TIP3   OH236972   6.233   0.869   2.565 -0.2230 -0.0107  0.4955
 5186TIP3    H136973   6.319   0.910   2.555 -0.1239 -0.3300  0.0120
 5186TIP3    H236974   6.177   0.939   2.597  0.2105  0.2071  0.7815
 5187TIP3   OH236975   1.797   3.128   1.160  0.0721 -0.7246  0.2721
 5187TIP3    H136976   1.732   3.185   1.201 -2.3000 -1.0432 -2.8587
 5187TIP3    H236977   1.750   3.046   1.145  1.3450 -1.1627 -1.4823
 5188TIP3   OH236978   1.189   6.298  10.466 -0.6216 -0.1830 -0.0726
 5188TIP3    H136979   1.256   6.323  10.403  0.3858 -2.1292  0.1985
 5188TIP3    H236980   1.124   6.251  10.414  0.8693 -2.9746  0.5058
 5189TIP3   OH236981   1.593   5.169  15.059  0.2950  0.2737 -0.1730
 5189TIP3    H136982   1.534   5.244  15.054 -0.6639 -0.5370 -1.1933
 5189TIP3    H236983   1.651   5.189  15.132  0.4803  2.3133 -0.8621
 5190TIP3   OH236984   5.480   5.881  11.331 -0.4776 -0.4776 -0.4541
 5190TIP3    H136985   5.526   5.805  11.295 -2.3652 -1.8876  0.0133
 5190TIP3    H236986   5.394   5.847  11.356 -1.3995  1.8517 -0.3372
 5191TIP3   OH236987   6.356   0.464  14.178  0.2983  0.2145  0.4489
 5191TIP3    H136988   6.449   0.446  14.165  0.0246 -0.0429 -1.1963
 5191TIP3    H236989   6.313   0.421  14.105 -1.1485  0.1416  1.3309
 5192TIP3   OH236990   4.691   3.278  16.848 -0.0172  0.2433  0.0579
 5192TIP3    H136991   4.646   3.325  16.919 -1.1513 -0.5040 -0.1517
 5192TIP3    H236992   4.725   3.347  16.792  0.1724  0.8376  0.8882
 5193TIP3   OH236993   1.824   0.153   2.968 -0.0648 -0.5192 -0.0968
 5193TIP3    H136994   1.753   0.099   2.932 -0.2704 -0.0665 -0.3769
 5193TIP3    H236995   1.783   0.202   3.039  0.1066 -0.6881  0.1176
 5194TIP3   OH236996   3.814   0.267  14.148  0.1021 -0.3658 -0.2066
 5194TIP3    H136997   3.793   0.304  14.062 -0.5586 -0.3118 -0.0248
 5194TIP3    H236998   3.816   0.173  14.134  0.3795 -0.3380 -0.3617
 5195TIP3   OH236999   6.223   1.763  16.300  0.0915  0.1122 -0.7931
 5195TIP3    H137000   6.234   1.669  16.316  0.8896  0.3135 -0.1417
 5195TIP3    H237001   6.249   1.805  16.382  0.5257  0.9450 -1.3488
 5196TIP3   OH237002   6.413   6.638  10.453 -0.7959  0.1667 -0.3486
 5196TIP3    H137003   6.357   6.622  10.377 -1.9483 -0.3456  0.5799
 5196TIP3    H237004   6.427   6.733  10.453 -1.5438  0.2852 -0.7010
 5197TIP3   OH237005   1.331   3.930  16.135  0.3888 -0.0087 -1.0919
 5197TIP3    H137006   1.363   4.009  16.178 -1.2902 -0.5548  1.2747
 5197TIP3    H237007   1.275   3.962  16.064  2.5489  0.9003 -2.4167
 5198TIP3   OH237008   5.753   6.236  11.860  0.5146 -0.0360 -0.2012
 5198TIP3    H137009   5.702   6.302  11.813  1.6377  0.9276 -0.1165
 5198TIP3    H237010   5.710   6.153  11.841 -2.0077  0.9197  1.1534
 5199TIP3   OH237011   3.543   3.564  11.819 -0.6586  0.2395 -0.2310
 5199TIP3    H137012   3.504   3.557  11.731 -1.6293  0.3552  0.1824
 5199TIP3    H237013   3.634   3.588  11.803 -0.7571 -0.0135 -1.2216
 5200TIP3   OH237014   5.455   2.655  16.218  0.3971 -0.8052  0.0166
 5200TIP3    H137015   5.484   2.745  16.233 -0.9981 -0.6070  1.7194
 5200TIP3    H237016   5.521   2.601  16.263  1.5793 -0.6947 -1.5361
 5201TIP3   OH237017   2.287   1.495  14.731 -0.2337  0.2063  0.1916
 5201TIP3    H137018   2.243   1.436  14.792  0.4526 -0.1245  0.3692
 5201TIP3    H237019   2.375   1.505  14.766  1.1510 -2.3167 -2.2809
 5202TIP3   OH237020   4.060   2.707   3.960  0.5788  0.8709  0.0617
 5202TIP3    H137021   3.986   2.722   4.019  0.6683  0.8073  0.1915
 5202TIP3    H237022   4.076   2.613   3.966  0.8189  0.9194  0.2142
 5203TIP3   OH237023   2.978   3.622   3.026  0.0247 -1.1313  0.2373
 5203TIP3    H137024   3.034   3.665   3.090  0.5051  0.3638 -1.1383
 5203TIP3    H237025   3.038   3.568   2.974  0.3364  0.9545 -1.6352
 5204TIP3   OH237026   1.589   1.093  14.671  0.3024 -0.4679 -0.2117
 5204TIP3    H137027   1.591   1.109  14.765 -0.7613  0.3414 -0.3165
 5204TIP3    H237028   1.596   1.179  14.631  0.8520 -0.8134 -0.8845
 5205TIP3   OH237029   0.319   5.901   3.825  0.2431  0.1892  0.2067
 5205TIP3    H137030   0.350   5.982   3.784 -0.0098  0.2227  0.0781
 5205TIP3    H237031   0.395   5.868   3.873 -0.4452  2.1555  2.8308
 5206TIP3   OH237032   4.656   5.344  12.388  1.0496 -0.1044  0.2368
 5206TIP3    H137033   4.609   5.344  12.304  1.1951 -0.1583  0.1557
 5206TIP3    H237034   4.667   5.251  12.409  0.3797 -0.0883  0.6698
 5207TIP3   OH237035   1.653   5.398   3.621  0.5370 -0.0339 -0.3868
 5207TIP3    H137036   1.593   5.460   3.579  0.8562  0.7335  0.2667
 5207TIP3    H237037   1.597   5.349   3.682 -0.1074 -1.7917 -2.3478
 5208TIP3   OH237038   2.130   4.794  12.355  0.1730 -0.2498  0.3358
 5208TIP3    H137039   2.191   4.859  12.390  0.2932 -0.9404  1.4404
 5208TIP3    H237040   2.149   4.714  12.404 -0.6376 -0.8663 -0.3274
 5209TIP3   OH237041   2.426   4.379   4.673  0.0746  0.0034 -0.1786
 5209TIP3    H137042   2.401   4.303   4.620  0.4670  0.1587 -0.5925
 5209TIP3    H237043   2.521   4.371   4.684 -0.3722 -1.7119  3.1477
 5210TIP3   OH237044   4.849   3.163  12.545  0.1909  0.2705  0.0828
 5210TIP3    H137045   4.897   3.236  12.584  1.8162 -1.3283  1.2035
 5210TIP3    H237046   4.781   3.142  12.609  0.0352  0.5017 -0.0084
 5211TIP3   OH237047   3.830   0.710  15.004  0.0110  0.3743 -0.2421
 5211TIP3    H137048   3.883   0.742  14.931 -0.0268  0.2274 -0.3335
 5211TIP3    H237049   3.868   0.625  15.026 -1.1674 -0.4746 -1.3466
 5212TIP3   OH237050   0.842   0.557   0.647 -0.1421  0.5476 -0.4077
 5212TIP3    H137051   0.908   0.489   0.656  1.4425  2.1177 -0.0443
 5212TIP3    H237052   0.759   0.513   0.669  0.6704 -1.5652 -1.3874
 5213TIP3   OH237053   3.555   2.806   0.747  0.0001  0.1334 -0.0415
 5213TIP3    H137054   3.580   2.758   0.826  0.3186  0.8202  0.2746
 5213TIP3    H237055   3.637   2.819   0.699  0.2756  2.3283  0.9668
 5214TIP3   OH237056   5.440   5.414  16.711 -0.1576  0.2410  0.0073
 5214TIP3    H137057   5.495   5.359  16.657  1.7144  1.5100  0.5528
 5214TIP3    H237058   5.410   5.484  16.653 -2.0486 -0.9821 -0.5369
 5215TIP3   OH237059   3.795   4.215   0.475 -0.4159 -0.2323 -0.0727
 5215TIP3    H137060   3.766   4.123   0.476 -0.9071 -0.1144  3.8493
 5215TIP3    H237061   3.863   4.219   0.542 -1.1209  2.4995  0.5188
 5216TIP3   OH237062   0.420   5.009  14.945  0.7221 -0.3279  0.2343
 5216TIP3    H137063   0.334   5.026  14.907  0.4951  0.8501  1.2425
 5216TIP3    H237064   0.406   5.012  15.039  1.9269  0.1817  0.4081
 5217TIP3   OH237065   1.042   1.876  15.605  0.0263 -0.1493  0.2770
 5217TIP3    H137066   1.098   1.803  15.582  1.2447  0.3568  1.5908
 5217TIP3    H237067   0.976   1.839  15.664  0.9866 -0.0906  1.4058
 5218TIP3   OH237068   2.865   5.151   3.809 -0.0241 -0.3404 -0.2188
 5218TIP3    H137069   2.780   5.186   3.834 -1.2348 -1.9782 -1.8907
 5218TIP3    H237070   2.879   5.076   3.867  0.7943  0.5916  0.7944
 5219TIP3   OH237071   6.540   2.208  11.632 -0.4206  0.3133 -0.1104
 5219TIP3    H137072   6.555   2.122  11.672 -0.8995  0.2284 -0.1104
 5219TIP3    H237073   6.626   2.250  11.633 -0.1353 -0.2545 -0.3181
 5220TIP3   OH237074   1.649   3.642  15.738  0.3613 -0.4757 -0.3205
 5220TIP3    H137075   1.666   3.594  15.657  0.1644 -1.3109  0.1189
 5220TIP3    H237076   1.564   3.683  15.725  0.5298 -0.2478 -0.7060
 5221TIP3   OH237077   2.744   3.270   3.358 -1.2460  1.1399  0.4599
 5221TIP3    H137078   2.772   3.339   3.298 -1.6386  0.8986  0.0005
 5221TIP3    H237079   2.678   3.221   3.310  0.3723 -0.7430  0.0439
 5222TIP3   OH237080   0.916   5.509  11.068  0.2418  0.1838  0.8468
 5222TIP3    H137081   0.967   5.588  11.050  0.1970  0.2739  1.1271
 5222TIP3    H237082   0.901   5.471  10.981  0.9252  0.0684  0.7740
 5223TIP3   OH237083   1.506   3.729   5.651 -0.2392  0.4215  0.0482
 5223TIP3    H137084   1.550   3.809   5.622  3.2670 -1.1639  0.7194
 5223TIP3    H237085   1.473   3.690   5.570  0.4153  1.2097 -0.6191
 5224TIP3   OH237086   5.639   2.612  12.139 -0.0128  0.7626  0.0341
 5224TIP3    H137087   5.661   2.644  12.051  0.8336  1.7435  0.5849
 5224TIP3    H237088   5.543   2.612  12.141 -0.0796 -1.3554 -1.6125
 5225TIP3   OH237089   6.580   4.548   3.125 -0.0294 -0.3039  0.0935
 5225TIP3    H137090   6.497   4.595   3.132 -0.8458 -1.6521 -0.1630
 5225TIP3    H237091   6.645   4.607   3.163 -1.3494  0.1736  1.6706
 5226TIP3   OH237092   2.791   2.395   1.607  0.2694 -0.6218  0.9296
 5226TIP3    H137093   2.799   2.490   1.593 -0.6489 -0.5237  0.9821
 5226TIP3    H237094   2.879   2.366   1.630  0.9593 -0.0972 -0.9595
 5227TIP3   OH237095   3.115   3.424   5.424 -0.2740  0.0692  0.1653
 5227TIP3    H137096   3.040   3.389   5.375 -0.0798  0.2314 -0.2473
 5227TIP3    H237097   3.078   3.494   5.477 -0.2009  0.9404 -0.9286
 5228TIP3   OH237098   5.343   6.655   0.836  0.1364  0.1410  0.2357
 5228TIP3    H137099   5.270   6.615   0.882 -0.1635  2.0572  1.4961
 5228TIP3    H237100   5.303   6.708   0.768  0.4438 -0.4225 -0.3812
 5229TIP3   OH237101   4.674   0.740   4.796  0.3209  0.0275  0.1706
 5229TIP3    H137102   4.605   0.675   4.808  0.2173  0.0643 -0.2490
 5229TIP3    H237103   4.747   0.691   4.760 -0.0755  0.3191 -1.0532
 5230TIP3   OH237104   1.784   1.883  14.067  0.0100  0.0921 -0.0479
 5230TIP3    H137105   1.717   1.896  14.134  0.4683 -2.1710  0.8931
 5230TIP3    H237106   1.736   1.850  13.991 -0.0818 -0.5322  0.2810
 5231TIP3   OH237107   0.672   0.393   0.805  0.2346 -0.0116 -0.1132
 5231TIP3    H137108   0.664   0.454   0.879  0.7222  0.1628 -0.1994
 5231TIP3    H237109   0.686   0.308   0.846 -0.3861 -0.0585  0.0072
 5232TIP3   OH237110   2.219   2.947   5.510  0.0905  0.3290 -0.2316
 5232TIP3    H137111   2.146   3.009   5.507  0.1062  0.3611 -0.0011
 5232TIP3    H237112   2.190   2.881   5.574 -0.4826 -0.6015 -1.4344
 5233TIP3   OH237113   5.717   2.572  14.175 -0.4219  0.8115 -0.0828
 5233TIP3    H137114   5.752   2.500  14.123 -2.1251 -0.0652 -0.0237
 5233TIP3    H237115   5.672   2.530  14.249 -0.5328  1.9608  0.5181
 5234TIP3   OH237116   2.484   2.904  14.427  0.0280  0.4859  0.7623
 5234TIP3    H137117   2.559   2.888  14.485  1.3244 -2.2547 -1.5192
 5234TIP3    H237118   2.460   2.817  14.395 -2.0565  1.6874 -1.0815
 5235TIP3   OH237119   4.671   2.264  16.452  0.6531 -0.0848  0.0397
 5235TIP3    H137120   4.596   2.231  16.503  0.5079  0.8915  0.4590
 5235TIP3    H237121   4.689   2.194  16.389 -1.1007 -0.0229 -0.5779
 5236TIP3   OH237122   4.251   6.577  12.053  0.3323 -0.1853  0.2693
 5236TIP3    H137123   4.276   6.599  12.142  0.2765  0.6808  0.0787
 5236TIP3    H237124   4.156   6.562  12.058  0.5145 -1.2259  0.5624
 5237TIP3   OH237125   1.852   0.051   0.104  0.5560  0.1076 -0.4259
 5237TIP3    H137126   1.868  -0.022   0.044 -2.5122  0.4491 -1.7533
 5237TIP3    H237127   1.760   0.074   0.090  1.4877  4.4509 -0.3173
 5238TIP3   OH237128   1.018   2.352  15.809 -0.1983 -0.5005 -0.3400
 5238TIP3    H137129   0.989   2.260  15.808 -1.1261 -0.2156 -0.0563
 5238TIP3    H237130   0.940   2.401  15.833 -0.2601  0.5745 -2.5851
 5239TIP3   OH237131   3.532   2.165   5.391 -0.2784 -0.4588 -0.3249
 5239TIP3    H137132   3.619   2.200   5.373 -0.0485 -0.3780  0.9060
 5239TIP3    H237133   3.533   2.077   5.354  0.7088 -0.8661  0.6701
 5240TIP3   OH237134   1.447   5.221   4.392  0.0482 -0.3996  0.1369
 5240TIP3    H137135   1.417   5.292   4.448 -1.6884  0.5371 -1.9357
 5240TIP3    H237136   1.533   5.197   4.428  0.0393  1.7816  1.7108
 5241TIP3   OH237137   6.781   1.735  17.127  0.3829  0.7360 -0.3940
 5241TIP3    H137138   6.794   1.818  17.081 -1.4556  1.4478  0.2934
 5241TIP3    H237139   6.716   1.688  17.074  1.8289 -0.5353 -1.0882
 5242TIP3   OH237140   5.252   0.622  14.800 -0.6315 -0.1681  0.1253
 5242TIP3    H137141   5.313   0.574  14.744 -0.5913  1.1050 -0.9790
 5242TIP3    H237142   5.184   0.558  14.823 -0.1803 -0.9485 -0.6811
 5243TIP3   OH237143   6.589   6.279   1.119  0.4923  0.5916  0.7648
 5243TIP3    H137144   6.673   6.268   1.164 -0.3649 -0.3912  2.1844
 5243TIP3    H237145   6.607   6.256   1.028  0.9594 -3.4582  1.7654
 5244TIP3   OH237146   3.022   2.330  12.931 -0.1351  0.4222 -0.0300
 5244TIP3    H137147   2.986   2.391  12.866 -1.5268  0.5433  0.8408
 5244TIP3    H237148   3.054   2.256  12.878 -1.4784  0.4071 -0.8405
 5245TIP3   OH237149   1.355   3.488   3.657 -0.7522 -0.3381 -0.6338
 5245TIP3    H137150   1.451   3.494   3.657 -0.5967 -2.1882  1.2308
 5245TIP3    H237151   1.326   3.572   3.693  0.1508  0.3760 -1.5495
 5246TIP3   OH237152   6.746   6.533  12.428  0.0540  0.4663  0.0618
 5246TIP3    H137153   6.742   6.513  12.521  0.7754 -1.8164 -0.3694
 5246TIP3    H237154   6.654   6.547  12.403 -0.4393 -1.6688  0.5621
 5247TIP3   OH237155   1.023   4.774  10.879  0.7290  0.0060 -0.2066
 5247TIP3    H137156   0.999   4.833  10.950 -1.1128 -0.7740 -0.1329
 5247TIP3    H237157   0.943   4.724  10.862  1.6098 -0.9233 -1.7510
 5248TIP3   OH237158   1.517   1.714   3.782  0.0079 -0.2815  0.2456
 5248TIP3    H137159   1.425   1.696   3.764 -0.3154  0.0698  1.5170
 5248TIP3    H237160   1.526   1.702   3.876  0.6980  2.0086  0.5150
 5249TIP3   OH237161   2.952   6.445  12.322 -0.5961 -0.0758 -0.3707
 5249TIP3    H137162   2.972   6.399  12.403  0.7745 -0.5202 -0.9567
 5249TIP3    H237163   2.869   6.490  12.340  0.1743  0.6097  1.5840
 5250TIP3   OH237164   0.015   2.869  16.332  0.3353  0.2495 -0.2922
 5250TIP3    H137165   0.068   2.944  16.307  2.0237 -1.5762 -2.3139
 5250TIP3    H237166  -0.044   2.855  16.258  0.6815 -1.0009 -0.3428
 5251TIP3   OH237167   3.250   4.858   3.405 -0.6452 -0.3680  0.9759
 5251TIP3    H137168   3.334   4.819   3.431 -1.1056 -0.1620  2.8592
 5251TIP3    H237169   3.239   4.933   3.464  0.6478  3.2648 -3.1537
 5252TIP3   OH237170   2.404   5.138   3.385 -0.2822  0.0851 -0.2750
 5252TIP3    H137171   2.469   5.107   3.322  0.5227  0.3125  0.4229
 5252TIP3    H237172   2.360   5.059   3.416  0.2378 -0.1565 -0.1425
 5253TIP3   OH237173   2.972   3.192   1.316 -0.5425 -0.0516  0.3159
 5253TIP3    H137174   2.914   3.233   1.380 -1.7788 -1.6963  0.2875
 5253TIP3    H237175   2.916   3.176   1.240  0.6029  0.7066 -0.6990
 5254TIP3   OH237176   6.348   1.232   1.841 -0.8497  0.3344 -0.7705
 5254TIP3    H137177   6.278   1.283   1.801 -0.1106  0.6849 -1.6505
 5254TIP3    H237178   6.415   1.297   1.862 -0.1431 -0.1931 -1.3591
 5255TIP3   OH237179   3.602   5.202  14.985 -0.1196 -0.4794 -0.1834
 5255TIP3    H137180   3.671   5.232  14.926  1.5190 -1.4977  1.2013
 5255TIP3    H237181   3.533   5.171  14.926  0.4784  0.7544 -1.5791
 5256TIP3   OH237182   1.396   0.846  15.873 -0.3368  0.3716 -0.1081
 5256TIP3    H137183   1.456   0.788  15.826 -1.1675  0.6043 -1.4738
 5256TIP3    H237184   1.312   0.800  15.873 -0.1929  0.0716  1.7449
 5257TIP3   OH237185   5.087   0.778   1.255  0.0828  0.1852 -0.1358
 5257TIP3    H137186   5.167   0.797   1.305 -0.2572  0.3395  0.3478
 5257TIP3    H237187   5.077   0.854   1.197 -0.8279  1.1436  1.2307
 5258TIP3   OH237188   3.396   0.126  12.425  0.2785 -1.0109 -0.2942
 5258TIP3    H137189   3.444   0.089  12.500 -1.3257  0.2783  1.4136
 5258TIP3    H237190   3.416   0.219  12.427 -1.1110 -0.6931 -0.4501
 5259TIP3   OH237191   5.699   0.501  11.217  0.4657  0.1671  0.4790
 5259TIP3    H137192   5.762   0.562  11.179  2.3094 -0.2540  2.7820
 5259TIP3    H237193   5.690   0.432  11.152  3.7219 -0.6484  0.8481
 5260TIP3   OH237194   2.236   6.165  16.731  0.1953 -0.0184  0.0094
 5260TIP3    H137195   2.254   6.228  16.661 -1.7355  1.3389  0.6961
 5260TIP3    H237196   2.316   6.112  16.737  1.7825  2.2369 -0.7091
 5261TIP3   OH237197   5.888   2.104  16.822 -0.2474 -0.2682 -0.6623
 5261TIP3    H137198   5.935   2.052  16.757  0.0589  0.1829 -0.8058
 5261TIP3    H237199   5.952   2.168  16.853 -0.2798 -0.7321  0.3675
 5262TIP3   OH237200   5.689   3.837  15.295 -0.1873  0.2072 -0.1334
 5262TIP3    H137201   5.783   3.830  15.311 -0.2767 -3.1190 -0.7455
 5262TIP3    H237202   5.648   3.801  15.373 -0.8204 -2.3919 -1.5759
 5263TIP3   OH237203   0.987   1.933  14.020 -0.3213  0.1493  0.1943
 5263TIP3    H137204   0.920   1.865  14.020 -0.6996  0.5156  0.3267
 5263TIP3    H237205   0.988   1.965  13.929 -0.1200 -0.0592  0.1244
 5264TIP3   OH237206   6.127   1.409   1.679 -0.1988 -0.6784 -0.2775
 5264TIP3    H137207   6.084   1.410   1.593  0.4960  1.0740 -0.6345
 5264TIP3    H237208   6.055   1.413   1.742 -0.6800 -1.1260 -0.7963
 5265TIP3   OH237209   1.461   3.000   2.581  0.2336 -0.6749  0.5735
 5265TIP3    H137210   1.492   2.973   2.667  3.7712  1.2723  0.0548
 5265TIP3    H237211   1.441   3.093   2.591  0.4020 -0.4978 -0.6060
 5266TIP3   OH237212   1.491   2.782  16.572  0.9422 -0.1092  0.4222
 5266TIP3    H137213   1.535   2.848  16.625  1.0574  0.3130 -0.1892
 5266TIP3    H237214   1.441   2.833  16.507 -0.8933 -0.5621  1.4464
 5267TIP3   OH237215   0.526   1.312   0.524 -0.2822  0.0738  0.1242
 5267TIP3    H137216   0.587   1.242   0.498  0.4317  0.6682  0.1962
 5267TIP3    H237217   0.581   1.390   0.534 -1.2520  0.9454 -1.1877
 5268TIP3   OH237218   1.003   1.165  14.665  0.2120 -0.3654  0.0747
 5268TIP3    H137219   0.958   1.227  14.722  0.7440  0.1177 -0.0277
 5268TIP3    H237220   1.031   1.095  14.723  0.2837 -0.1356  0.3164
 5269TIP3   OH237221   1.609   5.084   0.582  0.0517  0.1857 -0.0594
 5269TIP3    H137222   1.577   5.007   0.629  1.3254  0.2884  1.0000
 5269TIP3    H237223   1.580   5.158   0.636  0.6479  0.3562  0.0228
 5270TIP3   OH237224   1.731   2.097  12.131 -0.3441  0.1398  1.0536
 5270TIP3    H137225   1.810   2.116  12.081 -0.3072 -0.7171  0.7859
 5270TIP3    H237226   1.763   2.082  12.220 -0.2394  0.0543  1.0014
 5271TIP3   OH237227   2.103   4.381   1.169  0.5032 -0.7611 -0.1879
 5271TIP3    H137228   2.103   4.403   1.076  1.5094  1.6835  0.3466
 5271TIP3    H237229   2.123   4.288   1.172 -0.6151 -1.0987 -2.4543
 5272TIP3   OH237230   6.178   0.165  11.797 -0.2711 -0.4208  0.1560
 5272TIP3    H137231   6.098   0.144  11.749 -0.4399 -0.1065  0.2998
 5272TIP3    H237232   6.242   0.185  11.729 -0.2024 -1.0535  0.0307
 5273TIP3   OH237233   1.781   4.869  11.778 -0.5824  0.2171  0.0414
 5273TIP3    H137234   1.787   4.964  11.784  1.2639  0.1053  0.4205
 5273TIP3    H237235   1.820   4.837  11.860 -0.0611 -0.8662 -0.6043
 5274TIP3   OH237236   3.074   6.176  14.931 -0.7690  0.6024  0.6104
 5274TIP3    H137237   3.002   6.133  14.979 -0.3998  1.6191  2.1255
 5274TIP3    H237238   3.081   6.262  14.972  0.3530  1.0525 -0.5164
 5275TIP3   OH237239   1.084   2.436   3.140  0.5569 -0.0562 -0.1019
 5275TIP3    H137240   1.080   2.529   3.163 -0.7559 -0.3462  0.9563
 5275TIP3    H237241   1.176   2.413   3.149  0.6018  0.6775  1.6510
 5276TIP3   OH237242   0.284   1.938   4.581 -0.3688  0.6151 -0.2794
 5276TIP3    H137243   0.265   1.853   4.619  2.2679  0.3194  0.4608
 5276TIP3    H237244   0.249   1.933   4.492 -3.2890  0.0089  0.8482
 5277TIP3   OH237245   5.265   6.125  14.399 -0.6940  0.3142 -0.1308
 5277TIP3    H137246   5.272   6.032  14.421 -0.7462  0.5775  1.0055
 5277TIP3    H237247   5.170   6.140  14.394 -0.6913  0.4428  0.2499
 5278TIP3   OH237248   5.321   1.637  14.221 -0.0167  0.8131 -1.2399
 5278TIP3    H137249   5.367   1.670  14.298  2.1029 -0.0097 -2.1393
 5278TIP3    H237250   5.327   1.542  14.229 -0.9760  0.6974 -1.7446
 5279TIP3   OH237251   4.012   3.489   6.305  0.4529  0.2265  0.5021
 5279TIP3    H137252   3.949   3.419   6.289  0.3165  0.0987  1.5375
 5279TIP3    H237253   4.097   3.445   6.308  0.6168  0.4217 -1.0576
 5280TIP3   OH237254   0.057   6.121   1.642  0.4193  0.3934  0.7551
 5280TIP3    H137255   0.062   6.117   1.738  0.0033  0.6726  0.7874
 5280TIP3    H237256   0.145   6.148   1.615  0.0484  2.1009  1.1701
 5281TIP3   OH237257   6.102   3.773   3.613  0.9628 -0.2525 -0.1675
 5281TIP3    H137258   6.198   3.780   3.609  0.9596 -0.6060 -1.1077
 5281TIP3    H237259   6.086   3.679   3.620  0.6531 -0.3240 -1.6025
 5282TIP3   OH237260   2.611   0.927   4.079 -0.1446 -0.0953 -0.0510
 5282TIP3    H137261   2.637   0.873   4.154  0.5045 -1.5886 -1.3129
 5282TIP3    H237262   2.683   0.989   4.068  0.0826 -0.3223  0.1496
 5283TIP3   OH237263   1.975   6.048  12.525 -0.0414 -0.3790  0.3553
 5283TIP3    H137264   1.904   5.992  12.493 -0.0770 -1.4098  2.1718
 5283TIP3    H237265   1.933   6.108  12.587  0.3516  0.2850 -0.0165
 5284TIP3   OH237266   6.734   0.997  11.304  0.3960 -0.5717  0.4533
 5284TIP3    H137267   6.743   0.915  11.353  0.3334 -0.5986  0.4197
 5284TIP3    H237268   6.822   1.015  11.271  0.3689 -0.7291  0.2947
 5285TIP3   OH237269   1.673   6.583  16.138  0.0288 -0.7454  0.2459
 5285TIP3    H137270   1.715   6.604  16.054 -1.0338 -0.7708 -0.2956
 5285TIP3    H237271   1.606   6.651  16.148  0.8389 -0.1324  1.5743
 5286TIP3   OH237272   1.955   3.178  16.295 -0.1620  0.3895  0.2660
 5286TIP3    H137273   1.885   3.125  16.334  0.3829  1.1016  2.2484
 5286TIP3    H237274   1.947   3.263  16.337  0.8901  0.9723 -0.6892
 5287TIP3   OH237275   4.524   3.988   4.133 -0.1231  0.3672  0.0999
 5287TIP3    H137276   4.530   3.916   4.196 -1.5079 -1.0666 -1.3308
 5287TIP3    H237277   4.430   4.006   4.128  0.3365  3.3657  1.5900
 5288TIP3   OH237278   1.046   4.064   5.845  0.2772 -1.1864  0.0486
 5288TIP3    H137279   0.986   4.029   5.779 -0.8661 -2.4076  1.6936
 5288TIP3    H237280   1.023   4.156   5.853  0.8303 -0.8778 -1.6683
 5289TIP3   OH237281   0.369   1.998   0.813  0.4387  0.3258  0.4002
 5289TIP3    H137282   0.309   1.923   0.817  2.5859 -1.4042  1.7508
 5289TIP3    H237283   0.355   2.043   0.896  0.0207  0.7282  0.1128
 5290TIP3   OH237284   3.547   2.653   0.079  0.3652  0.3792  0.4709
 5290TIP3    H137285   3.509   2.660   0.166  0.0541 -0.5762  0.4169
 5290TIP3    H237286   3.627   2.601   0.091 -0.0437 -0.3562  0.0921
 5291TIP3   OH237287   4.689   0.944  12.185 -0.3037  0.1888  0.0312
 5291TIP3    H137288   4.711   0.938  12.092 -3.0407 -1.8823 -0.5333
 5291TIP3    H237289   4.703   0.856  12.219 -3.7850 -0.2444  0.5058
 5292TIP3   OH237290   0.992   2.577  11.732  0.0043  0.7042  0.2476
 5292TIP3    H137291   0.984   2.530  11.816  0.0214 -0.6629 -0.4953
 5292TIP3    H237292   1.084   2.604  11.729  0.4385 -0.7617 -0.1044
 5293TIP3   OH237293   1.269   3.826   1.837 -0.6035  0.2995 -0.6955
 5293TIP3    H137294   1.178   3.798   1.834 -0.0883 -1.4676 -0.1095
 5293TIP3    H237295   1.301   3.813   1.747 -0.4755 -0.6555 -0.5178
 5294TIP3   OH237296   0.875   1.257   4.530 -0.6469 -0.3003 -0.1036
 5294TIP3    H137297   0.875   1.162   4.536 -2.8473 -0.3417 -0.3985
 5294TIP3    H237298   0.782   1.282   4.528 -0.1271  1.9242  1.0625
 5295TIP3   OH237299   4.370   5.096  14.100 -0.2050  0.1802 -0.0178
 5295TIP3    H137300   4.371   5.188  14.073 -1.7911  0.0148 -0.7103
 5295TIP3    H237301   4.368   5.047  14.018 -2.2730 -0.3964  0.3610
 5296TIP3   OH237302   5.317   4.843   1.194 -0.0062 -0.2161 -0.6057
 5296TIP3    H137303   5.274   4.877   1.273 -1.1432 -0.2486 -1.1993
 5296TIP3    H237304   5.326   4.919   1.137 -1.0960 -0.5971 -1.2890
 5297TIP3   OH237305   3.580   0.308   5.255  0.3166  0.1150 -0.1367
 5297TIP3    H137306   3.654   0.249   5.273  0.4191  0.3106  0.0825
 5297TIP3    H237307   3.552   0.337   5.341  0.3434  0.4858 -0.2527
 5298TIP3   OH237308   5.853   1.767   2.446 -0.6233 -0.2997  0.1156
 5298TIP3    H137309   5.773   1.780   2.497  0.8864 -3.6798  3.6375
 5298TIP3    H237310   5.837   1.686   2.397 -1.1480  1.6598 -3.0583
 5299TIP3   OH237311   1.063   0.048  14.992  0.0592 -0.3088 -0.8179
 5299TIP3    H137312   1.049   0.139  15.021  0.5127 -0.3376 -0.5002
 5299TIP3    H237313   1.023   0.044  14.905 -1.8925 -0.3871  0.0587
 5300TIP3   OH237314   3.938   3.664  14.187 -0.1600 -0.2169  0.3158
 5300TIP3    H137315   3.857   3.636  14.229 -0.0789 -0.3880  0.3592
 5300TIP3    H237316   3.951   3.754  14.217  1.3432 -1.2396  2.8377
 5301TIP3   OH237317   3.187   5.804   5.158 -0.0243 -0.7092 -0.3087
 5301TIP3    H137318   3.272   5.824   5.119 -0.1133  0.1212 -0.1049
 5301TIP3    H237319   3.126   5.863   5.113 -0.6712 -2.0693 -1.2122
 5302TIP3   OH237320   4.132   1.320   1.409  0.1793 -0.1826 -0.2005
 5302TIP3    H137321   4.160   1.411   1.419  0.1763 -0.4525  2.5174
 5302TIP3    H237322   4.036   1.325   1.404  0.2486  0.0612 -1.4427
 5303TIP3   OH237323   1.245   2.606  15.500  0.5840 -0.0332  0.4246
 5303TIP3    H137324   1.237   2.572  15.589 -0.4989  1.9491  1.1163
 5303TIP3    H237325   1.205   2.538  15.445  0.9060 -1.0899  1.4695
 5304TIP3   OH237326   2.934   1.414   2.726  0.1374  0.2001 -0.1563
 5304TIP3    H137327   2.935   1.319   2.737  1.8142  0.2025 -0.1992
 5304TIP3    H237328   2.947   1.449   2.814 -1.6007  0.4217  0.0318
 5305TIP3   OH237329   1.950   1.677   4.685 -0.9627  0.5816  0.3591
 5305TIP3    H137330   1.966   1.590   4.722 -0.0502  1.4535  2.0497
 5305TIP3    H237331   2.001   1.678   4.604 -0.3186 -0.1646  0.7425
 5306TIP3   OH237332   4.689   5.771   5.129 -0.0814 -0.8581  0.0490
 5306TIP3    H137333   4.755   5.712   5.093 -0.3791 -0.7636 -0.6796
 5306TIP3    H237334   4.733   5.815   5.201  0.5490 -1.0366 -0.2193
 5307TIP3   OH237335   5.057   3.570   0.473  0.0501 -0.0030 -0.4363
 5307TIP3    H137336   5.149   3.550   0.458  0.0278  0.7954 -1.7721
 5307TIP3    H237337   5.054   3.606   0.562  0.4316 -3.5523  1.0804
 5308TIP3   OH237338   1.690   6.750  12.955  0.3443 -0.0338  0.2874
 5308TIP3    H137339   1.743   6.787  13.025  2.8600  1.2293 -2.1705
 5308TIP3    H237340   1.641   6.825  12.920 -0.1047 -0.4387  0.0437
 5309TIP3   OH237341   5.701   1.208  12.411  0.7988 -0.5981  0.2580
 5309TIP3    H137342   5.727   1.169  12.327 -0.3912 -2.0833  0.5624
 5309TIP3    H237343   5.608   1.187  12.419  0.3293  1.5900  0.8543
 5310TIP3   OH237344   4.366   3.988  11.561  0.6753 -0.4333 -0.1073
 5310TIP3    H137345   4.316   3.960  11.485  1.6551 -0.8257 -0.6103
 5310TIP3    H237346   4.436   4.042  11.525  1.0500 -0.4939  0.5297
 5311TIP3   OH237347   5.610   4.968  10.946  0.0415 -0.4828 -0.4377
 5311TIP3    H137348   5.694   4.966  10.991  0.5331  0.3601 -1.3128
 5311TIP3    H237349   5.633   4.972  10.853 -0.9630  1.0751 -0.6264
 5312TIP3   OH237350   0.091   3.741   1.348 -0.5372  0.0933  0.1125
 5312TIP3    H137351   0.083   3.653   1.312 -2.5071 -0.0079  0.7262
 5312TIP3    H237352   0.169   3.738   1.403 -1.4703 -1.7403  1.3849
 5313TIP3   OH237353   3.397   4.779  13.644  0.1092  0.2947 -0.1305
 5313TIP3    H137354   3.360   4.845  13.585  0.1850  0.5764  0.1368
 5313TIP3    H237355   3.405   4.824  13.728  2.6478  0.7783 -0.5846
 5314TIP3   OH237356   0.303   4.225  13.582 -0.4577 -0.6687  0.3634
 5314TIP3    H137357   0.238   4.156  13.565 -2.0841  0.4741  1.8328
 5314TIP3    H237358   0.251   4.301  13.608  1.5585 -0.4015  3.9118
 5315TIP3   OH237359   1.822   4.113   2.951  0.0910  0.1829  0.3771
 5315TIP3    H137360   1.911   4.136   2.978  1.2666 -3.0817 -0.4012
 5315TIP3    H237361   1.819   4.137   2.858 -0.6503  2.3811  0.9396
 5316TIP3   OH237362   2.003   2.501  11.858  0.1643  0.1129 -0.1314
 5316TIP3    H137363   1.932   2.485  11.921  0.4856  3.4236  1.1334
 5316TIP3    H237364   2.077   2.528  11.912  1.2501  0.3777 -1.7410
 5317TIP3   OH237365   4.986   4.542   2.217  0.3164  0.5284 -0.0289
 5317TIP3    H137366   5.021   4.479   2.280  3.4787  0.6887 -1.5319
 5317TIP3    H237367   4.929   4.490   2.160 -2.4249  0.3519  2.7577
 5318TIP3   OH237368   6.321   3.685  15.185 -0.1517 -0.1630  0.1141
 5318TIP3    H137369   6.335   3.768  15.229  1.8701  0.1245 -1.0420
 5318TIP3    H237370   6.227   3.684  15.166 -0.6862  0.6369  2.4807
 5319TIP3   OH237371   6.670   4.469   0.496  0.2533  0.0759  0.4566
 5319TIP3    H137372   6.733   4.410   0.454  0.4292  0.5488  0.0657
 5319TIP3    H237373   6.589   4.457   0.447  0.5695  0.9366 -0.2853
 5320TIP3   OH237374   5.561   4.822   5.443 -0.2751  0.2960 -0.0523
 5320TIP3    H137375   5.553   4.878   5.365 -0.6134 -0.0222 -0.2488
 5320TIP3    H237376   5.628   4.758   5.419 -0.8549 -0.2111 -0.3339
 5321TIP3   OH237377   6.185   3.561  12.563  0.3268  0.4539 -0.1447
 5321TIP3    H137378   6.122   3.609  12.617  0.3751 -0.3372  0.6341
 5321TIP3    H237379   6.269   3.571  12.609  0.0918 -1.4574  0.7449
 5322TIP3   OH237380   4.107   5.890  10.586  0.1614  0.1110  0.4634
 5322TIP3    H137381   4.152   5.805  10.582  0.4513  0.2986 -0.2867
 5322TIP3    H237382   4.022   5.875  10.547  0.5667  0.3889 -0.5325
 5323TIP3   OH237383   2.550   5.718  11.742  0.2535 -0.0430 -0.0700
 5323TIP3    H137384   2.552   5.665  11.822  1.2762  0.2366  0.0906
 5323TIP3    H237385   2.457   5.727  11.722  0.0260 -0.9134  0.5602
 5324TIP3   OH237386   5.260   4.050   3.176 -0.2620 -0.0906 -0.5503
 5324TIP3    H137387   5.324   3.979   3.174  2.3020  2.1319 -2.0327
 5324TIP3    H237388   5.213   4.042   3.093 -0.3856 -0.4007 -0.4508
 5325TIP3   OH237389   3.503   1.699  15.302 -0.1345  0.2131 -0.5350
 5325TIP3    H137390   3.447   1.775  15.291 -1.2672 -0.0519  2.7822
 5325TIP3    H237391   3.532   1.703  15.393  0.8867 -2.5984 -0.6795
 5326TIP3   OH237392   5.243   2.771  16.938  0.0132 -0.3699  0.5840
 5326TIP3    H137393   5.265   2.860  16.908 -1.6936  0.5636  2.0156
 5326TIP3    H237394   5.166   2.748  16.887  1.2503 -1.6113 -0.7710
 5327TIP3   OH237395   5.770   4.015   0.601 -0.2557 -0.5213 -0.2830
 5327TIP3    H137396   5.815   4.071   0.538  2.2286 -2.0736  0.0584
 5327TIP3    H237397   5.782   4.059   0.685 -2.8768  1.1235 -0.6834
 5328TIP3   OH237398   6.186   6.161   2.440 -0.6283 -0.5165  0.1383
 5328TIP3    H137399   6.121   6.207   2.493  1.2426  0.6906  1.4382
 5328TIP3    H237400   6.150   6.164   2.351 -3.4961 -1.9999  1.1638
 5329TIP3   OH237401   2.389   5.959  12.375  0.3816 -0.3784 -0.0295
 5329TIP3    H137402   2.358   6.010  12.450 -0.3247 -0.0601 -0.5341
 5329TIP3    H237403   2.380   5.868  12.403  0.0236 -0.2615  0.2345
 5330TIP3   OH237404   4.017   3.960   2.639 -0.0649  0.1067  0.0628
 5330TIP3    H137405   4.083   3.994   2.700  0.0275 -1.0187  0.6114
 5330TIP3    H237406   3.947   4.025   2.640  0.8429  1.0999 -0.1924
 5331TIP3   OH237407   6.427   1.637   6.365  0.0437 -0.1330  0.3342
 5331TIP3    H137408   6.351   1.673   6.411 -2.1014 -1.0112 -2.4060
 5331TIP3    H237409   6.415   1.542   6.370  1.7323 -0.3273  1.0757
 5332TIP3   OH237410   4.194   5.697   6.067  0.0783  0.3151 -0.9695
 5332TIP3    H137411   4.105   5.727   6.085 -0.3264 -0.2736 -1.9489
 5332TIP3    H237412   4.209   5.721   5.976 -0.3977 -2.7565 -1.9156
 5333TIP3   OH237413   3.262   2.398   3.272  0.0614 -0.3128 -0.5599
 5333TIP3    H137414   3.227   2.485   3.257 -0.5063 -0.3550  0.4786
 5333TIP3    H237415   3.251   2.383   3.366 -0.1896 -1.6493 -0.7859
 5334TIP3   OH237416   5.584   0.519   4.683 -0.1580  0.1502 -0.1169
 5334TIP3    H137417   5.666   0.515   4.732  0.3212  0.8961 -0.8551
 5334TIP3    H237418   5.554   0.428   4.680  0.6423 -0.1262  0.1456
 5335TIP3   OH237419   0.803   6.667   4.061  0.2283  0.7042 -1.4643
 5335TIP3    H137420   0.860   6.602   4.103 -0.5962  0.0353 -1.3628
 5335TIP3    H237421   0.781   6.728   4.132 -2.0742 -1.0535 -0.5898
 5336TIP3   OH237422   2.193   5.740   5.090  0.7145 -0.3708  0.4766
 5336TIP3    H137423   2.194   5.666   5.151  2.3639  1.6182  2.9919
 5336TIP3    H237424   2.282   5.776   5.095 -0.7135  3.2742  1.2689
 5337TIP3   OH237425   4.535   2.932  14.657  0.3411  0.4003 -0.4928
 5337TIP3    H137426   4.606   2.891  14.706  2.2093  1.7650 -1.9473
 5337TIP3    H237427   4.546   2.900  14.567 -0.6651  0.9000 -0.8010
 5338TIP3   OH237428   5.456   3.683  15.050  0.2482 -0.7054  0.3081
 5338TIP3    H137429   5.416   3.744  14.989  0.6701 -1.1445 -0.4164
 5338TIP3    H237430   5.398   3.607  15.050 -0.7716  0.0380  1.9048
 5339TIP3   OH237431   0.359   6.662   0.508 -0.3851 -0.6103  0.3176
 5339TIP3    H137432   0.445   6.704   0.503 -1.3100  1.5570  1.7539
 5339TIP3    H237433   0.324   6.687   0.594 -2.2926 -1.7721 -0.0768
 5340TIP3   OH237434   3.568   0.283   3.695  0.3012  0.2558  0.1602
 5340TIP3    H137435   3.600   0.273   3.784 -1.6186  0.2459  0.8756
 5340TIP3    H237436   3.643   0.261   3.639  1.9976  1.8625  1.7599
 5341TIP3   OH237437   5.607   4.370   2.746  0.0675 -0.1864 -0.3836
 5341TIP3    H137438   5.653   4.433   2.690  0.2864 -0.2133 -0.2305
 5341TIP3    H237439   5.665   4.357   2.821 -0.4867  0.2929  0.1368
 5342TIP3   OH237440   4.704   1.069   1.788  0.3107 -0.1253 -0.7336
 5342TIP3    H137441   4.686   0.991   1.841  0.2745  0.8157  0.6447
 5342TIP3    H237442   4.694   1.142   1.848  1.8134  0.8653 -1.6575
 5343TIP3   OH237443   3.620   0.851   5.064  0.2091  0.0914  0.0297
 5343TIP3    H137444   3.671   0.777   5.031 -0.1584  0.3258 -1.0857
 5343TIP3    H237445   3.680   0.926   5.056 -0.0294  0.2245 -0.5185
 5344TIP3   OH237446   6.220   4.274   0.619  0.1577  0.7514 -0.8768
 5344TIP3    H137447   6.306   4.298   0.653 -0.8163  2.4510  0.4265
 5344TIP3    H237448   6.170   4.356   0.619 -1.3597 -0.1434 -1.9431
 5345TIP3   OH237449   6.671   1.647   5.124 -0.2123 -0.0554 -0.0773
 5345TIP3    H137450   6.591   1.671   5.171 -0.6241  3.6688 -2.4424
 5345TIP3    H237451   6.741   1.691   5.172  0.1586 -1.3599  0.6040
 5346TIP3   OH237452   1.614   4.996  15.584 -0.0705 -0.1076  0.1103
 5346TIP3    H137453   1.707   4.986  15.564  0.1630  2.3890 -0.2496
 5346TIP3    H237454   1.568   4.968  15.505  0.4834  0.7031 -0.5120
 5347TIP3   OH237455   4.298   2.783  11.112  0.4802  0.4819  0.2694
 5347TIP3    H137456   4.253   2.703  11.084 -0.6770  0.6088  1.7233
 5347TIP3    H237457   4.387   2.772  11.081  0.6440 -1.9279  1.4961
 5348TIP3   OH237458   6.683   3.552  13.679 -0.2879  0.3043 -0.3666
 5348TIP3    H137459   6.705   3.459  13.681 -1.0461  0.1078 -0.9823
 5348TIP3    H237460   6.616   3.563  13.747 -1.0988  0.1587 -1.1338
 5349TIP3   OH237461   1.300   3.847  12.598 -0.2623  0.0958  0.1757
 5349TIP3    H137462   1.222   3.792  12.603  0.1504 -0.6350 -1.1649
 5349TIP3    H237463   1.287   3.898  12.518 -0.5188  1.7885  1.2609
 5350TIP3   OH237464   2.733   1.351  14.373 -0.4836  0.0960 -0.4972
 5350TIP3    H137465   2.690   1.433  14.396 -1.5837 -0.3778 -0.8139
 5350TIP3    H237466   2.792   1.373  14.301 -0.3932  0.7022 -0.2366
 5351TIP3   OH237467   5.722   2.304   2.303 -0.2171 -0.0444  0.0090
 5351TIP3    H137468   5.777   2.367   2.349 -0.9300 -0.0143  0.8221
 5351TIP3    H237469   5.633   2.333   2.318 -0.4619 -0.0158 -1.4351
 5352TIP3   OH237470   3.239   5.223   4.758  0.1881 -0.4352 -0.2574
 5352TIP3    H137471   3.162   5.278   4.740  0.9533  0.4209 -0.9793
 5352TIP3    H237472   3.212   5.135   4.734 -0.8317 -0.2605  0.2365
 5353TIP3   OH237473   5.042   3.279  13.549  0.5269 -1.1997  0.3553
 5353TIP3    H137474   5.105   3.241  13.488  0.1860  1.1261 -1.5124
 5353TIP3    H237475   5.090   3.349  13.593 -0.7282  0.6847 -1.1825
 5354TIP3   OH237476   1.796   1.599   3.033  0.2181 -0.2248 -0.0223
 5354TIP3    H137477   1.707   1.583   3.064 -0.1192  1.2668 -0.1774
 5354TIP3    H237478   1.827   1.513   3.003 -0.4255 -1.1474  1.9011
 5355TIP3   OH237479   1.921   6.700  12.557 -0.4468  0.6384  0.0395
 5355TIP3    H137480   1.850   6.657  12.510  1.0982 -1.8281 -0.1066
 5355TIP3    H237481   1.988   6.633  12.567  1.8971  2.9079  0.1510
 5356TIP3   OH237482   1.806   6.268  15.965  0.6224  0.1627 -0.3097
 5356TIP3    H137483   1.846   6.277  15.878  0.4425  0.0834 -0.3994
 5356TIP3    H237484   1.735   6.332  15.965 -0.6900 -1.2615 -0.9639
 5357TIP3   OH237485   0.321   0.520  15.744 -0.0317 -0.0642 -0.2259
 5357TIP3    H137486   0.275   0.440  15.719  0.0291  0.1247 -0.9512
 5357TIP3    H237487   0.251   0.581  15.768 -0.1645  0.1730 -1.1851
 5358TIP3   OH237488   2.057   0.225  11.244  0.3157  0.0508 -0.2832
 5358TIP3    H137489   2.055   0.298  11.184 -1.0568 -0.2289 -0.5857
 5358TIP3    H237490   2.128   0.169  11.212  0.1310  0.3111 -1.1344
 5359TIP3   OH237491   2.577   0.615  16.923 -0.5782 -0.4402  0.9554
 5359TIP3    H137492   2.609   0.535  16.964 -1.7658 -0.2548  2.2930
 5359TIP3    H237493   2.514   0.651  16.986  0.5318  1.9685  0.7655
 5360TIP3   OH237494   2.989   2.468   6.454 -0.1955  0.2169  0.4460
 5360TIP3    H137495   3.084   2.454   6.451 -0.1665  0.0505  1.7419
 5360TIP3    H237496   2.974   2.545   6.400  0.9275  1.3744  1.7295
 5361TIP3   OH237497   3.481   2.536  16.498  0.6562  0.6372 -0.2764
 5361TIP3    H137498   3.388   2.559  16.496  0.7167  0.8725 -0.5150
 5361TIP3    H237499   3.485   2.456  16.550  0.0240 -0.6660 -2.1590
 5362TIP3   OH237500   5.872   4.858   2.530  0.1068 -0.0039 -0.0192
 5362TIP3    H137501   5.799   4.819   2.482 -0.1883  1.0223 -0.4020
 5362TIP3    H237502   5.940   4.790   2.529  0.3688  0.2732 -2.4991
 5363TIP3   OH237503   6.569   0.273  14.723 -0.0993  0.4225  0.1063
 5363TIP3    H137504   6.629   0.200  14.742  0.9171  0.8572 -1.3660
 5363TIP3    H237505   6.481   0.235  14.731  0.3465 -0.2714  2.0873
 5364TIP3   OH237506   1.126   3.533  11.540  0.0919  0.4432  0.2460
 5364TIP3    H137507   1.045   3.573  11.508 -0.2069 -0.9974 -0.8926
 5364TIP3    H237508   1.196   3.589  11.506 -0.2717 -0.4814 -2.1349
 5365TIP3   OH237509   5.051   1.418   2.955  0.4236  0.1092  0.1942
 5365TIP3    H137510   5.074   1.469   3.033  1.5309 -0.6893  0.4095
 5365TIP3    H237511   4.991   1.474   2.906  0.7972  1.1798  0.9426
 5366TIP3   OH237512   0.170   3.485  12.217 -0.1097  0.2293 -0.1671
 5366TIP3    H137513   0.165   3.449  12.306 -0.5544 -2.9285 -1.3890
 5366TIP3    H237514   0.243   3.546  12.220  0.1572 -0.1548  2.2636
 5367TIP3   OH237515   5.557   4.685  15.908  0.1221  0.0156 -0.2981
 5367TIP3    H137516   5.469   4.717  15.927  0.2870  1.0189 -1.1745
 5367TIP3    H237517   5.544   4.615  15.844  0.0530  1.0922 -1.4791
 5368TIP3   OH237518   0.699   6.696  16.944  1.1837 -0.0081 -0.1235
 5368TIP3    H137519   0.621   6.672  16.896  1.7028 -2.3578  0.1067
 5368TIP3    H237520   0.668   6.750  17.017 -0.0019  0.4687 -0.9788
 5369TIP3   OH237521   1.044   6.130   2.489  0.3736  0.2175  0.0427
 5369TIP3    H137522   1.032   6.205   2.548 -0.6854 -1.0901  1.5635
 5369TIP3    H237523   0.958   6.118   2.448  1.2228  1.3707 -2.1057
 5370TIP3   OH237524   3.202   4.082   6.399 -0.0666 -0.5822  0.6029
 5370TIP3    H137525   3.258   4.037   6.461  0.6171  0.2029  0.5628
 5370TIP3    H237526   3.145   4.137   6.454  0.0771 -0.4045  0.5752
 5371TIP3   OH237527   2.199   1.276  14.041  0.1433 -0.3272 -1.2467
 5371TIP3    H137528   2.214   1.310  13.953  3.3171  0.5361 -0.4554
 5371TIP3    H237529   2.138   1.337  14.081  2.2427  1.9389 -1.3726
 5372TIP3   OH237530   3.497   4.955  13.037  0.3140 -0.5300 -0.9799
 5372TIP3    H137531   3.531   4.872  13.004  0.6701 -0.2978 -1.2068
 5372TIP3    H237532   3.450   4.993  12.964  0.6277 -0.2737 -1.0508
 5373TIP3   OH237533   6.556   6.271   0.512  0.1966  0.0724 -0.9408
 5373TIP3    H137534   6.592   6.323   0.440  2.1405  0.2336  0.1151
 5373TIP3    H237535   6.583   6.182   0.493  0.0420  0.0016 -0.8300
 5374TIP3   OH237536   6.201   2.985   5.945 -0.5190 -0.1352  0.2488
 5374TIP3    H137537   6.211   3.079   5.964  0.8186 -0.1796 -0.1716
 5374TIP3    H237538   6.108   2.967   5.961 -0.8234  1.2970  0.1730
 5375TIP3   OH237539   4.060   0.569   3.099 -0.9210  0.1930  0.2227
 5375TIP3    H137540   3.973   0.576   3.061 -1.5280 -1.8958  1.1505
 5375TIP3    H237541   4.051   0.605   3.187 -1.2937 -1.5374  0.9226
 5376TIP3   OH237542   1.601   2.413   0.291 -0.2778  0.4482  0.5422
 5376TIP3    H137543   1.583   2.320   0.280  0.7523  0.4241 -1.0303
 5376TIP3    H237544   1.696   2.418   0.303 -0.5292  1.1420  2.4359
 5377TIP3   OH237545   5.417   3.187  11.638 -0.1753  0.4427 -0.0939
 5377TIP3    H137546   5.403   3.119  11.572 -4.6591  1.2302 -0.1083
 5377TIP3    H237547   5.437   3.139  11.719 -2.6098 -0.9395 -0.2666
 5378TIP3   OH237548   6.422   1.094   5.711 -0.0462  0.3525  0.1654
 5378TIP3    H137549   6.370   1.018   5.738  0.8021 -0.2589  0.1167
 5378TIP3    H237550   6.497   1.056   5.664  0.4802  1.2077  0.3060
 5379TIP3   OH237551   0.708   0.455   1.380 -0.0753  0.0072  0.2867
 5379TIP3    H137552   0.663   0.519   1.325  0.4831 -0.6280 -0.9342
 5379TIP3    H237553   0.639   0.398   1.412 -0.4335  0.5122  0.4158
 5380TIP3   OH237554   6.296   5.808   4.883  0.1347  0.1579 -0.0483
 5380TIP3    H137555   6.371   5.837   4.832  0.8018 -0.7909  0.3661
 5380TIP3    H237556   6.330   5.798   4.972 -0.4595 -0.3317  0.1301
 5381TIP3   OH237557   1.353   2.113  11.247  0.6548  0.4419 -0.0122
 5381TIP3    H137558   1.351   2.196  11.198  2.0077 -0.9069 -2.4779
 5381TIP3    H237559   1.427   2.066  11.210  0.3018 -1.6146  1.8261
 5382TIP3   OH237560   5.500   6.498  10.511 -0.2808  0.2164 -0.2332
 5382TIP3    H137561   5.429   6.437  10.531 -0.7236  0.2044 -1.7940
 5382TIP3    H237562   5.548   6.457  10.439  1.6126  0.0042  1.1000
 5383TIP3   OH237563   2.365   2.282  11.057 -0.0758 -0.1581 -0.3513
 5383TIP3    H137564   2.381   2.375  11.076  2.9156 -0.4920 -0.9353
 5383TIP3    H237565   2.282   2.263  11.100  0.1368  2.3409  1.3099
 5384TIP3   OH237566   4.293   0.169   6.943  0.9082  0.0291  0.2345
 5384TIP3    H137567   4.218   0.145   6.998  1.4504 -0.9428  0.5603
 5384TIP3    H237568   4.367   0.170   7.004  0.9691  2.2579  0.1869
 5385TIP3   OH237569   3.486   0.622  14.912  0.0817 -0.0759 -0.3062
 5385TIP3    H137570   3.464   0.648  14.822  1.0279  1.0941 -0.2055
 5385TIP3    H237571   3.496   0.704  14.959 -1.0420 -0.6980  1.0480
 5386TIP3   OH237572   0.239   2.398  17.129  0.1200  0.7853  0.9334
 5386TIP3    H137573   0.318   2.356  17.163  0.1285  0.7041  0.8132
 5386TIP3    H237574   0.175   2.327  17.122 -0.0373  0.8952  1.2519
 5387TIP3   OH237575   2.306   0.445   2.730  0.4096 -0.3601  0.1306
 5387TIP3    H137576   2.248   0.414   2.800  0.5785 -0.5833  0.1744
 5387TIP3    H237577   2.248   0.472   2.659  0.3004 -2.2460 -0.5167
 5388TIP3   OH237578   1.894   2.823  12.698 -0.0427 -0.4954  0.2824
 5388TIP3    H137579   1.978   2.861  12.725 -0.1828 -0.3328  0.4945
 5388TIP3    H237580   1.829   2.886  12.728 -0.2441 -0.6481  0.1645
 5389TIP3   OH237581   4.385   6.233   1.176  0.0438  0.0860 -0.3913
 5389TIP3    H137582   4.376   6.210   1.269  1.2805  0.5629 -0.1550
 5389TIP3    H237583   4.448   6.305   1.175 -0.9015  0.9116 -1.4915
 5390TIP3   OH237584   1.267   1.757   1.132 -0.0309  0.0551  0.2062
 5390TIP3    H137585   1.297   1.700   1.202  0.3972 -1.6650 -1.3479
 5390TIP3    H237586   1.346   1.779   1.083 -0.6370 -0.7563 -1.1696
 5391TIP3   OH237587   2.888   4.696   4.913 -0.2578 -0.0400 -0.4404
 5391TIP3    H137588   2.793   4.693   4.915 -0.1894 -1.8452  1.4685
 5391TIP3    H237589   2.915   4.606   4.895  1.1034  0.1360  0.5911
 5392TIP3   OH237590   2.653   1.127   5.188 -0.5576  0.1731  0.0858
 5392TIP3    H137591   2.690   1.215   5.180 -0.5462  0.2865  1.3173
 5392TIP3    H237592   2.567   1.133   5.146  0.5710  0.0274 -2.3977
 5393TIP3   OH237593   1.042   5.504  11.810 -0.4175  0.2257 -0.1802
 5393TIP3    H137594   1.040   5.583  11.864  0.3746 -1.0706  1.8232
 5393TIP3    H237595   0.953   5.496  11.776 -1.1130  0.7627  1.4539
 5394TIP3   OH237596   2.791   5.293   2.453  0.0762  0.3669  0.0911
 5394TIP3    H137597   2.886   5.282   2.457  0.3745  1.1601 -3.3404
 5394TIP3    H237598   2.760   5.218   2.403 -0.7156  1.6225 -1.3564
 5395TIP3   OH237599   6.390   4.697  13.333  0.4142  0.5057  0.2254
 5395TIP3    H137600   6.441   4.619  13.311 -0.2702 -0.1860  1.0442
 5395TIP3    H237601   6.439   4.770  13.296  0.0703 -0.4858 -2.2620
 5396TIP3   OH237602   0.209   1.898  12.975  0.4322  0.3607 -0.2991
 5396TIP3    H137603   0.225   1.910  13.069  0.3954  0.5208 -0.3151
 5396TIP3    H237604   0.164   1.813  12.969  0.1418  0.5059 -0.1447
 5397TIP3   OH237605   1.404   1.860  13.204  0.1519  0.0881  0.6858
 5397TIP3    H137606   1.354   1.926  13.252 -0.8078  0.0480 -0.2521
 5397TIP3    H237607   1.339   1.813  13.152  1.1463 -0.0190 -0.4702
 5398TIP3   OH237608   5.947   0.162  15.525  0.5647  0.3063  0.4688
 5398TIP3    H137609   5.860   0.130  15.501  0.6572 -0.3936  1.0530
 5398TIP3    H237610   5.981   0.096  15.584  1.8290  0.1689 -0.4069
 5399TIP3   OH237611   4.743   4.504  14.789 -0.2866 -0.1747 -0.5245
 5399TIP3    H137612   4.765   4.513  14.696 -1.3034  1.4172 -0.6371
 5399TIP3    H237613   4.652   4.473  14.788 -0.4044  0.1501 -0.0707
 5400TIP3   OH237614   1.584   2.987   4.047 -0.4177 -0.0879  0.0379
 5400TIP3    H137615   1.575   2.973   4.141  1.8065  0.2552  0.3419
 5400TIP3    H237616   1.580   2.900   4.009  0.7806 -0.4449  0.6837
 5401TIP3   OH237617   0.756   0.625  10.492 -0.1376  0.1876 -0.5017
 5401TIP3    H137618   0.848   0.644  10.511 -0.5242  1.0709  0.5582
 5401TIP3    H237619   0.755   0.533  10.467  0.8048 -0.2711  1.0771
 5402TIP3   OH237620   3.701   0.492  16.460 -0.1625  0.7552  0.1927
 5402TIP3    H137621   3.784   0.464  16.497 -0.0852 -0.4591 -0.8580
 5402TIP3    H237622   3.636   0.434  16.501 -0.0592 -0.6863 -1.6439
 5403TIP3   OH237623   4.221   2.678  16.092 -0.0375 -0.5397 -0.2386
 5403TIP3    H137624   4.129   2.701  16.076  0.1420 -1.1902 -2.2552
 5403TIP3    H237625   4.267   2.710  16.015  1.2290 -1.5629  0.0960
 5404TIP3   OH237626   6.546   5.228   1.314  0.2739 -0.0769  0.2316
 5404TIP3    H137627   6.627   5.224   1.366 -0.0792  1.5193  0.9147
 5404TIP3    H237628   6.577   5.230   1.223  1.0022  0.4642  0.4847
 5405TIP3   OH237629   3.366   0.766   6.054  0.0113  0.6237 -0.0254
 5405TIP3    H137630   3.304   0.729   6.118 -0.5387  1.6471  0.0546
 5405TIP3    H237631   3.423   0.822   6.107  1.4127 -0.7846 -0.0084
 5406TIP3   OH237632   0.704   5.655  10.712  0.2430  0.2070 -0.8431
 5406TIP3    H137633   0.754   5.736  10.725  1.2012 -0.6052  0.5429
 5406TIP3    H237634   0.626   5.666  10.767 -0.4028  0.8460 -1.8704
 5407TIP3   OH237635   1.867   4.409   4.350 -0.3520 -0.2035 -0.5399
 5407TIP3    H137636   1.790   4.463   4.370 -0.0374 -0.0009  0.1603
 5407TIP3    H237637   1.880   4.356   4.429  0.3660 -0.0587 -0.5548
 5408TIP3   OH237638   3.398   2.971  11.271 -0.3558  0.2792  0.3652
 5408TIP3    H137639   3.476   2.941  11.319 -0.8123 -0.1940  0.8237
 5408TIP3    H237640   3.328   2.969  11.337 -1.4602 -2.4184 -0.7954
 5409TIP3   OH237641   3.950   6.585  12.083  0.4395  0.4176  0.3895
 5409TIP3    H137642   3.906   6.580  11.998  0.4980  1.9317  0.2527
 5409TIP3    H237643   3.880   6.571  12.147 -0.0951  1.9046  0.1481
 5410TIP3   OH237644   0.421   6.478  11.007  0.4617  0.0774 -0.2036
 5410TIP3    H137645   0.374   6.431  10.938  0.0434  1.6271 -0.9858
 5410TIP3    H237646   0.501   6.426  11.021  0.7223 -0.0704 -2.1000
 5411TIP3   OH237647   1.534   1.298  14.260 -0.9542 -0.6017  0.1953
 5411TIP3    H137648   1.479   1.376  14.264  0.0571  0.1100  0.4110
 5411TIP3    H237649   1.480   1.228  14.296 -1.3950  0.2733  1.2533
 5412TIP3   OH237650   1.497   3.743   1.110  0.4237 -0.5904  0.3714
 5412TIP3    H137651   1.550   3.823   1.113 -1.2617  0.6047 -0.4994
 5412TIP3    H237652   1.537   3.691   1.040  1.9143 -0.8210  1.3670
 5413TIP3   OH237653   3.586   1.030   2.243 -0.0951  0.3626  0.0499
 5413TIP3    H137654   3.641   1.048   2.319  0.1601  0.7705 -0.2307
 5413TIP3    H237655   3.645   1.039   2.167 -0.5053  0.6373 -0.2400
 5414TIP3   OH237656   3.020   5.587  15.771  0.2558 -0.6726  0.7578
 5414TIP3    H137657   2.972   5.536  15.836 -0.0649 -0.0345  1.0351
 5414TIP3    H237658   2.996   5.548  15.687 -0.1019 -0.8791  0.9547
 5415TIP3   OH237659   2.466   1.516  15.424 -0.4963 -0.3948  0.5450
 5415TIP3    H137660   2.529   1.452  15.459 -2.3817 -2.8305 -0.3972
 5415TIP3    H237661   2.380   1.476  15.439 -1.7508  2.0680  0.1746
 5416TIP3   OH237662   5.112   5.616  15.819 -0.1012 -0.2609 -0.4128
 5416TIP3    H137663   5.123   5.526  15.788  0.1357  0.0294 -1.1851
 5416TIP3    H237664   5.042   5.611  15.883 -1.0271 -0.7765 -1.4539
 5417TIP3   OH237665   2.481   0.988   1.707 -0.3454 -0.4314  0.1065
 5417TIP3    H137666   2.551   1.020   1.764  0.0437 -1.4374  0.2173
 5417TIP3    H237667   2.401   1.011   1.753 -0.0940  0.8749 -0.0982
 5418TIP3   OH237668   0.920   4.709   1.116  0.6988  0.3541  0.4060
 5418TIP3    H137669   0.830   4.693   1.142  0.7731 -1.5684 -0.3812
 5418TIP3    H237670   0.914   4.779   1.050 -0.4106 -0.8531 -0.8172
 5419TIP3   OH237671   6.635   3.341  14.950  0.2828 -0.4195  0.0058
 5419TIP3    H137672   6.721   3.331  14.991  1.4980  1.2476 -2.0211
 5419TIP3    H237673   6.582   3.387  15.015  1.8727  1.2779  0.1478
 5420TIP3   OH237674   6.293   4.204   2.108 -0.1403 -0.2882 -0.1159
 5420TIP3    H137675   6.365   4.251   2.148 -0.1805  0.5775 -1.0356
 5420TIP3    H237676   6.323   4.113   2.103 -0.3787 -0.5513  2.4097
 5421TIP3   OH237677   5.577   2.519   0.055  0.2103  0.5205  0.4179
 5421TIP3    H137678   5.512   2.552  -0.007  0.8067  0.4243 -0.2650
 5421TIP3    H237679   5.542   2.435   0.085  1.0081 -0.5176 -1.5222
 5422TIP3   OH237680   1.731   2.066  12.429  0.5317 -0.2471 -0.2697
 5422TIP3    H137681   1.782   1.995  12.469  0.1794 -0.7975 -0.7933
 5422TIP3    H237682   1.646   2.027  12.409  0.4283  0.2479 -0.8194
 5423TIP3   OH237683   5.548   6.123   2.446  0.2239 -0.2148 -0.0763
 5423TIP3    H137684   5.641   6.101   2.444  0.0567 -0.9623  0.5175
 5423TIP3    H237685   5.504   6.042   2.468 -0.5633  0.1757 -0.1943
 5424TIP3   OH237686   6.510   5.738   7.007 -0.3282  0.0887 -0.2206
 5424TIP3    H137687   6.476   5.806   7.066 -1.6792 -0.7336 -0.0236
 5424TIP3    H237688   6.560   5.679   7.064  0.3420  0.5729 -0.2956
 5425TIP3   OH237689   2.680   0.026  13.893  0.0589 -0.5276 -0.7045
 5425TIP3    H137690   2.617  -0.008  13.830 -1.4350  1.7103 -0.4810
 5425TIP3    H237691   2.700   0.114  13.861  1.6029 -0.5106  0.2860
 5426TIP3   OH237692   3.283   6.000   2.374 -0.7839 -0.1986  0.1085
 5426TIP3    H137693   3.325   5.960   2.297 -1.6913 -1.2370  0.1403
 5426TIP3    H237694   3.189   5.998   2.353 -1.0682 -0.8994  1.4353
 5427TIP3   OH237695   5.872   1.658   3.206  0.3048 -0.0774  0.0763
 5427TIP3    H137696   5.791   1.657   3.156  0.6727 -0.1282 -0.5187
 5427TIP3    H237697   5.843   1.661   3.297 -0.3638  0.4420 -0.1466
 5428TIP3   OH237698   0.526   1.006  14.244 -0.2271  0.2951 -0.1052
 5428TIP3    H137699   0.513   1.090  14.199 -1.4526  0.3369  0.3201
 5428TIP3    H237700   0.446   0.957  14.228  1.2932 -1.6446 -2.0819
 5429TIP3   OH237701   3.294   0.752   0.005 -0.0262  0.8012 -0.1518
 5429TIP3    H137702   3.319   0.830   0.055  0.7745  0.2957  0.2588
 5429TIP3    H237703   3.255   0.694   0.070  0.6508  0.3028 -0.1824
 5430TIP3   OH237704   1.916   5.727   5.025 -0.1482 -0.1942 -0.0107
 5430TIP3    H137705   2.009   5.748   5.034 -0.1988  0.1700 -0.3159
 5430TIP3    H237706   1.909   5.683   4.940 -0.7495  2.7993 -1.6040
 5431TIP3   OH237707   6.406   3.622  12.322  0.8906  0.2757 -0.2945
 5431TIP3    H137708   6.412   3.711  12.287 -0.2313  0.7902  0.7998
 5431TIP3    H237709   6.425   3.631  12.415  0.5624 -0.5968 -0.1332
 5432TIP3   OH237710   3.066   1.488   3.675 -0.2170  0.0102  0.1334
 5432TIP3    H137711   3.046   1.395   3.686 -0.0956 -0.1148 -0.6156
 5432TIP3    H237712   3.155   1.498   3.709  1.0237 -0.8142 -2.6312
 5433TIP3   OH237713   3.680   6.586   4.767  0.2650 -0.1334  0.4482
 5433TIP3    H137714   3.737   6.620   4.835 -1.6612 -2.2339  3.2085
 5433TIP3    H237715   3.730   6.514   4.728  1.0235  0.5418  0.1349
 5434TIP3   OH237716   5.628   1.859  15.335  0.8725 -0.2855  0.6505
 5434TIP3    H137717   5.694   1.825  15.395  0.7427 -0.1234  0.8841
 5434TIP3    H237718   5.563   1.900  15.392  0.2481 -1.0031  0.4649
 5435TIP3   OH237719   4.917   2.822   4.905 -0.2839 -0.1105 -0.1735
 5435TIP3    H137720   4.969   2.771   4.843  0.0489 -0.6111  0.5089
 5435TIP3    H237721   4.964   2.904   4.914  0.4374 -0.5947  0.5022
 5436TIP3   OH237722   5.925   2.232  11.427  0.0518  0.4960 -0.2073
 5436TIP3    H137723   5.840   2.257  11.392  0.6286  0.9752 -1.3002
 5436TIP3    H237724   5.983   2.304  11.402  0.8670 -0.0193  0.1780
 5437TIP3   OH237725   2.999   1.665   0.651 -0.4467  0.5452  0.3848
 5437TIP3    H137726   2.905   1.674   0.668 -0.6087 -1.0624  0.4345
 5437TIP3    H237727   3.004   1.645   0.557 -0.1968  0.1742  0.4748
 5438TIP3   OH237728   0.769   0.808   5.150  0.3955 -0.0835 -0.2075
 5438TIP3    H137729   0.720   0.864   5.090  0.6679  0.2584 -0.1077
 5438TIP3    H237730   0.810   0.868   5.212  0.7072 -0.3896 -0.1122
 5439TIP3   OH237731   4.789   3.446   4.789 -0.1920  0.3743 -0.6101
 5439TIP3    H137732   4.738   3.380   4.743 -0.9432  0.7544 -0.3337
 5439TIP3    H237733   4.869   3.401   4.816 -0.4090 -0.2400 -0.9938
 5440TIP3   OH237734   4.460   2.316   3.788  0.3480 -0.4914  0.0629
 5440TIP3    H137735   4.482   2.409   3.789  3.5599 -1.1849  0.7488
 5440TIP3    H237736   4.442   2.295   3.880 -0.1967 -0.5755 -0.0642
 5441TIP3   OH237737   3.219   1.294   0.278  0.2213 -0.0085 -0.0584
 5441TIP3    H137738   3.298   1.262   0.233  0.4397 -0.3477  0.5599
 5441TIP3    H237739   3.146   1.255   0.229  0.3642  1.7895 -1.7856
 5442TIP3   OH237740   2.345   6.289  14.859  0.5402  0.0837  0.1506
 5442TIP3    H137741   2.268   6.304  14.914  1.8052  1.8848  1.4635
 5442TIP3    H237742   2.418   6.280  14.921  1.1911 -3.2495 -0.9739
 5443TIP3   OH237743   5.216   1.081  14.792  0.7258 -0.4410 -0.6585
 5443TIP3    H137744   5.280   1.066  14.862  0.2729  0.7121  0.0186
 5443TIP3    H237745   5.268   1.090  14.713  1.2904 -1.0943 -0.3706
 5444TIP3   OH237746   3.586   3.489  16.050  0.6252  0.1981 -0.2666
 5444TIP3    H137747   3.499   3.510  16.017  0.2941 -2.9249 -1.5553
 5444TIP3    H237748   3.573   3.469  16.143 -0.0382 -0.2294 -0.4459
 5445TIP3   OH237749   4.608   5.848  12.593  0.3713  0.1554  0.6981
 5445TIP3    H137750   4.658   5.890  12.664 -0.0351 -0.3373  1.2777
 5445TIP3    H237751   4.640   5.891  12.514  0.8262  0.7247  1.1757
 5446TIP3   OH237752   2.022   3.915   3.702  0.0955 -0.2806 -0.2561
 5446TIP3    H137753   2.052   3.977   3.635  0.5220  0.3973  0.5475
 5446TIP3    H237754   1.944   3.875   3.664  0.0893  0.4008 -0.9891
 5447TIP3   OH237755   2.936   1.730   3.816 -0.1555 -0.2966 -0.2107
 5447TIP3    H137756   2.873   1.715   3.885 -0.1775  0.6510 -0.0210
 5447TIP3    H237757   2.938   1.648   3.767 -0.3404 -0.8762  0.7405
 5448TIP3   OH237758   0.843   0.532   5.075 -0.3332  0.5551  0.2209
 5448TIP3    H137759   0.811   0.604   5.130 -0.9694  0.4567 -0.0161
 5448TIP3    H237760   0.928   0.510   5.113 -1.3155 -0.3511  1.9709
 5449TIP3   OH237761   6.078   2.925  14.012 -0.2610  0.4666  0.2904
 5449TIP3    H137762   6.038   2.851  14.057 -3.1472  1.4602 -0.5256
 5449TIP3    H237763   6.121   2.975  14.081 -1.5229  0.0263  1.4229
 5450TIP3   OH237764   4.941   4.252  11.609  0.2987  0.2192 -0.0003
 5450TIP3    H137765   5.029   4.288  11.609 -0.0482  1.0877 -0.6494
 5450TIP3    H237766   4.941   4.189  11.681  1.0004  1.3135  0.9838
 5451TIP3   OH237767   3.555   4.026   1.205 -0.2535 -0.2306  0.9739
 5451TIP3    H137768   3.577   3.981   1.123 -1.3697 -1.2430  1.2244
 5451TIP3    H237769   3.468   4.063   1.190  0.2692  1.0587  1.0982
 5452TIP3   OH237770   1.137   4.912  14.728 -0.0136  0.4646 -0.1178
 5452TIP3    H137771   1.082   4.863  14.789  0.1602 -0.2431 -0.5201
 5452TIP3    H237772   1.094   4.997  14.719 -0.4910  0.2740  0.3454
 5453TIP3   OH237773   4.310   2.864   3.053  0.1089  0.3037  0.9495
 5453TIP3    H137774   4.230   2.810   3.053 -0.8921  1.7628  1.1804
 5453TIP3    H237775   4.307   2.912   2.971 -1.1516  3.0551  2.5164
 5454TIP3   OH237776   5.196   2.266   5.851 -0.7444  0.1933 -0.1743
 5454TIP3    H137777   5.224   2.249   5.941 -0.8589  0.8184 -0.0162
 5454TIP3    H237778   5.209   2.360   5.839 -0.8890  0.1439 -0.7584
 5455TIP3   OH237779   2.365   2.573  12.205  0.0367 -0.2852 -0.3080
 5455TIP3    H137780   2.331   2.485  12.193 -1.1009  0.0206  0.5508
 5455TIP3    H237781   2.449   2.561  12.250 -0.5130 -0.8888  0.5641
 5456TIP3   OH237782   3.205   6.184  10.605  0.0246  0.2750  0.0171
 5456TIP3    H137783   3.274   6.199  10.540  0.1819  1.5531  0.4524
 5456TIP3    H237784   3.251   6.162  10.685 -0.1392 -0.4880 -0.0952
 5457TIP3   OH237785   3.626   2.444   5.570  0.0245 -0.3738  0.0224
 5457TIP3    H137786   3.616   2.520   5.627  1.8369 -0.0073 -0.1035
 5457TIP3    H237787   3.587   2.471   5.487 -0.7858 -0.1611  0.4719
 5458TIP3   OH237788   0.807   6.173   3.835  0.2304  0.5946  0.6946
 5458TIP3    H137789   0.860   6.216   3.902  2.5807 -2.7685  1.1423
 5458TIP3    H237790   0.762   6.103   3.881 -0.2413 -0.0650 -0.7338
 5459TIP3   OH237791   1.594   4.287   5.650  0.8167  0.1419 -0.3766
 5459TIP3    H137792   1.520   4.326   5.605 -1.0116 -1.1119  1.4785
 5459TIP3    H237793   1.658   4.359   5.658 -1.2772  1.9737  0.3632
 5460TIP3   OH237794   3.669   3.978   0.471  0.0415 -0.3079 -0.3160
 5460TIP3    H137795   3.594   3.978   0.412 -2.6103  2.7539  2.7711
 5460TIP3    H237796   3.700   3.888   0.472 -1.9854 -1.1126 -3.6436
 5461TIP3   OH237797   3.524   6.067   3.252  0.0625  0.7049 -0.0690
 5461TIP3    H137798   3.520   6.094   3.343 -0.9671  0.6678 -0.1002
 5461TIP3    H237799   3.614   6.037   3.240  1.0566  3.4964  0.1406
 5462TIP3   OH237800   1.172   5.287  16.719 -0.1974  0.5915 -0.1557
 5462TIP3    H137801   1.163   5.314  16.810 -2.0126  1.6635 -0.6211
 5462TIP3    H237802   1.088   5.247  16.697  1.6749 -3.5280 -0.1485
 5463TIP3   OH237803   0.240   1.091  16.657  0.7856 -0.2800  0.0893
 5463TIP3    H137804   0.325   1.055  16.634  0.8516 -0.3916  0.5085
 5463TIP3    H237805   0.182   1.015  16.663  0.6907 -0.2188 -0.0431
 5464TIP3   OH237806   1.362   2.173  12.468 -0.0641 -0.0209  0.4853
 5464TIP3    H137807   1.319   2.237  12.525  0.2129 -0.1431  0.8320
 5464TIP3    H237808   1.408   2.115  12.528  0.6971  0.1861  0.1102
 5465TIP3   OH237809   1.915   5.847  13.055  0.3510 -0.4637  0.3011
 5465TIP3    H137810   1.878   5.922  13.102 -0.2269  0.1135 -1.0428
 5465TIP3    H237811   1.923   5.779  13.121  0.0889  0.5179  1.3613
 5466TIP3   OH237812   3.910   4.775   2.457  0.5143 -0.1729  0.0864
 5466TIP3    H137813   3.913   4.700   2.518  2.4522  0.3611  0.6901
 5466TIP3    H237814   3.986   4.762   2.400  0.9275  1.3892  0.2724
 5467TIP3   OH237815   6.660   0.777  16.311  0.4505  0.6221 -0.2102
 5467TIP3    H137816   6.652   0.743  16.222 -0.8032  0.3673 -0.0091
 5467TIP3    H237817   6.735   0.730  16.348  0.3437 -0.0153 -0.7918
 5468TIP3   OH237818   6.226   2.574  12.593  0.2490 -0.1245 -0.3181
 5468TIP3    H137819   6.214   2.646  12.656 -2.7743 -0.2480 -0.6836
 5468TIP3    H237820   6.143   2.570  12.545  0.2652 -3.9965 -0.1718
 5469TIP3   OH237821   4.258   6.644   4.478  0.3134  0.0891  0.0674
 5469TIP3    H137822   4.255   6.568   4.535  0.4719 -0.3388 -0.4914
 5469TIP3    H237823   4.296   6.713   4.532  0.4359 -0.3065  0.4877
 5470TIP3   OH237824   0.895   2.105  15.721 -0.1644 -0.0667 -0.3280
 5470TIP3    H137825   0.800   2.102  15.734 -0.4119  1.5222 -1.5446
 5470TIP3    H237826   0.906   2.145  15.635  1.6381  0.4297  0.1103
 5471TIP3   OH237827   4.656   3.799   2.631  0.0863  1.0300  1.0248
 5471TIP3    H137828   4.670   3.831   2.542 -0.8701  0.1024  0.5338
 5471TIP3    H237829   4.726   3.735   2.644 -1.1845 -0.6042  0.0484
 5472TIP3   OH237830   1.655   0.591  12.435 -0.3058 -0.1021 -0.4727
 5472TIP3    H137831   1.649   0.660  12.369  0.3570  0.9394  0.5237
 5472TIP3    H237832   1.564   0.564  12.449 -0.6115  0.8295 -0.6133
 5473TIP3   OH237833   1.715   5.456  14.870 -0.4187 -0.0634  0.4798
 5473TIP3    H137834   1.730   5.528  14.931  1.2193  2.6297 -2.9139
 5473TIP3    H237835   1.637   5.482  14.822  1.4327  0.6325 -2.2657
 5474TIP3   OH237836   3.552   5.763  17.068 -0.0005  0.1738 -0.0076
 5474TIP3    H137837   3.554   5.859  17.061  0.1751  0.0131 -2.4454
 5474TIP3    H237838   3.480   5.746  17.129 -0.6449  1.8383 -0.2624
 5475TIP3   OH237839   5.354   6.595  15.366  0.8917 -0.5276  0.4101
 5475TIP3    H137840   5.338   6.522  15.306  1.5051  0.5675 -1.1262
 5475TIP3    H237841   5.449   6.604  15.369  0.8950 -1.0931  2.2052
 5476TIP3   OH237842   3.258   3.496   0.577  0.3556  0.6427 -0.3511
 5476TIP3    H137843   3.329   3.440   0.610  0.3812 -0.7715 -2.7012
 5476TIP3    H237844   3.301   3.579   0.556  0.8541  0.6049  0.4911
 5477TIP3   OH237845   4.064   0.032   3.111  0.0847 -0.0345 -0.1838
 5477TIP3    H137846   3.969   0.042   3.108  0.0137 -0.7475 -0.2891
 5477TIP3    H237847   4.089   0.069   3.196 -0.2165  0.7130 -0.4173
 5478TIP3   OH237848   4.874   4.749  14.241  0.2128 -0.1388  1.0076
 5478TIP3    H137849   4.915   4.691  14.305  0.8320  0.8599  1.5338
 5478TIP3    H237850   4.861   4.695  14.163  2.4420 -0.5120  0.8660
 5479TIP3   OH237851   3.953   3.331   5.270 -0.3239 -0.2123 -0.2773
 5479TIP3    H137852   3.860   3.350   5.276 -0.3270 -0.4021  0.2493
 5479TIP3    H237853   3.984   3.333   5.360  0.4169  1.0494 -0.5442
 5480TIP3   OH237854   0.802   5.497   4.637  0.2737 -0.6005 -0.0885
 5480TIP3    H137855   0.792   5.592   4.642  2.0236 -0.3043 -1.4840
 5480TIP3    H237856   0.722   5.467   4.594 -0.5048  0.1940  0.7895
 5481TIP3   OH237857   1.270   0.036  16.727 -0.3801 -0.4241 -0.4280
 5481TIP3    H137858   1.250   0.014  16.818  0.5465 -0.8399 -0.3228
 5481TIP3    H237859   1.249  -0.043  16.678  0.1719 -0.5667 -0.4315
 5482TIP3   OH237860   3.856   1.921  14.890  0.4419  0.3039 -0.0100
 5482TIP3    H137861   3.879   1.864  14.963  0.7952  0.0327 -0.3295
 5482TIP3    H237862   3.936   1.929  14.839  0.3636  0.9995 -0.0327
 5483TIP3   OH237863   2.118   4.116   1.737 -0.6048 -0.2008  0.1028
 5483TIP3    H137864   2.207   4.119   1.772  0.4730  1.6814 -2.6801
 5483TIP3    H237865   2.067   4.174   1.794  0.3599  0.2368  0.5225
 5484TIP3   OH237866   1.334   4.984  11.482 -0.2576  0.0581 -0.3129
 5484TIP3    H137867   1.413   4.976  11.428 -0.1557 -1.0513 -0.0049
 5484TIP3    H237868   1.365   4.971  11.572 -0.3344  2.4375  0.0913
 5485TIP3   OH237869   2.530   2.473  14.034  0.3537  0.3068  0.0127
 5485TIP3    H137870   2.564   2.537  13.972 -0.0255  0.3982 -0.1074
 5485TIP3    H237871   2.549   2.388  13.993 -0.4093  0.3776 -0.5183
 5486TIP3   OH237872   5.671   2.832  15.777  0.3649  0.3645  0.3542
 5486TIP3    H137873   5.661   2.925  15.794  1.2530  0.1897  1.9517
 5486TIP3    H237874   5.760   2.823  15.745 -0.0711  0.1943 -0.8282
 5487TIP3   OH237875   0.854   6.326  12.585  0.3472  0.0551 -0.1692
 5487TIP3    H137876   0.772   6.288  12.552  0.4549  0.8675 -1.4258
 5487TIP3    H237877   0.867   6.404  12.530  2.3714 -0.4938 -0.4800
 5488TIP3   OH237878   6.774   1.021   2.464 -1.0946  0.1778  0.2152
 5488TIP3    H137879   6.692   1.070   2.477 -0.0818  1.6535  1.1714
 5488TIP3    H237880   6.799   0.994   2.552 -1.5871 -2.0154 -0.2991
 5489TIP3   OH237881   4.396   6.616  11.251  0.2485  0.1470 -1.2929
 5489TIP3    H137882   4.334   6.544  11.240  0.1201  0.3550 -1.9372
 5489TIP3    H237883   4.390   6.666  11.169  1.3065  0.1253 -1.3958
 5490TIP3   OH237884   3.732   5.694  12.238  0.4973 -0.2768  0.2373
 5490TIP3    H137885   3.722   5.619  12.179 -0.5686  0.5233 -0.6344
 5490TIP3    H237886   3.731   5.657  12.326  1.9385 -1.4696 -0.2365
 5491TIP3   OH237887   2.238   1.079   4.835  0.0238  0.1490 -0.2949
 5491TIP3    H137888   2.247   1.058   4.742  1.4554  0.3450 -0.2125
 5491TIP3    H237889   2.193   1.004   4.872  0.6327 -0.5370 -0.9166
 5492TIP3   OH237890   6.352   6.185   4.259  0.3556 -1.0792  0.0983
 5492TIP3    H137891   6.370   6.216   4.348  0.9026  0.6854 -0.6024
 5492TIP3    H237892   6.264   6.219   4.239  1.1691  0.5245 -0.8645
 5493TIP3   OH237893   0.339   3.741   3.793 -0.2626 -0.1018 -0.3370
 5493TIP3    H137894   0.340   3.749   3.697  0.5209 -0.6461 -0.3804
 5493TIP3    H237895   0.266   3.682   3.811  0.3312 -0.9516 -0.6853
 5494TIP3   OH237896   1.826   1.821  16.599  0.5482 -0.1757 -0.0994
 5494TIP3    H137897   1.842   1.909  16.565  0.4044 -0.7772 -1.7562
 5494TIP3    H237898   1.853   1.763  16.528  0.5340 -1.4621  0.9525
 5495TIP3   OH237899   3.847   5.798   4.960 -0.2106  0.2280 -0.3354
 5495TIP3    H137900   3.859   5.797   5.055 -0.0760  2.1608 -0.3046
 5495TIP3    H237901   3.911   5.735   4.927  0.5736  0.4262  0.7747
 5496TIP3   OH237902   3.111   5.635  15.083 -0.2562  0.4187  0.0079
 5496TIP3    H137903   3.017   5.652  15.085 -0.4282 -0.4637 -0.3457
 5496TIP3    H237904   3.133   5.610  15.173 -0.8727 -1.9576 -0.4491
 5497TIP3   OH237905   0.888   1.558  11.721  0.0727 -0.7824  0.1816
 5497TIP3    H137906   0.980   1.535  11.707 -0.0181 -2.1913  1.6798
 5497TIP3    H237907   0.839   1.487  11.680 -0.2830 -1.2458  1.3661
 5498TIP3   OH237908   0.254   2.794   2.501 -0.1491 -0.0978 -0.3502
 5498TIP3    H137909   0.233   2.798   2.408 -1.1268  1.0388 -0.1004
 5498TIP3    H237910   0.326   2.731   2.507  0.5365  0.4992 -1.9817
 5499TIP3   OH237911   6.663   2.244  14.208  0.0136  0.0288 -0.3234
 5499TIP3    H137912   6.697   2.211  14.291  0.8788  2.1154  0.1644
 5499TIP3    H237913   6.614   2.322  14.231 -0.9332 -0.1530 -1.6285
 5500TIP3   OH237914   6.737   0.272  15.904 -0.2058 -0.0147  0.1517
 5500TIP3    H137915   6.677   0.310  15.840 -1.6768 -0.9143  0.9637
 5500TIP3    H237916   6.794   0.215  15.853 -1.3473 -0.7053 -0.3555
 5501TIP3   OH237917   4.179   6.088  12.619  0.2114  0.1059  0.8499
 5501TIP3    H137918   4.144   6.011  12.664  0.2155 -0.0941  0.5158
 5501TIP3    H237919   4.104   6.125  12.572 -0.0832  1.0626  2.0554
 5502TIP3   OH237920   2.956   2.256  16.972  0.6266  0.1502 -0.5642
 5502TIP3    H137921   3.019   2.258  17.044  1.0914  1.0484 -0.9810
 5502TIP3    H237922   2.994   2.314  16.906 -0.9684  1.2531 -0.5457
 5503TIP3   OH237923   4.603   4.574   1.663  0.4409  0.2277  0.1681
 5503TIP3    H137924   4.554   4.498   1.694  0.9082 -0.4009 -0.6163
 5503TIP3    H237925   4.688   4.567   1.708  0.8173 -0.2304 -0.5929
 5504TIP3   OH237926   4.582   1.434   0.833  0.3688 -0.2951  0.2789
 5504TIP3    H137927   4.548   1.361   0.885 -0.4800 -1.0785 -1.3192
 5504TIP3    H237928   4.676   1.420   0.829  0.3697 -0.5265  1.1555
 5505TIP3   OH237929   1.737   3.964  11.882 -0.3180 -0.3823  0.5861
 5505TIP3    H137930   1.724   3.941  11.790 -0.3154  0.1430  0.4557
 5505TIP3    H237931   1.819   3.921  11.906 -0.9538 -1.5620  0.6979
 5506TIP3   OH237932   0.251   0.666  14.471 -1.2394 -0.0704 -0.4345
 5506TIP3    H137933   0.164   0.679  14.508 -1.5289  2.1602 -1.8070
 5506TIP3    H237934   0.301   0.743  14.498  0.0809 -0.9500 -0.3068
 5507TIP3   OH237935   3.839   5.579   3.231  0.4344  0.2494  0.0367
 5507TIP3    H137936   3.924   5.560   3.271  0.4830  0.5197  0.0648
 5507TIP3    H237937   3.832   5.515   3.159  0.3789 -0.1841  0.4256
 5508TIP3   OH237938   3.931   5.553   5.158  0.2383 -0.5181 -0.1304
 5508TIP3    H137939   3.973   5.483   5.206 -1.2539 -2.2025 -1.1988
 5508TIP3    H237940   3.993   5.576   5.088  1.0697 -0.1998  0.7076
 5509TIP3   OH237941   6.028   2.663   2.518 -0.2476 -0.0585 -0.4581
 5509TIP3    H137942   6.014   2.572   2.491  2.8254 -0.2530 -1.5875
 5509TIP3    H237943   5.972   2.714   2.459  0.2499 -1.0559 -1.8354
 5510TIP3   OH237944   3.169   4.180   4.089 -0.2304  1.0072  0.3612
 5510TIP3    H137945   3.240   4.115   4.084 -1.0056  0.2597 -1.0893
 5510TIP3    H237946   3.092   4.130   4.115 -0.9783  1.2153 -1.4003
 5511TIP3   OH237947   0.069   0.165   2.015 -0.4142  0.9921  0.2739
 5511TIP3    H137948   0.065   0.213   2.098  0.7448  1.0469  0.3134
 5511TIP3    H237949   0.096   0.231   1.951 -2.3948  1.2053 -0.3751
 5512TIP3   OH237950   0.241   5.310  13.038 -0.2230  0.1826 -0.4338
 5512TIP3    H137951   0.324   5.346  13.008  0.2385 -0.7765 -0.3269
 5512TIP3    H237952   0.199   5.382  13.085 -0.1924  1.1661 -1.8927
 5513TIP3   OH237953   2.585   2.149  11.572  0.5153  0.3684  0.0294
 5513TIP3    H137954   2.582   2.172  11.479  0.3360  0.6903  0.1132
 5513TIP3    H237955   2.499   2.111  11.590  0.3299  0.8693  0.2057
 5514TIP3   OH237956   3.270   5.211  13.524 -0.4509 -0.3454 -0.2361
 5514TIP3    H137957   3.221   5.263  13.459  1.3276  0.0125 -1.3132
 5514TIP3    H237958   3.334   5.272  13.560 -0.3228 -1.0095  0.6687
 5515TIP3   OH237959   6.079   3.420   3.887 -0.4828  0.0155 -0.3484
 5515TIP3    H137960   6.043   3.482   3.950 -1.0769 -0.2112 -0.4542
 5515TIP3    H237961   6.030   3.339   3.903 -0.3315 -0.1701 -0.8026
 5516TIP3   OH237962   4.332   1.022  14.630 -0.4432  0.7708  0.3192
 5516TIP3    H137963   4.401   1.064  14.579  0.0815 -0.9648 -0.4423
 5516TIP3    H237964   4.251   1.055  14.592 -0.0520 -0.0634 -1.3072
 5517TIP3   OH237965   6.117   1.756   4.173  0.3818 -0.2412 -0.3544
 5517TIP3    H137966   6.049   1.820   4.197 -0.2021 -0.9253 -0.1853
 5517TIP3    H237967   6.154   1.727   4.256  0.9234  0.1723 -0.4496
 5518TIP3   OH237968   4.140   6.369  15.211 -0.0249 -0.3175 -0.1415
 5518TIP3    H137969   4.133   6.322  15.127 -0.1151  0.8012 -0.7746
 5518TIP3    H237970   4.110   6.457  15.191  0.5074  0.1140  0.9451
 5519TIP3   OH237971   5.183   3.282  15.524  0.0089  0.0105  0.4580
 5519TIP3    H137972   5.170   3.374  15.500 -0.1810 -0.3686 -0.8729
 5519TIP3    H237973   5.262   3.256  15.478  0.0734 -0.5033  0.8506
 5520TIP3   OH237974   5.400   4.107  14.596  0.1480 -0.2935  0.8534
 5520TIP3    H137975   5.304   4.100  14.594  0.1433  0.0669 -0.8664
 5520TIP3    H237976   5.416   4.187  14.645 -0.4376 -0.2971  1.0641
 5521TIP3   OH237977   6.769   5.994  13.060 -0.4324  0.7590  0.3888
 5521TIP3    H137978   6.851   6.038  13.037 -0.2391  0.6905  0.9315
 5521TIP3    H237979   6.702   6.039  13.010  0.2072 -0.5534 -1.6881
 5522TIP3   OH237980   4.052   5.491   1.739 -0.3574 -0.4472  0.0330
 5522TIP3    H137981   4.142   5.471   1.761 -0.2988 -0.1989  0.0210
 5522TIP3    H237982   4.054   5.583   1.711 -0.3862 -0.8316 -1.2370
 5523TIP3   OH237983   2.821   4.956  11.347  0.2956  0.4232 -0.1551
 5523TIP3    H137984   2.747   4.936  11.405 -2.5752  4.0466 -2.4133
 5523TIP3    H237985   2.863   5.032  11.387 -0.2120  1.4172 -1.4880
 5524TIP3   OH237986   1.126   5.392  16.369 -0.0270  0.1059 -0.3158
 5524TIP3    H137987   1.079   5.473  16.387  0.1997  0.0904  0.3434
 5524TIP3    H237988   1.109   5.375  16.276 -2.0137 -0.3353  0.0986
 5525TIP3   OH237989   1.449   4.866  17.003 -0.4483  0.0373 -0.2158
 5525TIP3    H137990   1.383   4.936  17.004 -0.6500 -0.1144 -2.4827
 5525TIP3    H237991   1.398   4.785  17.014 -0.3160  0.1480  1.3075
 5526TIP3   OH237992   2.388   4.591  14.571 -0.0709  0.1408 -0.1570
 5526TIP3    H137993   2.395   4.496  14.578  3.2333  0.5015  2.4414
 5526TIP3    H237994   2.311   4.614  14.625  0.6249 -0.8588  1.2850
 5527TIP3   OH237995   6.220   4.066   1.062 -0.2003  0.1658  0.0564
 5527TIP3    H137996   6.303   4.060   1.014 -1.3045  2.5197 -2.2905
 5527TIP3    H237997   6.246   4.063   1.154  2.6100  1.6833 -0.6109
 5528TIP3   OH237998   1.963   0.212   1.569  0.1346 -0.0380 -0.1937
 5528TIP3    H137999   2.008   0.156   1.633 -0.2209 -2.3012 -1.8336
 5528TIP3    H238000   2.034   0.261   1.527  0.5005  0.4649  0.9987
 5529TIP3   OH238001   3.954   5.965   1.176  0.4207 -0.4288  0.2379
 5529TIP3    H138002   4.030   6.008   1.136  2.2983 -2.7720  1.1888
 5529TIP3    H238003   3.932   6.021   1.251  1.3288  0.1462  0.0857
 5530TIP3   OH238004   0.142   1.377  11.168  0.4244 -0.3834  0.1227
 5530TIP3    H138005   0.204   1.445  11.141 -0.0030  0.2964  0.8394
 5530TIP3    H238006   0.065   1.393  11.114  1.6593 -2.6303 -2.4031
 5531TIP3   OH238007   2.655   3.159   0.863 -0.6141  0.0818 -0.3672
 5531TIP3    H138008   2.587   3.183   0.800  1.8246 -0.6016 -3.3909
 5531TIP3    H238009   2.645   3.065   0.873  1.4510 -0.4601 -2.8609
 5532TIP3   OH238010   5.858   2.329  15.681 -0.0194 -0.4404  0.9608
 5532TIP3    H138011   5.929   2.291  15.735  0.5296 -1.8709 -0.7216
 5532TIP3    H238012   5.794   2.259  15.674  0.7097 -0.8976 -1.6634
 5533TIP3   OH238013   0.968   0.397   1.238 -0.3732  0.2443 -0.6954
 5533TIP3    H138014   0.932   0.456   1.305 -1.0729  0.5717 -1.3494
 5533TIP3    H238015   1.058   0.427   1.226 -0.6349  1.0049 -0.8090
 5534TIP3   OH238016   4.480   0.986   5.816  0.0042  0.6041 -0.9135
 5534TIP3    H138017   4.548   0.956   5.876 -2.1076 -0.7393  0.8967
 5534TIP3    H238018   4.526   1.040   5.752  2.8018 -0.5419  0.0658
 5535TIP3   OH238019   3.439   6.139  14.178  0.2696 -0.0014  0.1610
 5535TIP3    H138020   3.505   6.098  14.122  1.0975  2.1709 -0.5293
 5535TIP3    H238021   3.385   6.190  14.117  0.3510  1.3242  1.1870
 5536TIP3   OH238022   2.671   1.500   5.953  0.4738 -0.7867 -0.3316
 5536TIP3    H138023   2.582   1.529   5.933  1.5862  3.7054  0.6628
 5536TIP3    H238024   2.715   1.496   5.868 -0.4060 -2.0634 -0.7299
 5537TIP3   OH238025   4.556   0.951   0.937  0.1853 -0.2864 -0.2661
 5537TIP3    H138026   4.534   0.903   1.017 -0.3401  2.2363  1.1706
 5537TIP3    H238027   4.652   0.953   0.936  0.2005  1.1989  1.3147
 5538TIP3   OH238028   6.719   3.921   4.606 -0.1553  0.0821 -0.3925
 5538TIP3    H138029   6.810   3.912   4.636  0.0943  1.3688 -0.7357
 5538TIP3    H238030   6.682   3.834   4.617  0.8065 -0.1979  0.8013
 5539TIP3   OH238031   0.280   0.641   5.091 -0.2382 -0.4305  0.5621
 5539TIP3    H138032   0.317   0.560   5.054  1.0728 -0.6400  2.2911
 5539TIP3    H238033   0.191   0.617   5.116  0.8590 -1.9983  3.1138
 5540TIP3   OH238034   3.005   6.250  15.913 -0.4973  0.5154  0.1179
 5540TIP3    H138035   3.041   6.164  15.892 -2.1721 -0.4255  1.0455
 5540TIP3    H238036   3.061   6.311  15.865  0.5591 -1.0895 -0.7505
 5541TIP3   OH238037   0.677   3.192   5.817  0.1222 -0.3489  0.1080
 5541TIP3    H138038   0.743   3.125   5.838  0.3511 -0.3673 -0.6630
 5541TIP3    H238039   0.691   3.211   5.724  0.6085  1.3803  0.5176
 5542TIP3   OH238040   3.480   0.795  14.528  0.0701 -0.1224 -0.2304
 5542TIP3    H138041   3.541   0.791  14.454  0.6710  1.5598  0.1538
 5542TIP3    H238042   3.471   0.704  14.557  2.2338 -0.4191 -0.4166
 5543TIP3   OH238043   1.320   6.611  13.539  0.2010 -0.2214 -0.3482
 5543TIP3    H138044   1.285   6.563  13.464  3.4380 -0.6987 -1.6437
 5543TIP3    H238045   1.312   6.550  13.613 -1.7680 -0.2527 -0.5703
 5544TIP3   OH238046   2.978   4.277  12.484  0.1161 -0.1358  0.0420
 5544TIP3    H138047   3.018   4.298  12.569 -0.1704  0.0939  0.1204
 5544TIP3    H238048   2.923   4.353  12.464 -0.0493 -0.3229 -0.2072
 5545TIP3   OH238049   5.678   5.940  13.859  0.1498  0.1868 -0.0367
 5545TIP3    H138050   5.594   5.944  13.906 -0.1118  2.7622 -0.6704
 5545TIP3    H238051   5.723   5.864  13.897 -1.8555 -0.3652  1.3213
 5546TIP3   OH238052   2.893   4.600  13.179 -0.0103 -0.1474 -0.0740
 5546TIP3    H138053   2.964   4.605  13.242  0.9636 -1.4180 -1.0307
 5546TIP3    H238054   2.934   4.566  13.099 -1.2751  1.0731 -1.2846
 5547TIP3   OH238055   0.916   2.829  11.095 -0.3050  0.4201  0.0664
 5547TIP3    H138056   0.962   2.835  11.011  0.6691 -0.2524  0.5435
 5547TIP3    H238057   0.830   2.794  11.073  0.5095 -1.2837 -0.4613
 5548TIP3   OH238058   3.505   4.719   2.690 -0.5254  0.3589 -0.1558
 5548TIP3    H138059   3.487   4.725   2.596 -2.0553  1.8569  0.2237
 5548TIP3    H238060   3.598   4.695   2.695  0.0119  1.9708 -2.0176
 5549TIP3   OH238061   1.671   1.604  11.796 -0.0144  0.2202  0.9357
 5549TIP3    H138062   1.604   1.632  11.734 -1.5368 -0.4789  2.2266
 5549TIP3    H238063   1.676   1.510  11.784 -2.0515 -0.2615  3.5044
 5550TIP3   OH238064   6.590   0.289  11.885  0.4326 -0.0018 -0.5370
 5550TIP3    H138065   6.522   0.337  11.837 -1.2803 -0.5805  1.2198
 5550TIP3    H238066   6.616   0.348  11.955  0.3002 -0.5588 -0.0144
 5551TIP3   OH238067   2.253   3.673   4.728 -0.4167  0.3979 -0.0468
 5551TIP3    H138068   2.327   3.628   4.687  0.4926  0.1378  1.8092
 5551TIP3    H238069   2.249   3.758   4.685 -0.4618 -0.4152 -1.7175
 5552TIP3   OH238070   6.529   6.639  13.066  0.0703 -0.7868 -0.2094
 5552TIP3    H138071   6.511   6.702  13.136 -2.6760 -1.1382 -0.5318
 5552TIP3    H238072   6.542   6.693  12.988  1.9095 -0.4508  0.3145
 5553TIP3   OH238073   6.690   4.334  10.906 -0.1628  0.2551 -0.3175
 5553TIP3    H138074   6.604   4.352  10.866 -1.1697 -1.0343  1.2145
 5553TIP3    H238075   6.706   4.409  10.963 -0.3773  0.4043 -0.4522
 5554TIP3   OH238076   0.791   2.530   4.811 -0.3511  0.3362 -0.0628
 5554TIP3    H138077   0.795   2.600   4.876  0.0031  1.3245 -1.1162
 5554TIP3    H238078   0.815   2.451   4.858 -0.6761  0.9409  1.1308
 5555TIP3   OH238079   5.448   2.369  10.739  0.5274 -0.0089 -0.1089
 5555TIP3    H138080   5.434   2.295  10.798 -1.2729 -0.2992 -0.8797
 5555TIP3    H238081   5.541   2.389  10.748  1.1720 -2.7376 -0.3448
 5556TIP3   OH238082   3.736   5.672  14.246 -0.7793 -0.3159  0.0096
 5556TIP3    H138083   3.671   5.628  14.300 -0.6791  1.5590  1.7323
 5556TIP3    H238084   3.807   5.608  14.237 -1.6501 -1.3554  0.4404
 5557TIP3   OH238085   5.509   0.477   0.962  0.2748  0.5592  0.2184
 5557TIP3    H138086   5.435   0.416   0.967  1.4573 -1.1046 -1.6626
 5557TIP3    H238087   5.481   0.544   0.900 -0.1530  0.6754  0.5336
 5558TIP3   OH238088   2.047   2.838   1.671 -0.1291 -0.0709 -0.2631
 5558TIP3    H138089   2.087   2.916   1.632  0.1410  0.6961  1.5033
 5558TIP3    H238090   1.954   2.844   1.647  0.2033 -0.1203 -1.5840
 5559TIP3   OH238091   4.067   1.608   2.252  0.0942  0.5215 -0.1004
 5559TIP3    H138092   4.004   1.559   2.200 -0.5437  0.7729  0.4285
 5559TIP3    H238093   4.040   1.700   2.242 -0.4825  0.5077  1.2662
 5560TIP3   OH238094   5.612   1.598   2.160 -0.2580  0.6991  0.1038
 5560TIP3    H138095   5.540   1.535   2.154  0.5383 -0.1129 -1.2463
 5560TIP3    H238096   5.601   1.656   2.085  0.4163  0.6498 -0.0397
 5561TIP3   OH238097   6.393   0.796   5.547 -0.6865  0.0050  0.6424
 5561TIP3    H138098   6.299   0.795   5.568 -0.8976 -1.5402 -0.2401
 5561TIP3    H238099   6.405   0.718   5.492  1.6959 -1.5865  3.2875
 5562TIP3   OH238100   0.889   0.316  13.730 -0.5045 -0.3972 -0.4527
 5562TIP3    H138101   0.902   0.324  13.824 -1.3311 -0.0410 -0.3675
 5562TIP3    H238102   0.827   0.386  13.708 -0.2253 -0.3960 -1.2793
 5563TIP3   OH238103   3.537   5.329  17.089  0.0790  0.3750  0.1081
 5563TIP3    H138104   3.595   5.269  17.042 -1.1242 -0.6322 -0.1573
 5563TIP3    H238105   3.459   5.276  17.108 -0.1243  1.2349  1.8147
 5564TIP3   OH238106   2.087   1.933  15.277 -0.6640 -0.3290  0.0100
 5564TIP3    H138107   2.104   1.905  15.188 -1.4842 -2.0660  0.3775
 5564TIP3    H238108   2.172   1.924  15.322 -0.2833  0.4276 -0.5618
 5565TIP3   OH238109   0.017   2.872  11.976  0.1171 -0.0167  0.0417
 5565TIP3    H138110  -0.009   2.962  11.997  0.6944 -0.4091  2.6202
 5565TIP3    H238111   0.072   2.881  11.899  0.5052  1.9059  0.5007
 5566TIP3   OH238112   4.187   3.895   6.680  0.0080  0.0304 -0.2072
 5566TIP3    H138113   4.104   3.860   6.646 -0.1898  0.7177 -0.4415
 5566TIP3    H238114   4.163   3.935   6.763  0.1142  0.1953 -0.2577
 5567TIP3   OH238115   0.166   4.181   0.504  0.8701 -0.1910 -0.4372
 5567TIP3    H138116   0.155   4.264   0.458 -1.6285  0.4188  1.1683
 5567TIP3    H238117   0.211   4.205   0.585  1.1157 -0.5704 -0.4587
 5568TIP3   OH238118   3.626   6.250   1.831  0.2224 -0.2176  0.3096
 5568TIP3    H138119   3.615   6.312   1.758 -0.7614 -2.0665 -1.1606
 5568TIP3    H238120   3.599   6.299   1.908 -3.0192  0.4542 -1.1588
 5569TIP3   OH238121   1.863   3.418  16.782  0.1330 -0.5733 -0.2834
 5569TIP3    H138122   1.915   3.395  16.705 -0.0760 -0.3904 -0.4781
 5569TIP3    H238123   1.827   3.504  16.762  0.5631 -0.2579  0.2669
 5570TIP3   OH238124   2.608   0.436  14.948  0.0170 -0.7282 -0.4182
 5570TIP3    H138125   2.518   0.423  14.918  0.3603 -2.5584 -0.7318
 5570TIP3    H238126   2.600   0.456  15.041 -0.8399  1.2782 -0.9091
 5571TIP3   OH238127   6.327   4.764   2.737 -0.6115  0.6318 -0.6237
 5571TIP3    H138128   6.285   4.816   2.668 -1.5955  1.1394  0.3419
 5571TIP3    H238129   6.259   4.752   2.803  1.0428  2.3939  1.4884
 5572TIP3   OH238130   3.142   0.913  17.028 -0.1968 -0.9160 -0.0790
 5572TIP3    H138131   3.153   0.871  17.113 -0.4436 -2.8485 -0.9775
 5572TIP3    H238132   3.228   0.910  16.988  0.0040  0.3319  0.2323
 5573TIP3   OH238133   3.452   1.243  14.807  0.0255 -0.1372  0.4838
 5573TIP3    H138134   3.419   1.153  14.797  1.5289 -0.7480  0.8564
 5573TIP3    H238135   3.499   1.259  14.725  1.4252 -0.4265  1.2130
 5574TIP3   OH238136   3.108   3.066  16.847 -0.4430  0.1084  0.5568
 5574TIP3    H138137   3.057   3.100  16.773  2.1235 -0.3179 -1.4999
 5574TIP3    H238138   3.176   3.133  16.862  1.0537 -1.3237  0.3274
 5575TIP3   OH238139   4.653   6.276   1.049  0.0267  0.1884  0.7407
 5575TIP3    H138140   4.608   6.359   1.063 -0.4302 -0.5413  3.9996
 5575TIP3    H238141   4.585   6.216   1.018  0.3296  0.9473 -1.4781
 5576TIP3   OH238142   6.031   5.376  11.873  0.4632 -0.0146 -0.0563
 5576TIP3    H138143   6.087   5.311  11.915  1.6173  1.2359  0.3976
 5576TIP3    H238144   5.960   5.390  11.936  1.1706  0.4631  0.6480
 5577TIP3   OH238145   2.227   3.571  12.334 -0.6514  0.0247 -0.4059
 5577TIP3    H138146   2.215   3.615  12.250  2.1648  1.2752 -0.2004
 5577TIP3    H238147   2.296   3.507  12.318  0.8104  1.1600  1.2524
 5578TIP3   OH238148   6.726   5.851   6.455  0.2058  0.0452  0.3354
 5578TIP3    H138149   6.653   5.895   6.499 -0.3651 -1.0923  0.5684
 5578TIP3    H238150   6.697   5.760   6.448  1.5096 -0.3648  0.1962
 5579TIP3   OH238151   6.214   5.482   1.455  0.1187 -0.0529 -0.2888
 5579TIP3    H138152   6.270   5.559   1.469  0.8202 -0.6879  0.4728
 5579TIP3    H238153   6.141   5.494   1.516  0.6442 -0.3704  0.4244
 5580TIP3   OH238154   4.856   4.638  10.450 -0.1455 -0.3340  0.7770
 5580TIP3    H138155   4.913   4.689  10.507 -0.1173  1.5321 -0.8630
 5580TIP3    H238156   4.862   4.548  10.484  2.8331  0.0228  1.3469
 5581TIP3   OH238157   3.421   1.094   2.892  0.0058  0.9396 -1.0680
 5581TIP3    H138158   3.356   1.025   2.900  0.1678  0.9490  0.6007
 5581TIP3    H238159   3.377   1.162   2.840 -0.9933  0.5665 -0.7322
 5582TIP3   OH238160   2.353   0.834  14.535  0.1874 -0.2650  0.3412
 5582TIP3    H138161   2.322   0.827  14.445 -0.6047  0.0053  0.5868
 5582TIP3    H238162   2.336   0.925  14.559  1.1087 -0.1341  0.5078
 5583TIP3   OH238163   0.892   1.443   1.912 -0.2063 -1.2306 -0.3792
 5583TIP3    H138164   0.939   1.470   1.834  0.2975 -1.9736 -0.3415
 5583TIP3    H238165   0.923   1.502   1.981  0.5213 -1.5717 -0.4042
 5584TIP3   OH238166   2.129   0.231  10.832 -0.0311 -0.3351  0.4674
 5584TIP3    H138167   2.040   0.266  10.822  0.1559  0.3570  1.1418
 5584TIP3    H238168   2.177   0.265  10.757  0.1172  0.7591  1.0540
 5585TIP3   OH238169   6.323   1.797   1.957  0.3995  0.0439  0.6021
 5585TIP3    H138170   6.282   1.848   2.027 -0.3717 -0.7570  0.7408
 5585TIP3    H238171   6.416   1.821   1.961  0.2195  0.6230  1.3553
 5586TIP3   OH238172   0.447   6.502   1.125 -0.5207 -0.3101  0.2586
 5586TIP3    H138173   0.468   6.508   1.031  0.2394  2.3121  0.5477
 5586TIP3    H238174   0.443   6.408   1.143 -0.5596 -0.8540 -2.3756
 5587TIP3   OH238175   2.587   5.293   6.036  0.3448  0.1120  0.3143
 5587TIP3    H138176   2.603   5.261   5.948  0.1919 -0.4263  0.4832
 5587TIP3    H238177   2.667   5.340   6.059  0.1142  0.8496 -0.3747
 5588TIP3   OH238178   2.180   1.084   4.295 -0.1143  0.0244 -0.3453
 5588TIP3    H138179   2.263   1.056   4.334  0.2471 -0.3166 -1.3508
 5588TIP3    H238180   2.195   1.082   4.201 -1.3347 -0.2487 -0.5512
 5589TIP3   OH238181   2.459   0.546   4.883  0.0382 -0.1520 -0.3266
 5589TIP3    H138182   2.474   0.641   4.879  1.1062 -0.3849 -2.3292
 5589TIP3    H238183   2.538   0.511   4.923 -0.0139 -0.2693 -0.3260
 5590TIP3   OH238184   4.273   2.434  15.748  0.1339 -0.0622 -0.1558
 5590TIP3    H138185   4.344   2.488  15.782  0.2226  0.2011 -0.7531
 5590TIP3    H238186   4.270   2.454  15.655 -0.9173  0.1529 -0.0790
 5591TIP3   OH238187   3.461   4.360  13.829  0.1969  0.0848 -0.1163
 5591TIP3    H138188   3.535   4.406  13.790  0.6851 -0.8497 -0.2893
 5591TIP3    H238189   3.430   4.300  13.761  0.7998 -1.2559  0.7712
 5592TIP3   OH238190   0.933   1.945  10.976 -0.3410 -0.3246  0.9258
 5592TIP3    H138191   0.961   1.914  10.890 -2.2336  0.4502  0.0210
 5592TIP3    H238192   0.944   2.040  10.973 -3.0278  0.0069  0.5440
 5593TIP3   OH238193   6.428   3.547   4.162  0.1368 -0.0015 -0.5612
 5593TIP3    H138194   6.347   3.596   4.151 -0.5340 -0.8063  0.6842
 5593TIP3    H238195   6.472   3.554   4.077 -0.1059  2.4236 -0.5160
 5594TIP3   OH238196   5.452   3.980  13.765  0.2996 -0.4641 -0.2943
 5594TIP3    H138197   5.389   4.035  13.718  1.1328 -0.2424 -1.1612
 5594TIP3    H238198   5.489   4.038  13.832  1.3146  0.0953 -1.3298
 5595TIP3   OH238199   3.852   1.251   2.304  1.0395  0.0226  0.1594
 5595TIP3    H138200   3.801   1.175   2.334 -0.1027  0.8109  0.2486
 5595TIP3    H238201   3.937   1.240   2.345  0.4593 -0.5072  1.2527
 5596TIP3   OH238202   3.485   2.341  15.440  0.7026  0.0701  0.3300
 5596TIP3    H138203   3.509   2.423  15.398  2.3203 -0.5125  0.0656
 5596TIP3    H238204   3.491   2.276  15.371 -1.0508 -0.2129  0.4183
 5597TIP3   OH238205   2.867   1.184  14.724 -0.0528  0.2785 -0.3359
 5597TIP3    H138206   2.839   1.274  14.736 -0.7993  0.1141 -0.8287
 5597TIP3    H238207   2.945   1.190  14.668  2.2545  0.8961  2.8055
 5598TIP3   OH238208   1.493   0.871   3.984 -0.1517 -0.5584  0.3830
 5598TIP3    H138209   1.506   0.940   4.049  0.0847 -0.1116 -0.1277
 5598TIP3    H238210   1.582   0.838   3.968 -0.1546 -0.3593 -0.0415
 5599TIP3   OH238211   4.331   0.521   2.036  0.2641  0.1735 -0.2711
 5599TIP3    H138212   4.426   0.516   2.041  0.1947  0.7458  1.8642
 5599TIP3    H238213   4.311   0.504   1.943  2.3022 -1.8397 -0.3746
 5600TIP3   OH238214   3.675   6.606   2.648  0.1943 -0.8091  0.3517
 5600TIP3    H138215   3.706   6.545   2.581  0.4138  0.1256 -0.4067
 5600TIP3    H238216   3.601   6.651   2.607 -2.9661 -3.7528  2.4835
 5601TIP3   OH238217   0.550   4.551  12.233 -0.5256  0.6102 -0.4351
 5601TIP3    H138218   0.628   4.597  12.266 -0.1866 -1.4438  1.7895
 5601TIP3    H238219   0.585   4.476  12.186 -1.1231  1.8151 -2.9184
 5602TIP3   OH238220   1.522   4.877   4.829 -0.4949  0.4060 -0.6570
 5602TIP3    H138221   1.544   4.950   4.887 -0.0143  0.5582 -1.0262
 5602TIP3    H238222   1.607   4.838   4.807 -0.7970 -0.7344  0.1419
 5603TIP3   OH238223   3.947   4.725   4.109 -0.3550 -0.5666  0.1793
 5603TIP3    H138224   3.962   4.635   4.080  0.3037  0.0602 -1.4978
 5603TIP3    H238225   4.032   4.768   4.098 -0.7939  0.3997  0.4889
 5604TIP3   OH238226   1.936   3.010  14.862  0.1093  0.6276  0.3881
 5604TIP3    H138227   1.994   3.024  14.788 -0.7951 -0.1923 -0.4990
 5604TIP3    H238228   1.969   2.930  14.903 -1.6025 -1.0370 -1.3572
 5605TIP3   OH238229   2.311   0.635   5.678  0.1600 -0.9845  0.1328
 5605TIP3    H138230   2.229   0.631   5.629 -0.3178  0.4315  0.8115
 5605TIP3    H238231   2.338   0.726   5.674  0.8963 -1.1371  1.2412
 5606TIP3   OH238232   0.954   5.514   5.018 -0.5314  0.6098  0.1085
 5606TIP3    H138233   0.987   5.604   5.021  0.0285  0.3863  1.1102
 5606TIP3    H238234   0.955   5.486   5.110  0.0627 -0.6853 -0.2862
 5607TIP3   OH238235   2.413   5.623   2.050 -0.0342  0.5968  0.0965
 5607TIP3    H138236   2.348   5.668   1.996  0.3113  1.6154  0.5075
 5607TIP3    H238237   2.392   5.648   2.140 -1.3978 -2.1427  0.5829
 5608TIP3   OH238238   3.292   0.953  12.010  0.1786 -0.0808  0.3322
 5608TIP3    H138239   3.225   0.885  12.007  1.1944 -1.2223  2.1979
 5608TIP3    H238240   3.335   0.940  12.095  0.1250  3.1569  0.9158
 5609TIP3   OH238241   2.976   0.068   5.186 -0.0874  0.2692 -0.0917
 5609TIP3    H138242   3.006  -0.015   5.148 -0.1329  0.3570 -0.3193
 5609TIP3    H238243   2.969   0.049   5.280 -0.6782 -0.1599 -0.2212
 5610TIP3   OH238244   3.073   5.044  14.323 -0.1518  0.0540 -0.2967
 5610TIP3    H138245   2.997   5.078  14.370  0.8173  1.5143  0.2334
 5610TIP3    H238246   3.094   4.961  14.368 -1.6157 -0.5251 -0.6624
 5611TIP3   OH238247   4.243   2.409   4.436 -0.0127 -0.0394  0.1693
 5611TIP3    H138248   4.229   2.396   4.530 -0.9514 -0.4360 -0.0214
 5611TIP3    H238249   4.213   2.498   4.420  0.4916  0.1577  0.3108
 5612TIP3   OH238250   4.454   0.929  16.104  0.2163  0.1712 -0.0521
 5612TIP3    H138251   4.360   0.949  16.108 -0.3849 -2.5645  1.3053
 5612TIP3    H238252   4.467   0.892  16.017 -0.2242 -0.4639  0.1425
 5613TIP3   OH238253   5.949   2.572  16.781  0.1324  0.5607  0.1705
 5613TIP3    H138254   5.877   2.624  16.746 -1.1611 -2.0878 -1.2132
 5613TIP3    H238255   5.980   2.520  16.707  2.5011  0.5563  1.1121
 5614TIP3   OH238256   0.693   1.317  15.281 -0.2149 -0.2288  0.0220
 5614TIP3    H138257   0.645   1.259  15.339 -0.1549  1.8397  2.2248
 5614TIP3    H238258   0.626   1.360  15.228 -0.4091 -0.8003 -0.1954
 5615TIP3   OH238259   0.038   0.889  14.758 -0.3506  0.4271  0.3674
 5615TIP3    H138260  -0.023   0.962  14.749 -2.1654 -1.1432 -0.7348
 5615TIP3    H238261   0.018   0.833  14.682  3.5116  0.5857 -0.8640
 5616TIP3   OH238262   2.739   1.908   3.024  0.3416 -0.0721 -0.1345
 5616TIP3    H138263   2.736   1.997   2.988  1.5764  0.1882  0.3547
 5616TIP3    H238264   2.662   1.902   3.080  0.9159  1.1452  0.8272
 5617TIP3   OH238265   5.343   0.543   5.852 -0.4493 -0.6069 -0.1942
 5617TIP3    H138266   5.423   0.571   5.897 -1.6232  1.4004  0.7255
 5617TIP3    H238267   5.284   0.515   5.922 -0.9521 -1.0214 -0.7801
 5618TIP3   OH238268   4.186   0.102   1.037  0.1572 -0.1835  0.3954
 5618TIP3    H138269   4.205   0.041   0.966 -0.6200 -0.7978  0.7097
 5618TIP3    H238270   4.231   0.066   1.113 -1.2051 -0.9670  0.8423
 5619TIP3   OH238271   2.470   1.851  13.584  0.4225  0.0449 -0.4666
 5619TIP3    H138272   2.455   1.826  13.494  0.6368  0.5099 -0.6349
 5619TIP3    H238273   2.500   1.771  13.627 -0.8613 -0.4613 -0.5166
 5620TIP3   OH238274   0.300   5.722  15.788  0.0125 -0.2583 -0.1134
 5620TIP3    H138275   0.223   5.693  15.738  1.0837  0.8959 -2.5404
 5620TIP3    H238276   0.360   5.648  15.786 -0.5063 -0.7126  0.7076
 5621TIP3   OH238277   4.246   0.222   0.384 -0.1033 -0.2600  0.1418
 5621TIP3    H138278   4.279   0.267   0.306  4.0630  1.4289  2.7176
 5621TIP3    H238279   4.186   0.285   0.424  0.5498  0.2975  0.2359
 5622TIP3   OH238280   0.355   3.869  10.920 -0.3197 -0.1367  0.2579
 5622TIP3    H138281   0.308   3.785  10.916  0.4069 -0.5142 -0.4703
 5622TIP3    H238282   0.400   3.876  10.836 -1.0196  1.3830 -0.0112
 5623TIP3   OH238283   4.849   6.335  14.999 -0.0694  0.5733 -0.1923
 5623TIP3    H138284   4.784   6.265  14.989  0.4624  0.1728 -0.9585
 5623TIP3    H238285   4.903   6.307  15.073  0.4896 -0.1211 -0.8480
 5624TIP3   OH238286   0.473   4.888   5.706 -0.2359  0.0111  0.6090
 5624TIP3    H138287   0.454   4.907   5.798  0.2302  1.0115  0.5021
 5624TIP3    H238288   0.397   4.922   5.658  0.2377  0.9060  0.4877
 5625TIP3   OH238289   1.969   2.532   2.185  0.5085  0.6237  0.0018
 5625TIP3    H138290   1.957   2.622   2.215  1.7024  0.2435  1.6607
 5625TIP3    H238291   1.923   2.478   2.250 -1.3703  0.0935 -1.7102
 5626TIP3   OH238292   3.075   1.154   5.156  0.1115 -0.2940  0.0736
 5626TIP3    H138293   3.084   1.059   5.144  3.6623 -0.7101  4.6232
 5626TIP3    H238294   3.134   1.191   5.091  2.6900 -1.5160  1.6261
 5627TIP3   OH238295   3.755   0.396   4.890 -0.4979  0.5968 -0.1247
 5627TIP3    H138296   3.690   0.329   4.867  0.4925 -0.3947 -0.1033
 5627TIP3    H238297   3.796   0.418   4.806  0.0399  0.2566  0.0483
 5628TIP3   OH238298   4.142   6.244   3.918  0.2094 -0.0482 -0.3702
 5628TIP3    H138299   4.065   6.286   3.957 -1.1068 -2.1841 -0.5938
 5628TIP3    H238300   4.134   6.261   3.825 -0.0012 -0.2782 -0.3945
 5629TIP3   OH238301   1.991   5.913  14.899 -0.3891 -0.1347 -0.0555
 5629TIP3    H138302   1.940   5.857  14.958 -1.1385 -0.2939 -0.8381
 5629TIP3    H238303   2.061   5.948  14.954 -0.9060 -0.5086  0.8612
 5630TIP3   OH238304   5.845   5.387   2.382 -0.2890  0.2610  0.1624
 5630TIP3    H138305   5.823   5.309   2.433  0.4830  0.3050  0.5699
 5630TIP3    H238306   5.768   5.444   2.391 -0.3467  0.0734  0.8896
 5631TIP3   OH238307   5.421   6.137  13.939 -0.2259 -0.4204  0.3117
 5631TIP3    H138308   5.326   6.132  13.935 -0.4094  0.6245  2.9932
 5631TIP3    H238309   5.442   6.135  14.032  2.4798 -2.2724 -0.2856
 5632TIP3   OH238310   5.631   0.133  16.963 -0.2423 -0.1350  0.0379
 5632TIP3    H138311   5.622   0.039  16.950  1.2052 -0.2747 -0.0667
 5632TIP3    H238312   5.725   0.150  16.954 -0.7294  1.6550 -2.2431
 5633TIP3   OH238313   4.403   1.084  10.710  0.8661  0.0739 -0.6047
 5633TIP3    H138314   4.445   1.004  10.741  1.5951  1.5866  2.4728
 5633TIP3    H238315   4.313   1.058  10.691  1.2506 -1.6011 -0.1776
 5634TIP3   OH238316   4.360   6.591  15.583  0.3050 -0.6846 -0.0582
 5634TIP3    H138317   4.363   6.677  15.626 -1.5277  0.8370 -2.7966
 5634TIP3    H238318   4.271   6.560  15.597  1.0571 -2.3555  1.2127
 5635TIP3   OH238319   4.035   4.927   1.501  0.2769  0.4636  0.0210
 5635TIP3    H138320   3.996   4.966   1.579 -0.4828 -0.1093 -0.0628
 5635TIP3    H238321   3.971   4.860   1.474  1.5074 -0.7865  0.1347
 5636TIP3   OH238322   2.585   6.779   6.347  0.4664  0.8134 -0.3151
 5636TIP3    H138323   2.637   6.840   6.400  2.8002 -0.4121 -1.1471
 5636TIP3    H238324   2.585   6.818   6.259 -3.2491  2.7516  0.4400
 5637TIP3   OH238325   4.706   4.662   3.556  0.3944 -0.1889  0.1394
 5637TIP3    H138326   4.773   4.727   3.580  1.0411 -0.2135 -1.5494
 5637TIP3    H238327   4.699   4.606   3.633  1.3511  0.6271  0.8432
 5638TIP3   OH238328   3.237   1.696   0.815 -0.0934  0.1469 -0.2421
 5638TIP3    H138329   3.267   1.768   0.759  2.3903  0.1456  1.0383
 5638TIP3    H238330   3.154   1.669   0.776  0.6120  1.4512 -2.7698
 5639TIP3   OH238331   2.664   4.050  12.883 -0.1659  0.0906 -0.0460
 5639TIP3    H138332   2.660   3.959  12.852  1.1799  0.2622 -0.7564
 5639TIP3    H238333   2.748   4.082  12.851 -1.2960  2.0788 -1.1358
 5640TIP3   OH238334   1.754   3.978   0.359  0.4399 -0.1169  0.3122
 5640TIP3    H138335   1.739   4.057   0.306 -0.3669  0.1453  0.9175
 5640TIP3    H238336   1.820   4.005   0.422 -1.3822  0.7576  1.9109
 5641TIP3   OH238337   5.402   5.833  16.373 -0.1142  0.3378  0.4055
 5641TIP3    H138338   5.428   5.844  16.282 -3.6617 -1.0767 -0.8604
 5641TIP3    H238339   5.328   5.893  16.384 -1.0376 -1.0171  1.7590
 5642TIP3   OH238340   3.420   2.011   1.587  0.5330 -0.0142 -0.4791
 5642TIP3    H138341   3.447   1.922   1.564  1.5707  0.2773 -0.4009
 5642TIP3    H238342   3.403   2.008   1.681  0.3184 -0.1930 -0.5240
 5643TIP3   OH238343   5.748   1.785  13.365  0.1679  0.4027 -0.0167
 5643TIP3    H138344   5.817   1.739  13.413 -0.6196  0.1222  0.8633
 5643TIP3    H238345   5.791   1.862  13.329  0.9629  0.1783  0.4440
 5644TIP3   OH238346   3.203   2.383   0.099 -0.0300 -0.5209  0.2727
 5644TIP3    H138347   3.193   2.466   0.051  0.0441  0.3513  1.7169
 5644TIP3    H238348   3.275   2.399   0.160 -0.7781 -1.2506  1.3796
 5645TIP3   OH238349   0.623   0.296  12.955  0.5960  0.0082 -0.8856
 5645TIP3    H138350   0.635   0.283  12.861  0.5633 -0.6094 -0.8063
 5645TIP3    H238351   0.533   0.270  12.971  1.3270 -2.2747 -0.2793
 5646TIP3   OH238352   1.189   4.844  13.564 -0.1479  0.2355  0.3270
 5646TIP3    H138353   1.158   4.896  13.638  1.1015 -0.7290  1.5483
 5646TIP3    H238354   1.181   4.753  13.592  2.5842 -0.0781  0.2392
 5647TIP3   OH238355   0.909   4.437   2.553 -0.0365  0.4451 -0.6214
 5647TIP3    H138356   0.856   4.357   2.556  0.0728  0.3567 -1.0195
 5647TIP3    H238357   0.968   4.429   2.627 -0.5078  0.4947 -0.2359
 5648TIP3   OH238358   3.855   5.105   4.994 -0.0055  0.2883  0.0834
 5648TIP3    H138359   3.769   5.144   5.007 -0.0106  0.1667  0.4226
 5648TIP3    H238360   3.849   5.019   5.037  0.4127  0.4445  0.4549
 5649TIP3   OH238361   5.069   5.236  12.948  0.6785  0.1518 -0.2197
 5649TIP3    H138362   5.028   5.176  13.010  0.3269 -1.4351 -1.9694
 5649TIP3    H238363   5.153   5.257  12.988 -0.4798  0.9575  1.8835
 5650TIP3   OH238364   4.171   3.020  11.964 -0.3536 -0.4171  0.1787
 5650TIP3    H138365   4.235   2.950  11.973 -0.4639 -0.7482 -1.4160
 5650TIP3    H238366   4.184   3.075  12.041  1.1740 -1.0156  0.3581
 5651TIP3   OH238367   4.241   4.762  14.216  0.3561 -0.4204 -0.1949
 5651TIP3    H138368   4.225   4.849  14.250 -0.3358 -0.1674 -1.1173
 5651TIP3    H238369   4.212   4.767  14.124 -0.0383 -1.7098 -0.1507
 5652TIP3   OH238370   0.713   1.385  13.155  0.3727  0.0283 -0.4355
 5652TIP3    H138371   0.796   1.340  13.168  0.6171  0.8242  0.8157
 5652TIP3    H238372   0.736   1.478  13.155 -0.4499  0.2377 -0.6454
 5653TIP3   OH238373   5.644   2.434   1.871  0.0602  0.1646  0.0519
 5653TIP3    H138374   5.717   2.407   1.927 -0.3150 -1.7399 -0.3534
 5653TIP3    H238375   5.624   2.357   1.818 -0.7950  1.3669 -1.4207
 5654TIP3   OH238376   5.741   3.573   5.466  0.1671  0.3053 -0.2981
 5654TIP3    H138377   5.663   3.624   5.487  1.2815  2.1908 -0.6344
 5654TIP3    H238378   5.720   3.531   5.383 -0.0770  1.7453 -0.9916
 5655TIP3   OH238379   6.365   5.202  15.943 -0.2142 -0.3049  0.0127
 5655TIP3    H138380   6.366   5.200  16.039 -1.1586 -2.6060 -0.0100
 5655TIP3    H238381   6.365   5.296  15.921  2.9356  0.3193  2.2040
 5656TIP3   OH238382   6.359   4.880  11.736  0.2162 -0.3475 -0.2771
 5656TIP3    H138383   6.368   4.969  11.771 -0.5018 -0.0364 -0.8530
 5656TIP3    H238384   6.333   4.894  11.645 -1.2699 -1.1660  0.0133
 5657TIP3   OH238385   2.488   3.678  16.774  0.1122 -0.3308  0.4634
 5657TIP3    H138386   2.578   3.648  16.762  1.1640  2.9772 -0.2001
 5657TIP3    H238387   2.464   3.645  16.861  2.0876 -0.8837  0.8312
 5658TIP3   OH238388   2.588   1.252   4.653  0.0442  0.0224  0.1320
 5658TIP3    H138389   2.615   1.293   4.734  0.3366 -0.6875  0.3968
 5658TIP3    H238390   2.608   1.159   4.665  2.4195  0.2293 -1.6699
 5659TIP3   OH238391   6.761   4.274  10.567 -0.4558 -0.5223 -0.7503
 5659TIP3    H138392   6.667   4.289  10.558 -0.4338  0.4995  0.5422
 5659TIP3    H238393   6.774   4.184  10.536 -1.5935 -0.1234 -2.4791
 5660TIP3   OH238394   0.107   6.697   5.794 -0.2590 -0.5876 -0.2246
 5660TIP3    H138395   0.186   6.652   5.763  0.7330 -0.6028  2.2142
 5660TIP3    H238396   0.035   6.654   5.747  1.0953 -1.0967 -1.9069
 5661TIP3   OH238397   5.353   3.432  14.812 -0.2998  0.3834  0.4364
 5661TIP3    H138398   5.447   3.446  14.824 -0.4641  2.9925 -1.1100
 5661TIP3    H238399   5.317   3.435  14.900  1.0625 -0.9202  1.0748
 5662TIP3   OH238400   2.697   6.679   5.781 -0.1832 -0.2078 -0.5763
 5662TIP3    H138401   2.715   6.648   5.870  0.8965  1.4888 -0.1912
 5662TIP3    H238402   2.606   6.708   5.784  0.3591  1.4113  0.4404
 5663TIP3   OH238403   4.491   6.353   3.776  0.0692 -0.3812 -0.4382
 5663TIP3    H138404   4.440   6.308   3.707 -1.1269 -1.3438  1.0316
 5663TIP3    H238405   4.528   6.282   3.828  0.6653  0.3459  0.1342
 5664TIP3   OH238406   6.491   3.556  13.934 -0.0989  0.0884  0.4515
 5664TIP3    H138407   6.421   3.606  13.893 -0.0072 -0.1129  0.0457
 5664TIP3    H238408   6.541   3.620  13.985  2.1439  1.0980 -2.8739
 5665TIP3   OH238409   2.217   5.815   0.068 -0.4655 -0.1113  0.1307
 5665TIP3    H138410   2.219   5.910   0.077 -0.7030 -0.2420  1.6767
 5665TIP3    H238411   2.307   5.791   0.047 -0.2787  0.3959  0.3489
 5666TIP3   OH238412   0.810   6.427  16.799  0.2853  0.1026  0.3186
 5666TIP3    H138413   0.727   6.405  16.757 -0.0799 -0.7374  1.4578
 5666TIP3    H238414   0.832   6.514  16.766 -0.7847  0.1147 -0.3772
 5667TIP3   OH238415   0.662   4.469  14.208 -0.5504 -0.5176  0.3151
 5667TIP3    H138416   0.609   4.412  14.263 -1.1923  0.5991  0.8741
 5667TIP3    H238417   0.620   4.464  14.122 -0.0625 -1.5901  0.1370
 5668TIP3   OH238418   4.271   5.614   2.257  0.3938  0.1806 -0.6172
 5668TIP3    H138419   4.181   5.611   2.290  0.1680 -0.7483 -1.2982
 5668TIP3    H238420   4.295   5.522   2.245  1.2171  0.4446 -1.0185
 5669TIP3   OH238421   5.384   1.412  15.526  0.9484 -0.6936 -0.0530
 5669TIP3    H138422   5.418   1.470  15.595  1.5914 -0.0577 -0.8811
 5669TIP3    H238423   5.372   1.470  15.451  0.6336 -1.4544 -0.5952
 5670TIP3   OH238424   4.133   6.602   6.627  0.5483  0.0848  0.4042
 5670TIP3    H138425   4.052   6.623   6.675 -0.3729  0.0043 -1.0675
 5670TIP3    H238426   4.196   6.667   6.658 -0.3321  0.7137  0.9401
 5671TIP3   OH238427   1.134   1.247  11.736  0.1892 -0.4531  0.5681
 5671TIP3    H138428   1.181   1.285  11.810 -0.0909  1.5370 -0.2547
 5671TIP3    H238429   1.185   1.169  11.713  1.9968  0.5966  0.9099
 5672TIP3   OH238430   1.670   1.929  16.305  0.2409  0.1684  0.2508
 5672TIP3    H138431   1.584   1.946  16.344  0.8280  1.4645  1.0319
 5672TIP3    H238432   1.727   1.996  16.344  1.9922 -1.7548  1.0514
 5673TIP3   OH238433   5.038   0.863   4.500  0.7190 -0.4636  0.4450
 5673TIP3    H138434   5.108   0.798   4.510  0.7884 -0.4861 -0.1667
 5673TIP3    H238435   5.070   0.922   4.431  0.6144  0.1615  0.9277
 5674TIP3   OH238436   0.076   5.472  14.606 -0.0310 -0.3403 -0.3956
 5674TIP3    H138437   0.056   5.391  14.558 -2.0304  0.1733 -0.4871
 5674TIP3    H238438   0.080   5.539  14.538 -1.7678  0.1977 -0.0039
 5675TIP3   OH238439   2.443   5.256  12.508 -0.0319 -0.2712 -0.0600
 5675TIP3    H138440   2.444   5.329  12.571  1.8935  0.1327 -0.5272
 5675TIP3    H238441   2.480   5.183  12.557 -0.1179 -0.4125 -0.2090
 5676TIP3   OH238442   1.457   4.443  14.182 -0.8276 -1.2540  0.2890
 5676TIP3    H138443   1.513   4.437  14.105 -1.8817 -2.0101 -0.4290
 5676TIP3    H238444   1.380   4.491  14.152 -0.2941  0.3710  1.4430
 5677TIP3   OH238445   5.336   6.622  14.658  0.9408  0.1418  0.1810
 5677TIP3    H138446   5.322   6.536  14.618 -0.1317  0.8499 -0.9733
 5677TIP3    H238447   5.286   6.683  14.604 -0.2240  1.1844  2.3656
 5678TIP3   OH238448   4.406   3.303   0.447  0.0797  0.0321  0.4779
 5678TIP3    H138449   4.427   3.393   0.474 -0.2257  0.6997 -1.4087
 5678TIP3    H238450   4.311   3.297   0.458  0.1087 -0.0666  0.6648
 5679TIP3   OH238451   4.348   5.268  11.672 -0.1803 -0.2279  0.6297
 5679TIP3    H138452   4.321   5.229  11.590 -1.5415 -0.6168  1.2474
 5679TIP3    H238453   4.425   5.217  11.699 -2.6521 -3.4038  2.0618
 5680TIP3   OH238454   5.331   4.395   5.768  0.2475  0.0098  0.2948
 5680TIP3    H138455   5.322   4.345   5.850  0.4476 -1.9566 -0.8426
 5680TIP3    H238456   5.409   4.358   5.727  1.8200  2.9293  0.5161
 5681TIP3   OH238457   1.532   3.989   2.216 -0.2443  0.4283 -0.0252
 5681TIP3    H138458   1.545   3.989   2.121 -0.4401 -1.2110 -0.0715
 5681TIP3    H238459   1.614   4.022   2.251  0.2474 -0.0080 -0.7378
 5682TIP3   OH238460   0.878   5.727   4.319 -0.2234  0.5182  0.4574
 5682TIP3    H138461   0.957   5.674   4.312  0.3175  1.6347 -2.3400
 5682TIP3    H238462   0.844   5.707   4.407  3.3535  0.3486  1.9075
 5683TIP3   OH238463   0.110   4.400   5.465 -0.0869 -0.1179 -0.4775
 5683TIP3    H138464   0.205   4.405   5.459 -0.0775  0.4243  0.1407
 5683TIP3    H238465   0.078   4.450   5.390  0.1146 -1.0854 -1.2275
 5684TIP3   OH238466   6.598   2.978   2.107 -0.2881 -0.0313  0.0535
 5684TIP3    H138467   6.551   2.917   2.163 -2.0645  1.1219 -0.1357
 5684TIP3    H238468   6.651   2.922   2.050 -0.0852 -1.2846  1.4400
 5685TIP3   OH238469   3.488   6.314  11.240  0.0166 -0.4570 -0.5458
 5685TIP3    H138470   3.394   6.331  11.240 -0.2703 -1.9401 -0.7830
 5685TIP3    H238471   3.504   6.267  11.158  0.8287 -0.8983 -0.1445
 5686TIP3   OH238472   2.303   1.876  15.529  0.0422 -0.8203 -0.3478
 5686TIP3    H138473   2.248   1.797  15.534 -0.1991 -0.6374 -0.1272
 5686TIP3    H238474   2.389   1.847  15.559 -0.3330 -0.7238  0.8293
 5687TIP3   OH238475   4.088   4.354   0.921  0.2962  0.1412  0.0929
 5687TIP3    H138476   4.098   4.446   0.896  2.9785 -0.8351 -2.8901
 5687TIP3    H238477   4.174   4.329   0.954 -0.5884 -1.1581  1.4747
 5688TIP3   OH238478   6.118   2.766   1.858 -0.3473  0.2554  0.1029
 5688TIP3    H138479   6.119   2.855   1.892  2.7278  0.0256  0.7361
 5688TIP3    H238480   6.179   2.768   1.784 -2.1122 -0.7665 -1.4211
 5689TIP3   OH238481   1.538   1.683  11.566 -0.3867  0.4332  0.2418
 5689TIP3    H138482   1.463   1.703  11.510 -0.1740 -0.2091 -0.2789
 5689TIP3    H238483   1.578   1.769  11.584 -2.3055  0.9980  2.0514
 5690TIP3   OH238484   0.661   4.529   2.750  0.1675 -0.5328 -0.5585
 5690TIP3    H138485   0.707   4.537   2.667 -0.0380 -0.1635 -0.6356
 5690TIP3    H238486   0.572   4.502   2.725  0.2793 -1.0414 -0.4231
 5691TIP3   OH238487   5.504   0.705  14.180 -0.9290  0.5242  0.2598
 5691TIP3    H138488   5.573   0.665  14.232 -0.8476  0.3450  0.0137
 5691TIP3    H238489   5.440   0.736  14.245  0.3898  2.5844  0.5933
 5692TIP3   OH238490   3.173   1.012   6.208 -0.2658 -1.0351  0.6179
 5692TIP3    H138491   3.128   0.928   6.208 -0.9326 -0.6842  1.5906
 5692TIP3    H238492   3.254   0.996   6.255 -0.2778 -1.1890  0.5864
 5693TIP3   OH238493   1.240   3.466   2.441 -0.4574  0.4555 -0.1541
 5693TIP3    H138494   1.224   3.558   2.464 -0.9658 -0.0230  1.4275
 5693TIP3    H238495   1.172   3.417   2.487 -0.3066 -0.7022 -1.1529
 5694TIP3   OH238496   5.370   0.434   0.193 -0.6875 -0.0479 -0.7771
 5694TIP3    H138497   5.314   0.357   0.187 -1.2129  0.2434  0.3023
 5694TIP3    H238498   5.311   0.508   0.177 -0.2343  0.1450 -1.5685
 5695TIP3   OH238499   6.634   1.796  13.181 -0.1278  0.3958 -0.0278
 5695TIP3    H138500   6.643   1.845  13.099  1.9123 -1.7478 -1.1565
 5695TIP3    H238501   6.596   1.712  13.154 -0.7458  0.1836  1.4432
 5696TIP3   OH238502   4.910   5.582  11.775  0.1119  0.2398  0.1717
 5696TIP3    H138503   4.828   5.538  11.755 -0.1718 -0.8020  3.4549
 5696TIP3    H238504   4.969   5.556  11.704 -1.5618 -1.2367 -0.7003
 5697TIP3   OH238505   1.414   4.506   3.625 -0.3650 -0.1122 -0.3914
 5697TIP3    H138506   1.453   4.527   3.710  0.1765 -4.2714  0.4856
 5697TIP3    H238507   1.470   4.551   3.561  2.6558 -1.4792  1.1722
 5698TIP3   OH238508   5.042   4.900   5.230  0.8651  0.1209  0.2413
 5698TIP3    H138509   5.137   4.883   5.225  0.6858 -1.0156  0.4920
 5698TIP3    H238510   5.034   4.994   5.215  1.8055 -0.1911 -2.3976
 5699TIP3   OH238511   4.132   4.265   2.519  0.1846 -0.5514  0.0725
 5699TIP3    H138512   4.134   4.219   2.603  1.3219  0.2433  0.4970
 5699TIP3    H238513   4.082   4.345   2.538 -0.8328 -1.0707 -0.3847
 5700TIP3   OH238514   3.498   2.943  15.252 -0.0951  0.2505  0.1098
 5700TIP3    H138515   3.478   3.033  15.226 -1.6442  0.4919  2.0511
 5700TIP3    H238516   3.465   2.935  15.341  2.2641 -1.5087  0.8816
 5701TIP3   OH238517   4.467   2.453   4.748  0.4220  0.2525 -0.3109
 5701TIP3    H138518   4.403   2.523   4.738  0.4508  0.1602 -1.1154
 5701TIP3    H238519   4.508   2.471   4.833 -0.5862  0.3684  0.1479
 5702TIP3   OH238520   3.444   4.973  14.261  0.0267 -0.4024  0.0886
 5702TIP3    H138521   3.413   4.983  14.171  2.0067  1.5602 -0.4197
 5702TIP3    H238522   3.458   4.879  14.271  1.4774 -0.4869 -2.2834
 5703TIP3   OH238523   4.318   1.168   6.065  0.0905  0.3316 -0.2374
 5703TIP3    H138524   4.394   1.116   6.036 -0.4229 -0.5156 -0.0715
 5703TIP3    H238525   4.356   1.234   6.122  0.4582 -1.6119  1.8448
 5704TIP3   OH238526   2.675   3.466   6.385 -0.6281 -0.1745  0.0763
 5704TIP3    H138527   2.700   3.493   6.474  1.5735 -2.6433  0.2636
 5704TIP3    H238528   2.748   3.496   6.330  0.0294 -2.3423 -0.2541
 5705TIP3   OH238529   2.892   5.761   0.009 -0.4223 -0.2713  0.1256
 5705TIP3    H138530   2.980   5.768  -0.027 -0.4179  0.4579  0.2725
 5705TIP3    H238531   2.891   5.676   0.054 -0.4721 -1.2758 -1.6962
 5706TIP3   OH238532   5.993   2.574  15.933  0.7943 -0.1364 -0.4116
 5706TIP3    H138533   6.014   2.488  15.969  2.4829 -0.3090 -1.7150
 5706TIP3    H238534   5.940   2.556  15.856 -1.0437  0.1323  0.7654
 5707TIP3   OH238535   5.491   6.130   2.957  0.2110 -0.0944  0.1545
 5707TIP3    H138536   5.487   6.212   3.007  3.2083  0.4584 -0.3721
 5707TIP3    H238537   5.495   6.158   2.866  0.5651 -0.8353 -0.0602
 5708TIP3   OH238538   5.332   4.290   5.393  0.1578 -0.9503 -0.0820
 5708TIP3    H138539   5.326   4.385   5.380  0.4443 -0.6988  1.5741
 5708TIP3    H238540   5.333   4.254   5.304 -0.0598  0.5869 -0.7232
 5709TIP3   OH238541   1.069   5.222  13.978  0.5127  0.0821 -0.4833
 5709TIP3    H138542   1.030   5.268  14.053  0.5821  0.7381 -0.8488
 5709TIP3    H238543   1.159   5.204  14.005  0.3288 -0.3273 -0.1268
 5710TIP3   OH238544   2.019   0.210   6.438  0.8866 -0.2296  0.4426
 5710TIP3    H138545   2.062   0.295   6.432 -0.8809  0.7368  0.9535
 5710TIP3    H238546   1.997   0.187   6.347  1.2036 -0.0465  0.3223
 5711TIP3   OH238547   4.679   5.121  15.390  0.2226 -0.3574 -0.0977
 5711TIP3    H138548   4.586   5.141  15.375  0.2822  0.7731  1.0121
 5711TIP3    H238549   4.680   5.074  15.473  0.6355 -0.4598 -0.1613
 5712TIP3   OH238550   0.312   1.450  14.043 -0.6852  0.4533  0.2046
 5712TIP3    H138551   0.318   1.490  13.956 -1.9045  1.1031  0.4182
 5712TIP3    H238552   0.371   1.502  14.097 -0.0669  0.1649 -0.1816
 5713TIP3   OH238553   3.584   2.072  16.458  0.0049  0.9309  0.4092
 5713TIP3    H138554   3.552   2.162  16.449  0.5914  1.0071 -1.0580
 5713TIP3    H238555   3.541   2.024  16.388 -0.7316 -0.0632  1.5323
 5714TIP3   OH238556   4.186   5.910  14.665 -0.4311  0.1934  0.2140
 5714TIP3    H138557   4.247   5.920  14.738 -0.3652 -0.7639  0.2970
 5714TIP3    H238558   4.235   5.860  14.600 -0.1239  1.9435 -0.9296
 5715TIP3   OH238559   2.630   1.740   2.800 -0.2765 -0.1415 -0.4077
 5715TIP3    H138560   2.577   1.708   2.873 -0.3351 -0.8968 -0.7722
 5715TIP3    H238561   2.710   1.772   2.842  0.8619 -3.0801 -0.1934
 5716TIP3   OH238562   1.480   2.168   0.333  0.1180  0.4719 -0.3643
 5716TIP3    H138563   1.547   2.101   0.329  0.0117  0.3935 -0.8949
 5716TIP3    H238564   1.407   2.132   0.283 -1.2059 -0.4270  2.0926
 5717TIP3   OH238565   0.206   2.311   0.640 -0.1648 -0.0281 -0.2168
 5717TIP3    H138566   0.251   2.350   0.565 -1.0383  0.3496 -0.5461
 5717TIP3    H238567   0.138   2.256   0.601  0.0561 -0.6552  0.2798
 5718TIP3   OH238568   5.814   5.671   4.048  0.5099 -0.8149 -0.8429
 5718TIP3    H138569   5.742   5.723   4.084  1.5254 -0.0478  0.1398
 5718TIP3    H238570   5.803   5.676   3.953  0.0976  0.4644 -0.7326
 5719TIP3   OH238571   3.934   1.641  14.641  0.3188 -0.0834  0.2837
 5719TIP3    H138572   4.025   1.641  14.668  0.0165  1.3976  1.3496
 5719TIP3    H238573   3.924   1.720  14.588 -0.3344 -0.2251  0.1865
 5720TIP3   OH238574   4.805   2.128  13.366  0.2765 -0.5949 -0.2718
 5720TIP3    H138575   4.887   2.123  13.317 -0.4982 -0.8487 -1.5653
 5720TIP3    H238576   4.790   2.222  13.379  1.8557 -0.6026  1.8573
 5721TIP3   OH238577   0.082   2.420  11.808  0.9469 -0.3233  0.2962
 5721TIP3    H138578   0.166   2.447  11.844  0.1049  0.9376  1.3544
 5721TIP3    H238579   0.104   2.373  11.728  2.7157 -0.9863  1.1586
 5722TIP3   OH238580   1.477   5.309  15.612  0.0154 -0.2681  0.0346
 5722TIP3    H138581   1.490   5.366  15.688  1.5289  0.0183 -0.4269
 5722TIP3    H238582   1.444   5.227  15.649  0.6575 -0.1032  1.0048
 5723TIP3   OH238583   6.056   2.227  15.369  0.0837 -0.4112 -0.2571
 5723TIP3    H138584   6.052   2.272  15.284 -2.7167 -3.5305 -1.8971
 5723TIP3    H238585   6.127   2.163  15.357  0.5118 -0.0144  0.1823
 5724TIP3   OH238586   0.544   5.077   5.252 -0.2510 -0.2983  0.2889
 5724TIP3    H138587   0.489   5.154   5.235 -2.5065 -1.9068  0.0084
 5724TIP3    H238588   0.533   5.060   5.345  1.4426  0.5613  0.6740
 5725TIP3   OH238589   2.717   3.440   4.695 -0.2836 -0.1944 -0.1279
 5725TIP3    H138590   2.695   3.521   4.740  1.2607 -1.0496  2.3081
 5725TIP3    H238591   2.634   3.392   4.689 -0.7942  0.6128  0.4359
 5726TIP3   OH238592   2.877   0.989   5.307  0.0593  0.9116  0.9813
 5726TIP3    H138593   2.925   1.067   5.278 -0.9385  1.3471  0.4706
 5726TIP3    H238594   2.786   1.006   5.281  0.0975 -1.1185 -0.5956
 5727TIP3   OH238595   1.040   3.831  16.336 -0.3280  0.2831 -0.8000
 5727TIP3    H138596   1.026   3.869  16.250 -1.6623  1.3860 -0.1074
 5727TIP3    H238597   1.118   3.777  16.326  0.3689  1.5575 -2.3252
 5728TIP3   OH238598   6.372   3.528   4.693  1.2981  0.3588 -0.5630
 5728TIP3    H138599   6.315   3.461   4.732  0.7722  1.8010  1.1917
 5728TIP3    H238600   6.415   3.483   4.620  0.4252 -1.6943  0.1506
 5729TIP3   OH238601   2.146   6.282  14.415  0.3882 -0.3636 -0.2887
 5729TIP3    H138602   2.101   6.365  14.429  0.9724  0.4838 -3.2436
 5729TIP3    H238603   2.111   6.224  14.483 -2.8961  1.1442 -0.6285
 5730TIP3   OH238604   3.831   6.454   5.733  0.1963  0.0114  0.2455
 5730TIP3    H138605   3.777   6.391   5.781 -0.8137  0.1163 -0.7246
 5730TIP3    H238606   3.880   6.501   5.801  0.0489 -0.9902  1.0487
 5731TIP3   OH238607   6.341   0.119  16.402 -0.4281  0.0378 -0.0627
 5731TIP3    H138608   6.309   0.116  16.312 -0.5253  2.1359 -0.1404
 5731TIP3    H238609   6.262   0.133  16.454 -0.1506  0.8705  0.1448
 5732TIP3   OH238610   0.550   2.584  14.218  0.4948 -0.2131  0.1165
 5732TIP3    H138611   0.523   2.675  14.224  0.0183 -0.3742  0.4553
 5732TIP3    H238612   0.627   2.578  14.274 -0.1260 -0.2628  0.9747
 5733TIP3   OH238613   1.983   1.021  17.059  0.1878 -0.0338 -0.0279
 5733TIP3    H138614   1.999   0.932  17.027  1.8041 -0.1557  1.0542
 5733TIP3    H238615   2.062   1.044  17.107 -1.2216  1.0369  1.8598
 5734TIP3   OH238616   1.561   0.415   4.253 -0.0042 -0.5754  0.4693
 5734TIP3    H138617   1.525   0.433   4.339  2.2599 -0.9546  1.5579
 5734TIP3    H238618   1.522   0.480   4.195 -1.2221 -0.0532  1.8569
 5735TIP3   OH238619   1.154   4.032  14.619  0.3876  0.1694 -0.1039
 5735TIP3    H138620   1.247   4.055  14.623  0.3940 -0.0776  1.5756
 5735TIP3    H238621   1.153   3.943  14.584  0.8305 -0.1182  0.6116
 5736TIP3   OH238622   1.686   1.998   3.935 -0.5329 -0.9068 -0.0621
 5736TIP3    H138623   1.662   1.990   4.027  0.0732 -0.7741  0.1096
 5736TIP3    H238624   1.716   1.911   3.910 -0.3476 -0.8506 -0.0347
 5737TIP3   OH238625   2.703   4.132   4.126  0.1236  0.3342 -0.6327
 5737TIP3    H138626   2.700   4.049   4.078  0.0193 -1.1911  1.9274
 5737TIP3    H238627   2.611   4.151   4.145  0.3572 -1.5581  2.9587
 5738TIP3   OH238628   5.306   0.445  12.421  0.5079  0.2817 -0.2107
 5738TIP3    H138629   5.335   0.417  12.334 -2.5896 -0.9934 -0.8798
 5738TIP3    H238630   5.263   0.529  12.406 -0.3536 -0.1156  0.0547
 5739TIP3   OH238631   1.730   1.202  14.896  0.2769 -0.9821  0.5753
 5739TIP3    H138632   1.678   1.174  14.971 -0.5389 -0.4709  0.2133
 5739TIP3    H238633   1.800   1.137  14.889 -0.5229 -1.8751  0.8545
 5740TIP3   OH238634   2.680   3.914  12.586  0.2238  0.6161 -0.6144
 5740TIP3    H138635   2.603   3.876  12.629 -0.5412  0.8957 -1.6922
 5740TIP3    H238636   2.680   3.875  12.498  2.5379 -0.9914  0.0578
 5741TIP3   OH238637   6.559   4.117  15.517 -0.0925  0.0393  0.6100
 5741TIP3    H138638   6.620   4.163  15.575  0.3382 -0.4487  0.5431
 5741TIP3    H238639   6.555   4.171  15.438  0.9966 -0.4339  0.2321
 5742TIP3   OH238640   2.763   0.824   2.735  0.4343 -0.1784 -0.3347
 5742TIP3    H138641   2.692   0.888   2.735  1.4641  1.0058 -1.8544
 5742TIP3    H238642   2.769   0.794   2.826  0.1992  2.1746  0.4703
 5743TIP3   OH238643   2.013   0.465  15.024  0.9826  0.0924  1.1091
 5743TIP3    H138644   2.068   0.394  14.993 -2.6535 -3.1719  1.7640
 5743TIP3    H238645   2.071   0.542  15.027  4.8674 -2.6831 -0.1348
 5744TIP3   OH238646   4.376   4.023  14.301 -0.3313 -0.1532  0.4637
 5744TIP3    H138647   4.285   4.039  14.326 -0.1357 -1.2209  1.8884
 5744TIP3    H238648   4.426   4.093  14.345 -0.5533  1.0200 -1.1066
 5745TIP3   OH238649   1.978   5.355  15.046 -0.1008  0.0157  0.1886
 5745TIP3    H138650   1.952   5.312  14.965 -1.1789 -0.2599  0.6809
 5745TIP3    H238651   1.900   5.354  15.101  0.8091 -0.3975  1.5006
 5746TIP3   OH238652   6.390   2.685  13.729  0.7080  0.0610  0.4900
 5746TIP3    H138653   6.403   2.769  13.775 -0.3551 -0.2836  1.4465
 5746TIP3    H238654   6.299   2.663  13.746  0.3493 -0.1847 -1.6595
 5747TIP3   OH238655   1.301   4.302  13.891  0.4225  0.2610 -0.0758
 5747TIP3    H138656   1.272   4.361  13.961  0.8277 -0.3634  0.6317
 5747TIP3    H238657   1.287   4.215  13.927  1.4775 -0.0592 -0.4241
 5748TIP3   OH238658   1.242   3.117   4.800  0.0675 -0.0709  0.1353
 5748TIP3    H138659   1.273   3.207   4.805  1.3236 -0.5456  1.2702
 5748TIP3    H238660   1.304   3.067   4.854 -1.3980 -1.3986  0.6379
 5749TIP3   OH238661   2.649   6.617  11.996  0.4605  0.5038  0.3479
 5749TIP3    H138662   2.677   6.611  12.087  0.3876 -0.4313  0.3145
 5749TIP3    H238663   2.726   6.651  11.950  0.5071  0.9550  0.7490
 5750TIP3   OH238664   0.042   6.448  16.360  0.2786 -0.0320  0.7891
 5750TIP3    H138665  -0.021   6.416  16.296 -0.2814  0.2054  1.2136
 5750TIP3    H238666   0.005   6.423  16.445  1.7851 -1.7508  0.9761
 5751TIP3   OH238667   0.029   1.245   6.240  0.4658  0.4041 -0.4135
 5751TIP3    H138668  -0.051   1.255   6.292  1.0638  0.4542  0.5106
 5751TIP3    H238669   0.084   1.187   6.293  1.3791  1.0506 -0.6459
 5752TIP3   OH238670   1.184   1.926  14.210  0.0920  0.4466  0.1298
 5752TIP3    H138671   1.206   2.011  14.173  0.3989  0.1655 -0.3332
 5752TIP3    H238672   1.116   1.891  14.153  0.3007  0.1749  0.0477
 5753TIP3   OH238673   1.123   3.865  11.716  0.5017  0.1258 -0.3000
 5753TIP3    H138674   1.170   3.891  11.637  2.5595 -2.5646 -0.0219
 5753TIP3    H238675   1.158   3.922  11.785  1.0131  0.2974 -0.7020
 5754TIP3   OH238676   4.854   4.015  13.333 -0.2130 -0.1103 -0.3869
 5754TIP3    H138677   4.821   3.963  13.406 -1.0957 -0.3205 -0.9358
 5754TIP3    H238678   4.929   4.063  13.369  0.0155 -1.0325  0.3693
 5755TIP3   OH238679   4.097   2.915  17.157  0.3213 -0.2592 -0.5611
 5755TIP3    H138680   4.175   2.885  17.109  0.8688 -0.1362  0.2393
 5755TIP3    H238681   4.128   2.926  17.247 -0.2289  1.3060 -0.5564
 5756TIP3   OH238682   3.526   0.195  11.014  0.2799  0.0918 -0.9286
 5756TIP3    H138683   3.617   0.167  11.002 -0.0999 -1.4512 -0.4319
 5756TIP3    H238684   3.474   0.123  10.978 -0.7584 -0.4750  1.5529
 5757TIP3   OH238685   3.223   0.749   4.454  0.4491 -0.2156  0.3232
 5757TIP3    H138686   3.293   0.806   4.487 -0.3042  0.9719 -0.0966
 5757TIP3    H238687   3.229   0.758   4.359 -1.4555  1.3531  0.3242
 5758TIP3   OH238688   4.400   2.804  12.979  0.3313  0.1216  0.3309
 5758TIP3    H138689   4.364   2.854  12.905 -0.7923 -0.4895  0.4636
 5758TIP3    H238690   4.353   2.837  13.055 -0.7277 -1.4261  0.3649
 5759TIP3   OH238691   2.342   0.640   4.010 -0.0401 -0.2249  0.5008
 5759TIP3    H138692   2.373   0.688   4.086 -0.1525 -0.6940  0.8444
 5759TIP3    H238693   2.260   0.684   3.986  0.4103  0.4371  0.1461
 5760TIP3   OH238694   6.618   1.632  16.482  0.6246 -1.1583 -0.0221
 5760TIP3    H138695   6.556   1.667  16.545  2.0416  0.5524  0.4817
 5760TIP3    H238696   6.695   1.609  16.534  1.3323 -0.9395 -0.9573
 5761TIP3   OH238697   3.686   0.639  11.998  0.3871 -0.0961 -0.1617
 5761TIP3    H138698   3.747   0.667  12.065  0.1609  0.1594 -0.0636
 5761TIP3    H238699   3.689   0.543  12.002  0.6270 -0.0828 -0.0203
 5762TIP3   OH238700   2.338   1.963  11.608  0.5189  0.2811  0.0582
 5762TIP3    H138701   2.312   1.917  11.688 -1.1105  1.7618  0.4246
 5762TIP3    H238702   2.334   1.897  11.539  2.4966 -1.1565  1.2691
 5763TIP3   OH238703   5.772   3.914   4.441  0.1842  0.4899 -0.1138
 5763TIP3    H138704   5.771   3.959   4.526 -0.4913  1.5890 -0.6872
 5763TIP3    H238705   5.718   3.969   4.385  0.0826 -0.5892 -1.0845
 5764TIP3   OH238706   5.240   2.534   1.948 -0.2131  0.5177 -0.6194
 5764TIP3    H138707   5.265   2.460   2.003  0.3666  1.2193  0.0892
 5764TIP3    H238708   5.300   2.530   1.874 -1.0152 -0.4515 -1.2156
 5765TIP3   OH238709   6.241   0.427   0.718 -0.3958  0.4072  0.2978
 5765TIP3    H138710   6.294   0.437   0.798  2.0983 -3.2690 -0.7729
 5765TIP3    H238711   6.182   0.355   0.738 -1.6183  1.2497 -0.2650
 5766TIP3   OH238712   2.813   2.683   1.634  0.2595  0.6957  0.3634
 5766TIP3    H138713   2.738   2.742   1.631  1.8931  2.8526  0.2675
 5766TIP3    H238714   2.889   2.740   1.616  2.0574 -1.1191  1.9248
 5767TIP3   OH238715   2.149   1.911  13.795  0.0169 -0.4433  0.2970
 5767TIP3    H138716   2.114   1.914  13.885 -0.6139 -1.0471  0.0867
 5767TIP3    H238717   2.217   1.844  13.799 -0.5056 -0.9891  0.1673
 5768TIP3   OH238718   5.744   5.441   5.035 -0.1211 -0.5344 -0.0868
 5768TIP3    H138719   5.831   5.405   5.016 -0.4422 -1.8686  0.8887
 5768TIP3    H238720   5.735   5.516   4.976  0.8303 -1.6755 -1.7002
 5769TIP3   OH238721   2.193   2.144  14.369  0.0652  0.2027  0.2021
 5769TIP3    H138722   2.172   2.179  14.283 -2.8080 -1.4832  0.1625
 5769TIP3    H238723   2.110   2.110  14.403  1.4740 -0.7490  2.9076
 5770TIP3   OH238724   4.477   4.999  13.224 -0.2881  0.6445  0.3322
 5770TIP3    H138725   4.540   5.062  13.187 -0.7236  0.2503 -1.1152
 5770TIP3    H238726   4.394   5.047  13.225 -0.5513  0.2107 -0.4581
 5771TIP3   OH238727   0.356   2.854  14.999 -0.0741  0.0216  0.0951
 5771TIP3    H138728   0.272   2.900  15.009 -1.6982 -2.9294  0.5043
 5771TIP3    H238729   0.363   2.839  14.904  1.5275  2.9472 -0.3020
 5772TIP3   OH238730   2.737   4.247  16.580 -0.6100 -0.3900 -0.7741
 5772TIP3    H138731   2.831   4.248  16.558  0.0361 -1.1925  1.7373
 5772TIP3    H238732   2.721   4.334  16.617 -0.8700 -0.2600 -1.1867
 5773TIP3   OH238733   1.365   3.170  17.098  0.0666  0.5238 -0.3445
 5773TIP3    H138734   1.442   3.213  17.135 -0.9062  0.9223  1.2790
 5773TIP3    H238735   1.335   3.110  17.166 -1.5853  1.0432 -0.5819
 5774TIP3   OH238736   6.197   4.083  14.783 -0.5153 -0.4052 -0.4561
 5774TIP3    H138737   6.134   4.059  14.715  0.0929  0.4485 -1.3252
 5774TIP3    H238738   6.174   4.172  14.808  0.1803 -0.1856 -0.5870
 5775TIP3   OH238739   2.445   2.721   2.245 -0.3667  0.5216 -0.7210
 5775TIP3    H138740   2.436   2.660   2.173  2.3115 -0.5683 -0.1978
 5775TIP3    H238741   2.468   2.667   2.320 -0.7580  1.8701  0.3981
 5776TIP3   OH238742   0.971   1.827   0.156 -0.0806 -0.6157  0.3795
 5776TIP3    H138743   0.922   1.752   0.122  0.5698  0.2536 -2.6109
 5776TIP3    H238744   0.904   1.890   0.183 -0.6187 -2.0043  2.3800
 5777TIP3   OH238745   3.488   1.963  13.537  0.0557  0.2567 -0.5354
 5777TIP3    H138746   3.540   1.885  13.521 -1.1219 -0.5636 -0.3753
 5777TIP3    H238747   3.547   2.023  13.583  0.8652 -0.6467 -0.4035
 5778TIP3   OH238748   0.637   3.007  16.799  0.2620  0.3770 -0.2864
 5778TIP3    H138749   0.562   2.949  16.808 -0.3957  1.1278 -0.8872
 5778TIP3    H238750   0.699   2.977  16.866 -0.3139 -0.6291 -0.2042
 5779TIP3   OH238751   1.389   4.164  16.444  0.1579 -0.0129 -0.2994
 5779TIP3    H138752   1.360   4.097  16.507 -1.3955  1.0729  0.1655
 5779TIP3    H238753   1.484   4.151  16.438  0.4838  0.3227  2.8680
 5780TIP3   OH238754   3.217   3.500  13.049 -0.3162  0.1222  0.0534
 5780TIP3    H138755   3.212   3.411  13.084  0.9190  1.0151  2.6335
 5780TIP3    H238756   3.128   3.534  13.055 -0.1010  0.3155  2.5693
 5781TIP3   OH238757   4.816   0.789   3.181  0.0880 -0.3996  0.1580
 5781TIP3    H138758   4.813   0.764   3.089 -0.3661 -1.2877  0.4049
 5781TIP3    H238759   4.746   0.854   3.191 -0.5626 -1.0760  0.0917
 5782TIP3   OH238760   5.527   1.770   4.210  0.2559  0.2326 -0.4286
 5782TIP3    H138761   5.615   1.751   4.177  0.6084  1.3324 -0.1205
 5782TIP3    H238762   5.473   1.775   4.131  0.3983 -0.7502 -0.6002
 5783TIP3   OH238763   0.338   2.458   6.028 -0.1982 -0.1857  0.1689
 5783TIP3    H138764   0.386   2.517   5.970  0.3016 -0.2327  0.5366
 5783TIP3    H238765   0.269   2.421   5.972 -0.3833  0.5816 -0.1152
 5784TIP3   OH238766   2.413   4.103   3.525 -0.3357  0.1896  0.2493
 5784TIP3    H138767   2.489   4.046   3.536  0.2237  0.9068  0.1757
 5784TIP3    H238768   2.427   4.146   3.440 -0.0931  1.3918  0.8853
 5785TIP3   OH238769   2.848   3.299  11.812 -0.0129 -0.0160  0.3975
 5785TIP3    H138770   2.832   3.381  11.857  0.3556 -0.6853  1.7604
 5785TIP3    H238771   2.761   3.263  11.795 -0.1561  0.3580  0.3384
 5786TIP3   OH238772   6.352   6.086  15.370  0.0116  0.2200 -0.0747
 5786TIP3    H138773   6.429   6.142  15.364  0.0768  0.2396  0.9212
 5786TIP3    H238774   6.306   6.100  15.287  1.6602 -0.6675 -1.1573
 5787TIP3   OH238775   5.381   0.871   3.821 -0.1126  0.2290  0.1715
 5787TIP3    H138776   5.448   0.850   3.756 -0.3331 -1.7178  0.5445
 5787TIP3    H238777   5.365   0.964   3.809  2.6439  0.7500  0.0554
 5788TIP3   OH238778   5.249   0.147   1.510  0.0886 -0.1478  0.2913
 5788TIP3    H138779   5.341   0.121   1.511 -0.4182 -2.0035  0.8719
 5788TIP3    H238780   5.251   0.240   1.489  1.9899 -0.5998 -1.7661
 5789TIP3   OH238781   2.710   0.722  11.455 -0.3107  0.0951  0.0080
 5789TIP3    H138782   2.795   0.704  11.414 -0.9006 -0.5727 -0.9456
 5789TIP3    H238783   2.684   0.807  11.420  0.2924  0.6429  0.8646
 5790TIP3   OH238784   5.994   2.134  15.056 -0.3348 -0.0499 -0.4408
 5790TIP3    H138785   6.010   2.226  15.076  0.2514 -0.5381  1.4357
 5790TIP3    H238786   5.902   2.120  15.080 -0.1770 -0.1670  0.0966
 5791TIP3   OH238787   0.223   1.250  16.279  0.7670  0.4502 -0.2707
 5791TIP3    H138788   0.275   1.317  16.233 -0.7910  0.9598 -1.3092
 5791TIP3    H238789   0.143   1.295  16.304  0.6942 -0.4192  1.1022
 5792TIP3   OH238790   4.877   5.037   2.270 -0.1045 -0.4833 -0.3401
 5792TIP3    H138791   4.794   5.069   2.235 -0.2682 -1.1652 -0.5652
 5792TIP3    H238792   4.885   4.948   2.237 -0.7145 -1.4862  2.1289
 5793TIP3   OH238793   6.121   4.527  15.799  0.4918 -0.5172 -0.0899
 5793TIP3    H138794   6.107   4.555  15.708 -1.7008 -1.5015 -0.0688
 5793TIP3    H238795   6.141   4.608  15.846 -3.2978  0.7652 -0.5172
 5794TIP3   OH238796   0.300   2.197  13.254 -0.1493 -0.1356 -0.1294
 5794TIP3    H138797   0.273   2.202  13.346  0.5569  1.0165  0.0269
 5794TIP3    H238798   0.248   2.265  13.211  0.1057 -0.1402 -0.4414
 5795TIP3   OH238799   2.409   0.407   1.336  0.4390 -0.2840 -0.3955
 5795TIP3    H138800   2.414   0.320   1.375 -1.6357 -0.6156 -0.8194
 5795TIP3    H238801   2.500   0.428   1.313  1.0359 -2.0904  0.2087
 5796TIP3   OH238802   4.625   4.271   6.130  0.3940  0.4375 -0.6114
 5796TIP3    H138803   4.648   4.243   6.042  1.1913 -1.1751  0.0929
 5796TIP3    H238804   4.604   4.190   6.177 -0.7296  1.3336  0.4849
 5797TIP3   OH238805   2.482   4.429   3.436 -0.2581 -0.2710 -0.1902
 5797TIP3    H138806   2.394   4.465   3.432 -1.1716 -2.3626  0.2000
 5797TIP3    H238807   2.488   4.392   3.524  1.4166  0.8538  0.1773
 5798TIP3   OH238808   5.889   4.223   2.299 -0.0121  0.1043 -0.2674
 5798TIP3    H138809   5.903   4.218   2.205 -0.8480 -0.6789 -0.3485
 5798TIP3    H238810   5.952   4.162   2.337  0.2171  0.3030 -0.3292
 5799TIP3   OH238811   4.250   1.578   1.010 -0.4775 -0.2616 -0.2531
 5799TIP3    H138812   4.206   1.648   1.059 -0.4623  0.5409 -1.3604
 5799TIP3    H238813   4.227   1.594   0.919 -0.4645 -1.7186 -0.5240
 5800TIP3   OH238814   0.698   2.979   2.806  0.0357  0.3112  0.8164
 5800TIP3    H138815   0.654   3.040   2.747  0.0679  1.9606  2.4752
 5800TIP3    H238816   0.628   2.924   2.840 -0.0278 -0.4381 -0.4645
 5801TIP3   OH238817   0.121   5.014   6.253  0.0848  0.5030  0.3799
 5801TIP3    H138818   0.119   4.952   6.326  2.6270 -0.4560 -0.3477
 5801TIP3    H238819   0.091   4.963   6.178 -0.1556  0.8324  0.2506
 5802TIP3   OH238820   6.653   1.336   3.515  0.4485  0.1356 -0.0914
 5802TIP3    H138821   6.624   1.337   3.424  0.5509  1.0723 -0.1198
 5802TIP3    H238822   6.674   1.428   3.535  0.1103 -0.0023  0.9687
 5803TIP3   OH238823   6.295   3.915   4.912 -0.4368  0.2958  0.2929
 5803TIP3    H138824   6.298   3.887   4.820 -0.6062  0.9914  0.0708
 5803TIP3    H238825   6.201   3.913   4.933 -0.5237  1.3950  0.0494
 5804TIP3   OH238826   0.898   3.628  11.079 -0.1565 -0.1868  0.3237
 5804TIP3    H138827   0.878   3.614  11.172 -0.1332  1.7340  0.6348
 5804TIP3    H238828   0.906   3.723  11.070  1.8022 -0.4691 -1.2603
 5805TIP3   OH238829   0.975   5.136   3.968  0.5940 -0.0964  0.3424
 5805TIP3    H138830   0.927   5.078   3.909  0.3642 -0.5357  0.9517
 5805TIP3    H238831   0.941   5.223   3.949 -2.8032 -0.7484  2.9962
 5806TIP3   OH238832   3.774   4.622  12.759 -0.0017  0.0526 -0.0839
 5806TIP3    H138833   3.817   4.548  12.716  0.3694  1.0423 -1.4657
 5806TIP3    H238834   3.807   4.699  12.712 -1.6687  0.9746  0.2201
 5807TIP3   OH238835   1.974   5.618   0.670  0.3347  0.9277 -0.5597
 5807TIP3    H138836   1.963   5.713   0.664 -1.8213  0.7653  0.5391
 5807TIP3    H238837   1.974   5.599   0.764  0.7057 -0.1853 -0.7716
 5808TIP3   OH238838   0.915   0.521   3.337 -0.2150  0.2975 -0.3112
 5808TIP3    H138839   0.925   0.595   3.398  1.2574  0.0176 -0.2031
 5808TIP3    H238840   0.949   0.446   3.385 -1.2717 -0.3731 -0.6051
 5809TIP3   OH238841   5.730   0.725   5.198  0.4219 -0.9519  0.3092
 5809TIP3    H138842   5.772   0.719   5.283  0.4446 -1.2398  0.2771
 5809TIP3    H238843   5.795   0.768   5.142 -0.3782  1.2162  0.9658
 5810TIP3   OH238844   2.735   5.848   4.973 -1.1264  0.0779  0.8129
 5810TIP3    H138845   2.676   5.923   4.966  1.2836  1.8469 -1.6867
 5810TIP3    H238846   2.770   5.854   5.062 -1.1118  1.8355  0.7040
 5811TIP3   OH238847   6.179   3.933  16.812  0.4125 -0.7192 -0.4701
 5811TIP3    H138848   6.183   3.918  16.906 -0.1470  0.9010 -0.1787
 5811TIP3    H238849   6.085   3.934  16.792  0.4892  0.3817 -0.8003
 5812TIP3   OH238850   2.364   4.071  14.437  0.0657 -0.0906  0.1561
 5812TIP3    H138851   2.278   4.073  14.396  0.1506 -2.7558 -0.2673
 5812TIP3    H238852   2.346   4.057  14.530  0.0190  1.0234  0.3258
 5813TIP3   OH238853   2.211   2.005  11.265 -0.1101  0.2323  0.0441
 5813TIP3    H138854   2.178   1.919  11.289  1.2659  0.0981  1.5740
 5813TIP3    H238855   2.200   2.058  11.344 -0.5657  1.3420 -0.7538
 5814TIP3   OH238856   4.016   6.425  13.959 -0.1444 -0.5267  0.5813
 5814TIP3    H138857   4.081   6.490  13.932  0.3920 -0.2004  2.5768
 5814TIP3    H238858   3.945   6.434  13.895  0.6636  0.8649 -0.1405
 5815TIP3   OH238859   0.083   4.703  15.895  0.1785  0.2602 -0.5876
 5815TIP3    H138860   0.097   4.689  15.989  0.7812  0.6010 -0.6221
 5815TIP3    H238861   0.121   4.789  15.878 -1.1800  0.8090 -0.8824
 5816TIP3   OH238862   2.235   3.091   6.354 -0.4596 -0.4025 -0.2366
 5816TIP3    H138863   2.208   3.010   6.310 -0.2443 -1.3575  1.3663
 5816TIP3    H238864   2.311   3.066   6.406 -0.9050  0.6385  0.9341
 5817TIP3   OH238865   4.766   0.015  13.166  0.2658  0.2038  0.1085
 5817TIP3    H138866   4.755  -0.052  13.098  0.4129  0.3996 -0.1123
 5817TIP3    H238867   4.742   0.097  13.122  1.0398  0.4221  0.0777
 5818TIP3   OH238868   0.412   0.043   5.575 -0.0010 -0.0349  0.0796
 5818TIP3    H138869   0.456   0.110   5.522 -2.1561  0.4176 -1.1644
 5818TIP3    H238870   0.328   0.082   5.598 -1.5096 -2.4943 -1.0905
 5819TIP3   OH238871   2.467   4.515  15.920  0.4183 -0.1388 -0.0800
 5819TIP3    H138872   2.453   4.607  15.901  1.4694 -0.0515 -0.4896
 5819TIP3    H238873   2.500   4.478  15.838  0.6230 -0.7290  0.2638
 5820TIP3   OH238874   6.751   4.801  12.423  0.3202 -0.2841  0.6955
 5820TIP3    H138875   6.827   4.836  12.469  1.3735 -0.8008 -0.6014
 5820TIP3    H238876   6.787   4.765  12.342 -1.1897 -1.3263  0.4662
 5821TIP3   OH238877   5.370   5.311  16.056  0.7297  0.1573  0.3610
 5821TIP3    H138878   5.294   5.255  16.043  1.4820 -0.4597 -1.6389
 5821TIP3    H238879   5.422   5.267  16.123  0.0184 -0.1466  0.7219
 5822TIP3   OH238880   2.968   1.047  11.950  0.0042 -0.0844  0.3058
 5822TIP3    H138881   2.992   1.045  11.858  0.9733 -0.8419  0.5683
 5822TIP3    H238882   3.018   0.976  11.990 -2.2825 -1.3688  0.9730
 5823TIP3   OH238883   2.392   4.306   5.604 -0.0163  0.6009  0.2996
 5823TIP3    H138884   2.423   4.335   5.518  3.0076 -2.2349  0.3495
 5823TIP3    H238885   2.425   4.372   5.665  2.3341 -0.1240 -0.1586
 5824TIP3   OH238886   1.377   4.479  15.686  0.2919  0.0571  0.1014
 5824TIP3    H138887   1.305   4.458  15.745  0.6728 -0.2740  0.4486
 5824TIP3    H238888   1.359   4.429  15.606  0.8666 -1.0940  0.6927
 5825TIP3   OH238889   6.287   3.277  14.222 -0.4638  0.1970 -0.3140
 5825TIP3    H138890   6.218   3.329  14.263  0.5973  0.5067  1.1133
 5825TIP3    H238891   6.363   3.335  14.220  0.2476 -0.7210 -0.2597
 5826TIP3   OH238892   6.169   4.556   1.581 -0.1565 -0.1043 -0.5667
 5826TIP3    H138893   6.192   4.632   1.528  1.3776 -0.5784 -0.6161
 5826TIP3    H238894   6.084   4.577   1.619 -0.0513  1.3457 -1.1234
 5827TIP3   OH238895   5.874   4.801  12.428 -0.0340  0.8341  0.5531
 5827TIP3    H138896   5.919   4.716  12.429 -2.9377 -0.7533  1.1304
 5827TIP3    H238897   5.883   4.832  12.338 -2.8274 -2.2832 -0.8841
 5828TIP3   OH238898   5.924   1.444  13.989 -0.4633 -0.0012  0.6819
 5828TIP3    H138899   5.897   1.536  13.991 -1.3721 -0.1712 -1.8687
 5828TIP3    H238900   5.844   1.395  14.010 -1.0130 -0.3190 -1.9565
 5829TIP3   OH238901   3.131   2.819  15.342  0.2097 -0.1833 -0.2177
 5829TIP3    H138902   3.193   2.746  15.347  0.0971 -0.3024 -0.5593
 5829TIP3    H238903   3.046   2.780  15.363  0.1096 -0.2041 -0.6504
 5830TIP3   OH238904   3.023   3.390  14.846  0.2157 -0.1913  0.5055
 5830TIP3    H138905   2.935   3.373  14.880 -1.0817 -0.7792 -2.9896
 5830TIP3    H238906   3.061   3.303  14.833  0.7777  0.0362  0.6031
 5831TIP3   OH238907   5.546   3.074   4.926 -0.6055 -0.2648 -0.5326
 5831TIP3    H138908   5.615   3.009   4.934  0.8561  1.0471 -2.1157
 5831TIP3    H238909   5.466   3.023   4.912  0.0644 -1.7793  0.9805
 5832TIP3   OH238910   2.743   0.921   0.419 -0.2200 -0.0541 -0.0644
 5832TIP3    H138911   2.761   0.921   0.325 -0.2322  0.4352 -0.0658
 5832TIP3    H238912   2.805   0.984   0.456  0.2634 -0.7525  0.3498
 5833TIP3   OH238913   0.699   1.677   5.155  0.0642  0.3657  0.0615
 5833TIP3    H138914   0.682   1.754   5.210  0.3363  1.8728 -1.9040
 5833TIP3    H238915   0.612   1.645   5.131 -0.0494  0.0231  0.9076
 5834TIP3   OH238916   0.841   0.948  16.706 -0.3181 -0.2544 -0.7201
 5834TIP3    H138917   0.862   1.002  16.629  1.7511  0.8899  0.5880
 5834TIP3    H238918   0.856   0.858  16.677  3.2516  0.3280 -0.8776
 5835TIP3   OH238919   1.748   1.144   1.207 -0.2107  0.2618  0.2378
 5835TIP3    H138920   1.686   1.186   1.266  0.9045  0.9601  0.9225
 5835TIP3    H238921   1.729   1.051   1.214 -0.3786  0.3757  1.3676
 5836TIP3   OH238922   6.184   4.955   5.231 -0.0802  0.2551 -0.5525
 5836TIP3    H138923   6.127   4.895   5.280  0.4558  0.0651 -0.1642
 5836TIP3    H238924   6.130   5.033   5.217 -0.8382 -0.3682 -1.1908
 5837TIP3   OH238925   5.307   3.253   2.988 -0.0212  0.0627  0.3575
 5837TIP3    H138926   5.356   3.308   3.050  0.7651 -0.4090  0.1684
 5837TIP3    H238927   5.337   3.281   2.902 -0.4400  0.0926  0.2198
 5838TIP3   OH238928   2.040   3.756  15.311  0.1915  0.4221  0.1341
 5838TIP3    H138929   2.087   3.767  15.229  0.4223 -0.5452  0.1357
 5838TIP3    H238930   2.066   3.670  15.343 -2.0421 -0.4188 -0.1923
 5839TIP3   OH238931   2.373   4.837  14.988 -0.6300  0.1184 -0.3533
 5839TIP3    H138932   2.414   4.895  15.052  1.2679  0.5056 -1.8587
 5839TIP3    H238933   2.357   4.755  15.035  0.2895  0.5543  0.7230
 5840TIP3   OH238934   4.821   3.576  13.498 -0.5515 -0.0624 -0.4681
 5840TIP3    H138935   4.858   3.537  13.418  0.2016 -0.4343  0.0519
 5840TIP3    H238936   4.790   3.502  13.549 -0.9874  0.1727 -0.3918
 5841TIP3   OH238937   3.674   3.912   2.335 -0.6255 -0.0670 -0.3054
 5841TIP3    H138938   3.765   3.941   2.340 -0.3869 -1.1242  1.4860
 5841TIP3    H238939   3.624   3.993   2.329  0.3926  0.5321 -0.8999
 5842TIP3   OH238940   6.723   0.352  16.400  0.1551 -0.1855  0.6784
 5842TIP3    H138941   6.706   0.312  16.315 -1.2157  0.0870  0.8004
 5842TIP3    H238942   6.777   0.288  16.446  0.6215 -0.4819 -0.2760
 5843TIP3   OH238943   1.982   1.480  14.094 -0.2563 -0.4298 -0.6007
 5843TIP3    H138944   2.023   1.564  14.116  1.2447 -1.3793  0.2918
 5843TIP3    H238945   1.971   1.436  14.179 -2.8769 -0.3219 -0.8403
 5844TIP3   OH238946   3.327   5.065  10.607  0.4570  0.4278  0.7658
 5844TIP3    H138947   3.363   4.985  10.645 -0.7454  0.4844  2.0844
 5844TIP3    H238948   3.232   5.053  10.612  0.2664  1.1619 -0.7241
 5845TIP3   OH238949   1.608   6.200  11.022  0.0912 -0.2570  0.5849
 5845TIP3    H138950   1.628   6.284  11.063  0.3195 -0.1788  0.3177
 5845TIP3    H238951   1.514   6.203  11.006  0.2692  0.3958 -0.4071
 5846TIP3   OH238952   5.264   5.113   4.834  0.7081  0.2387 -0.1303
 5846TIP3    H138953   5.350   5.138   4.799  0.6856  0.1916 -0.2192
 5846TIP3    H238954   5.225   5.196   4.863  0.9392  0.2099  0.2645
 5847TIP3   OH238955   2.965   3.869  11.074 -0.1830  0.2841 -0.2422
 5847TIP3    H138956   3.004   3.929  11.010  1.1722 -0.5372 -0.2249
 5847TIP3    H238957   2.972   3.783  11.032 -0.2781 -0.1166  0.5620
 5848TIP3   OH238958   2.677   4.693  13.321 -0.0383  0.2254 -0.8037
 5848TIP3    H138959   2.652   4.756  13.254  0.4305 -0.7594 -1.9225
 5848TIP3    H238960   2.757   4.653  13.289  0.0358 -0.4714  0.2052
 5849TIP3   OH238961   6.506   5.186   3.923  0.2091  0.4896  0.3840
 5849TIP3    H138962   6.446   5.135   3.977  0.2343 -1.0461 -1.0025
 5849TIP3    H238963   6.461   5.270   3.912 -0.2562  0.4695  1.9228
 5850TIP3   OH238964   4.498   5.035   6.317 -0.3613  0.3450  0.3561
 5850TIP3    H138965   4.433   5.084   6.267 -1.0851 -0.9337  0.0038
 5850TIP3    H238966   4.453   5.010   6.397  0.4753  1.5121  1.2100
 5851TIP3   OH238967   3.549   4.254   3.485  0.0101 -0.1416  0.9968
 5851TIP3    H138968   3.494   4.289   3.555  0.7178 -0.2202  1.5908
 5851TIP3    H238969   3.623   4.213   3.530  0.2841 -0.5089  0.2201
 5852TIP3   OH238970   0.385   3.209  12.957 -0.4556  0.3247 -0.2478
 5852TIP3    H138971   0.385   3.290  13.006 -0.7217 -1.0785  2.1467
 5852TIP3    H238972   0.352   3.143  13.018  0.2704 -1.6942 -1.9401
 5853TIP3   OH238973   2.045   6.412  13.135  0.0419  0.1024  0.5480
 5853TIP3    H138974   2.041   6.472  13.061  1.4742 -0.9831 -0.4338
 5853TIP3    H238975   1.963   6.426  13.182  0.1927  2.5646  0.1538
 5854TIP3   OH238976   3.443   0.259   1.743  0.0470  0.0856 -0.0932
 5854TIP3    H138977   3.413   0.286   1.829 -0.0118 -0.4470  0.0555
 5854TIP3    H238978   3.389   0.308   1.681 -2.0254 -1.8088  0.1604
 5855TIP3   OH238979   3.958   2.732  11.251  0.4263  0.0480 -0.9710
 5855TIP3    H138980   3.902   2.661  11.219 -1.8966  0.0865  2.7715
 5855TIP3    H238981   4.024   2.687  11.305  0.8101  0.4913 -1.0674
 5856TIP3   OH238982   4.567   5.044   5.134  0.3730 -0.2767  0.4702
 5856TIP3    H138983   4.608   5.017   5.052 -0.0669  1.1421 -0.2423
 5856TIP3    H238984   4.495   4.982   5.147  1.8385 -1.8902  0.9718
 5857TIP3   OH238985   1.088   0.256  12.862  0.1860 -0.3542  0.6490
 5857TIP3    H138986   1.126   0.188  12.806 -1.2157  0.1160 -0.8969
 5857TIP3    H238987   1.083   0.333  12.805  1.0077  0.8366  2.1484
 5858TIP3   OH238988   5.894   3.913  13.158 -0.0655  0.6073 -0.6446
 5858TIP3    H138989   5.847   3.878  13.233 -1.0854 -0.4982 -1.7867
 5858TIP3    H238990   5.986   3.895  13.177 -0.4369 -1.0672 -0.3845
 5859TIP3   OH238991   6.648   3.335  17.075  0.0323  0.2641 -0.0013
 5859TIP3    H138992   6.573   3.276  17.074  0.1807  0.0651  0.5747
 5859TIP3    H238993   6.621   3.410  17.022 -0.4253  0.0129 -0.1238
 5860TIP3   OH238994   2.811   3.026  15.917  0.5679 -0.1001 -0.2883
 5860TIP3    H138995   2.798   3.082  15.994  1.2261 -1.6040  0.9394
 5860TIP3    H238996   2.874   3.074  15.863  0.4959  0.7245  0.3415
 5861TIP3   OH238997   5.514   4.274   2.364  0.3994  0.0756  0.1985
 5861TIP3    H138998   5.506   4.349   2.424  2.4254 -0.3842  1.0916
 5861TIP3    H238999   5.490   4.198   2.417 -2.3199  0.1225 -0.8952
 5862TIP3   OH239000   2.966   1.641  16.535  0.6389  0.1189  0.3996
 5862TIP3    H139001   2.887   1.592  16.557 -0.4302  1.9795  0.8732
 5862TIP3    H239002   3.021   1.579  16.488 -0.4326 -1.6694  1.4278
 5863TIP3   OH239003   6.683   1.083  10.984 -0.5535 -0.1688  0.3079
 5863TIP3    H139004   6.766   1.081  11.031 -1.0138  0.5802  1.1576
 5863TIP3    H239005   6.703   1.127  10.901 -0.2227  0.4966  0.7391
 5864TIP3   OH239006   2.453   4.803  16.635 -0.2978 -0.0848  0.0138
 5864TIP3    H139007   2.445   4.897  16.622  1.1829  0.1188  0.4932
 5864TIP3    H239008   2.541   4.781  16.605 -0.5989 -1.3040 -0.0333
 5865TIP3   OH239009   1.418   1.927  16.440 -0.4475 -0.2837 -0.2640
 5865TIP3    H139010   1.457   1.880  16.514  1.6832 -0.0870 -1.2315
 5865TIP3    H239011   1.367   1.997  16.481  1.9488  0.7716  1.0269
 5866TIP3   OH239012   4.049   5.234  11.570  0.1966 -0.2975  0.1245
 5866TIP3    H139013   4.137   5.246  11.536 -0.2081  0.9302 -0.5573
 5866TIP3    H239014   4.029   5.317  11.613 -1.2005  0.0195 -1.0949
 5867TIP3   OH239015   4.815   0.171   0.342 -0.1217 -0.2391 -0.2314
 5867TIP3    H139016   4.775   0.166   0.429 -0.3855  1.8735 -0.1872
 5867TIP3    H239017   4.783   0.094   0.296 -0.4982 -1.0405  1.3317
 5868TIP3   OH239018   2.048   3.737  13.068  0.1430  0.5011  0.5939
 5868TIP3    H139019   2.026   3.650  13.102  1.1200  0.2636  0.6270
 5868TIP3    H239020   2.064   3.790  13.146  1.0120  0.3202  0.5401
 5869TIP3   OH239021   3.509   3.713  14.119 -0.0144 -0.0333  0.0886
 5869TIP3    H139022   3.449   3.735  14.048 -0.7302 -1.7541  0.1362
 5869TIP3    H239023   3.556   3.794  14.137 -1.4927  1.0347 -0.7551
 5870TIP3   OH239024   6.104   3.013  15.589  0.9416  0.1018 -0.1248
 5870TIP3    H139025   6.170   3.001  15.657  0.0003  0.1045  0.8002
 5870TIP3    H239026   6.093   3.108  15.582  2.0370  0.1509 -1.2609
 5871TIP3   OH239027   1.838   5.747  16.709 -0.0965  0.2479  0.5253
 5871TIP3    H139028   1.824   5.684  16.638 -1.3319  2.4340 -1.2304
 5871TIP3    H239029   1.924   5.784  16.690 -1.3594  2.4325 -1.1746
 5872TIP3   OH239030   0.751   4.536   3.456  0.1263 -0.4310 -0.2811
 5872TIP3    H139031   0.679   4.566   3.400 -0.8650 -0.5141  0.9462
 5872TIP3    H239032   0.727   4.447   3.481 -0.1726  0.1420  1.5025
 5873TIP3   OH239033   3.944   1.430  12.350 -1.0635 -0.4434 -0.4500
 5873TIP3    H139034   3.900   1.485  12.285 -2.3765 -0.7499  0.1644
 5873TIP3    H239035   4.005   1.490  12.394 -2.5509  0.5868  0.2771
 5874TIP3   OH239036   0.296   2.297  15.456 -0.6431  0.5890 -0.1518
 5874TIP3    H139037   0.330   2.359  15.391 -0.0620  1.8463  1.2964
 5874TIP3    H239038   0.235   2.349  15.508 -2.2285 -0.7923 -0.6080
 5875TIP3   OH239039   5.103   3.717  13.272  0.0455  0.3764 -0.6564
 5875TIP3    H139040   5.156   3.641  13.297 -1.2391 -0.0929  0.7193
 5875TIP3    H239041   5.056   3.688  13.193 -1.1956 -0.6197  0.4364
 5876TIP3   OH239042   5.459   5.591   0.949 -0.7307  0.0606  0.7203
 5876TIP3    H139043   5.368   5.591   0.978 -0.9605 -0.0119  0.0066
 5876TIP3    H239044   5.472   5.504   0.912  0.0431 -0.4171  2.0924
 5877TIP3   OH239045   2.906   2.340   4.250 -0.4971 -0.4893  0.6641
 5877TIP3    H139046   2.938   2.393   4.176 -0.6109  1.4950  1.9992
 5877TIP3    H239047   2.883   2.256   4.211 -1.9159  0.9984 -1.8454
 5878TIP3   OH239048   6.348   1.708  11.960  0.1003  0.1499 -0.4324
 5878TIP3    H139049   6.419   1.708  12.024  0.4411  0.7543 -0.8109
 5878TIP3    H239050   6.391   1.729  11.877 -0.2716 -1.0531 -0.9346
 5879TIP3   OH239051   3.158   5.852   1.828 -0.4723  0.2070  0.0681
 5879TIP3    H139052   3.248   5.874   1.805 -0.1383 -1.7490 -0.6275
 5879TIP3    H239053   3.121   5.933   1.862  0.4112  2.0287 -3.1178
 5880TIP3   OH239054   4.635   3.161   5.850  0.2319  0.1023  0.2662
 5880TIP3    H139055   4.662   3.195   5.935  0.2552  1.9749 -0.4483
 5880TIP3    H239056   4.540   3.148   5.858  0.5299 -1.6365  1.1800
 5881TIP3   OH239057   4.898   1.814   3.505  0.1813  0.0156  0.0003
 5881TIP3    H139058   4.924   1.875   3.437  0.3212  0.1095  0.1366
 5881TIP3    H239059   4.880   1.870   3.581  1.1827 -0.1804  0.3957
 5882TIP3   OH239060   6.348   3.650  11.530  0.2070  0.4356  0.2096
 5882TIP3    H139061   6.399   3.717  11.576 -1.0995  0.4838  1.6414
 5882TIP3    H239062   6.362   3.570  11.580 -0.9053  0.3902  0.4527
 5883TIP3   OH239063   2.278   2.314   4.669  0.3125  0.4114  0.6337
 5883TIP3    H139064   2.314   2.305   4.757  1.5968 -0.7541  0.0251
 5883TIP3    H239065   2.229   2.396   4.670  1.5037  1.1138  2.0226
 5884TIP3   OH239066   2.621   2.617   1.117 -0.0545 -0.4395 -0.2050
 5884TIP3    H139067   2.669   2.689   1.157  1.5595 -1.4239 -0.3397
 5884TIP3    H239068   2.668   2.538   1.143  0.1089 -1.2236 -2.7189
 5885TIP3   OH239069   2.474   6.278   1.372  0.7543  0.0856  0.1356
 5885TIP3    H139070   2.477   6.217   1.298 -2.8570 -0.3901  0.3264
 5885TIP3    H239071   2.403   6.339   1.350  1.7525  1.8982  1.7681
 5886TIP3   OH239072   4.810   2.115   5.819 -0.0723  0.0353 -0.0802
 5886TIP3    H139073   4.809   2.087   5.911 -1.7274 -0.0451 -0.1010
 5886TIP3    H239074   4.863   2.195   5.819 -0.2034  0.1358  0.9906
 5887TIP3   OH239075   0.566   1.241   4.000  0.2947 -0.0716  0.5115
 5887TIP3    H139076   0.608   1.279   4.077  3.2576  0.1522 -1.1196
 5887TIP3    H239077   0.554   1.149   4.022  0.7935  0.0645  1.3769
 5888TIP3   OH239078   5.388   3.279   4.065  0.6936  0.3218 -0.1783
 5888TIP3    H139079   5.331   3.348   4.099 -1.2372 -1.7481  0.9818
 5888TIP3    H239080   5.397   3.299   3.972 -2.7678  0.1948 -0.6032
 5889TIP3   OH239081   2.406   3.295   1.193 -0.9817 -0.2324  0.3613
 5889TIP3    H139082   2.439   3.364   1.250 -1.9556  0.4545  0.0876
 5889TIP3    H239083   2.438   3.318   1.105  1.0938 -1.6485  0.7038
 5890TIP3   OH239084   6.578   2.033   1.690 -0.0419  0.1703 -0.1470
 5890TIP3    H139085   6.485   2.009   1.693 -0.1095  0.5097  0.5045
 5890TIP3    H239086   6.583   2.116   1.737  0.3634  0.9193 -1.4725
 5891TIP3   OH239087   0.371   4.757  11.614  0.2763  0.4390  0.1306
 5891TIP3    H139088   0.418   4.728  11.536 -1.1051 -0.5579 -0.3586
 5891TIP3    H239089   0.322   4.834  11.585  0.5632  0.6727  0.2750
 5892TIP3   OH239090   2.178   5.043   1.838  0.2113 -0.4127  0.1516
 5892TIP3    H139091   2.098   5.096   1.849  0.7031  0.4036 -0.2088
 5892TIP3    H239092   2.247   5.107   1.820  0.5703 -1.2811 -1.5895
 5893TIP3   OH239093   3.493   3.777   3.915  0.2014  0.3758  0.4882
 5893TIP3    H139094   3.587   3.766   3.904 -0.0331  0.1164 -1.4621
 5893TIP3    H239095   3.458   3.688   3.912 -0.1265  0.4758  1.1523
 5894TIP3   OH239096   4.353   2.346   2.545 -0.4946 -0.2846 -0.0662
 5894TIP3    H139097   4.295   2.393   2.605 -0.9694 -0.6514 -0.2303
 5894TIP3    H239098   4.363   2.405   2.470  1.7710  1.0555  1.2636
 5895TIP3   OH239099   1.505   2.981   1.441 -0.1875  0.0269 -0.4271
 5895TIP3    H139100   1.496   3.073   1.467 -1.0775  0.1530 -1.1830
 5895TIP3    H239101   1.525   2.935   1.523  3.7932  1.3638 -0.5390
 5896TIP3   OH239102   5.345   6.784   6.510 -0.6440 -0.5997  0.6396
 5896TIP3    H139103   5.436   6.782   6.478 -0.6549  1.5452  0.4544
 5896TIP3    H239104   5.324   6.691   6.524  0.8221 -1.3002 -1.4207
 5897TIP3   OH239105   1.449   0.622   5.481  0.6515 -0.6877 -0.2922
 5897TIP3    H139106   1.484   0.576   5.404 -0.6848 -0.3760 -1.1017
 5897TIP3    H239107   1.405   0.553   5.531 -0.0224 -0.5678 -0.7195
 5898TIP3   OH239108   6.193   0.648  14.686 -0.3189  0.6833  0.6376
 5898TIP3    H139109   6.156   0.707  14.621 -0.7710 -0.2536  0.0326
 5898TIP3    H239110   6.121   0.627  14.744 -0.3333  0.1799  0.4418
 5899TIP3   OH239111   1.665   6.477  11.104 -0.2577  0.1723 -0.1451
 5899TIP3    H139112   1.675   6.556  11.158 -0.4307  0.7629 -0.9720
 5899TIP3    H239113   1.578   6.444  11.125  0.1710 -0.3141  0.8852
 5900TIP3   OH239114   2.812   1.127   4.024 -0.1285  0.4075 -0.2017
 5900TIP3    H139115   2.787   1.187   4.094  1.1551  0.1090  0.5244
 5900TIP3    H239116   2.893   1.086   4.055 -0.5219 -1.0626 -1.0666
 5901TIP3   OH239117   3.732   4.130   3.637  0.0479  0.1894  0.0630
 5901TIP3    H139118   3.653   4.085   3.666 -0.2200  0.2632 -0.5603
 5901TIP3    H239119   3.801   4.064   3.644 -0.3552 -0.3320 -0.9215
 5902TIP3   OH239120   3.570   5.713  12.667  1.0560 -0.2220  0.0766
 5902TIP3    H139121   3.653   5.703  12.621  1.0014  1.1702 -0.3537
 5902TIP3    H239122   3.540   5.801  12.642  0.5406  0.1583  1.9850
 5903TIP3   OH239123   6.399   5.128   0.752 -0.3275 -0.1172 -0.2334
 5903TIP3    H139124   6.405   5.133   0.847  2.5211 -0.2656 -0.3687
 5903TIP3    H239125   6.402   5.220   0.723 -1.0376 -0.0801 -0.1978
 5904TIP3   OH239126   6.165   6.348  17.045  0.6304  0.2919  0.5121
 5904TIP3    H139127   6.178   6.419  17.108  0.8147  1.1181 -0.4441
 5904TIP3    H239128   6.072   6.328  17.051  0.7273  0.0582  1.3599
 5905TIP3   OH239129   3.638   2.848  17.131 -0.1879  0.0522 -0.0018
 5905TIP3    H139130   3.596   2.773  17.173 -0.1022  0.3003  0.5253
 5905TIP3    H239131   3.574   2.919  17.139 -0.7119 -0.2286 -1.4350
 5906TIP3   OH239132   0.055   6.733  16.361 -0.0436 -0.0659 -0.1616
 5906TIP3    H139133   0.077   6.640  16.369  1.3285  0.3275  0.7674
 5906TIP3    H239134  -0.036   6.738  16.390  0.2650 -0.9241  1.0020
 5907TIP3   OH239135   4.388   2.357  11.048 -0.5612  0.8204  0.3477
 5907TIP3    H139136   4.316   2.396  11.097 -0.8768 -1.0379  1.3765
 5907TIP3    H239137   4.377   2.263  11.058  0.1678  0.4203 -2.1527
 5908TIP3   OH239138   0.450   4.903   5.048 -0.3107 -0.1043  0.4761
 5908TIP3    H139139   0.498   4.941   5.121 -0.8143  1.7668 -0.1435
 5908TIP3    H239140   0.360   4.895   5.080 -0.1579 -1.0231  0.6882
 5909TIP3   OH239141   5.076   1.938  14.792 -0.4270  1.2537 -0.1678
 5909TIP3    H139142   4.992   1.911  14.831 -0.8792 -0.0662 -1.9883
 5909TIP3    H239143   5.061   1.932  14.698  2.6927 -2.1224 -0.5293
 5910TIP3   OH239144   5.406   6.616   5.517  0.2048  0.2450 -0.1020
 5910TIP3    H139145   5.430   6.703   5.485  3.1780  0.2962  2.0730
 5910TIP3    H239146   5.353   6.633   5.595 -1.6795  0.0589 -1.2900
 5911TIP3   OH239147   2.020   5.794  15.737 -0.8549 -0.0680 -0.0618
 5911TIP3    H139148   2.018   5.702  15.710 -1.7864  0.0577 -0.4448
 5911TIP3    H239149   2.029   5.791  15.832 -1.6084 -0.5720 -0.0006
 5912TIP3   OH239150   0.935   5.352   1.219 -0.0590 -0.8809 -0.2530
 5912TIP3    H139151   0.878   5.376   1.147 -1.4499 -0.8265  0.8453
 5912TIP3    H239152   1.021   5.337   1.179 -0.6759 -0.2498 -1.8070
 5913TIP3   OH239153   5.697   3.462   5.202  0.7830 -0.2699 -0.0789
 5913TIP3    H139154   5.631   3.393   5.198 -0.5075  0.9518 -0.3203
 5913TIP3    H239155   5.779   3.419   5.177  0.2569 -2.0165  1.1210
 5914TIP3   OH239156   4.279   2.325   4.899  0.4099  0.0698 -0.2929
 5914TIP3    H139157   4.274   2.234   4.870 -1.6400 -0.4815  1.6360
 5914TIP3    H239158   4.352   2.362   4.849  1.2946 -2.6198 -1.0935
 5915TIP3   OH239159   4.196   2.086   3.837  0.6026 -0.0866  0.3940
 5915TIP3    H139160   4.161   2.153   3.778  0.8997 -0.6530 -0.4312
 5915TIP3    H239161   4.265   2.131   3.886 -0.2299  0.6183  0.9249
 5916TIP3   OH239162   2.002   3.889  11.943 -0.0479  0.3350 -0.5136
 5916TIP3    H139163   2.046   3.968  11.912  1.0617 -0.7293 -1.7354
 5916TIP3    H239164   2.044   3.869  12.026  0.2162  0.5813 -0.5883
 5917TIP3   OH239165   0.914   4.100  14.475 -0.3696  0.1117 -0.4596
 5917TIP3    H139166   0.996   4.089  14.522  0.2136  1.2434 -1.1920
 5917TIP3    H239167   0.879   4.012  14.465 -0.0316 -0.2342  1.2514
 5918TIP3   OH239168   1.423   4.874   3.644  0.3587 -0.5972 -0.5651
 5918TIP3    H139169   1.334   4.854   3.615  0.7542 -2.9007 -0.3493
 5918TIP3    H239170   1.437   4.816   3.719  1.7461  0.3584 -0.0715
 5919TIP3   OH239171   1.007   4.721   5.761 -0.1758  0.2905 -0.1995
 5919TIP3    H139172   0.982   4.647   5.817  0.4917  2.2574  2.8543
 5919TIP3    H239173   0.950   4.713   5.685  0.2934 -3.6890 -0.2858
 5920TIP3   OH239174   2.677   4.193  13.643 -0.0717 -0.0449 -0.0368
 5920TIP3    H139175   2.654   4.175  13.734  0.7118 -2.9308 -0.3704
 5920TIP3    H239176   2.722   4.277  13.646  3.2344 -1.7881  2.8143
 5921TIP3   OH239177   2.307   4.162  13.367 -0.6676 -0.3114 -0.1798
 5921TIP3    H139178   2.277   4.111  13.443  1.9622 -3.6163 -1.2280
 5921TIP3    H239179   2.400   4.177  13.384 -0.2693 -0.2377 -2.2837
 5922TIP3   OH239180   4.218   5.288   2.969 -0.2917 -0.0237 -0.0141
 5922TIP3    H139181   4.206   5.219   3.034 -0.7739 -0.0223 -0.1041
 5922TIP3    H239182   4.184   5.367   3.010  0.3386  0.1848  0.1223
 5923TIP3   OH239183   3.743   5.945   0.310 -0.0883 -0.1089 -0.2348
 5923TIP3    H139184   3.739   5.862   0.264  0.3596  0.9075 -2.1482
 5923TIP3    H239185   3.818   5.991   0.271 -0.0344  0.9940  1.1250
 5924TIP3   OH239186   0.668   4.077  15.748 -0.8462  0.3026  0.9420
 5924TIP3    H139187   0.620   4.103  15.826  0.7527  0.8267  1.7673
 5924TIP3    H239188   0.663   3.982  15.747 -0.8602  0.2927  1.7040
 5925TIP3   OH239189   3.331   5.989  16.007  0.4930  0.7919 -0.0140
 5925TIP3    H139190   3.376   5.911  15.976 -1.1334  0.1363 -0.7852
 5925TIP3    H239191   3.303   5.967  16.096  0.3164  0.6203 -0.1128
 5926TIP3   OH239192   5.018   6.215  14.343  0.0509  0.0597 -0.1900
 5926TIP3    H139193   4.954   6.251  14.405  0.0204 -0.5087  0.1119
 5926TIP3    H239194   4.970   6.207  14.261 -1.7306 -4.7905  1.1297
 5927TIP3   OH239195   3.343   1.098  15.081  0.4035 -0.0367  0.3298
 5927TIP3    H139196   3.259   1.107  15.037  0.2975 -0.2979  0.4765
 5927TIP3    H239197   3.326   1.127  15.171  0.3441 -0.5610  0.4928
 5928TIP3   OH239198   5.338   3.733  13.692 -0.8614 -0.0813  0.1057
 5928TIP3    H139199   5.398   3.803  13.719  0.5860 -0.6895 -1.4708
 5928TIP3    H239200   5.268   3.736  13.757  0.6721  0.8886  1.7738
 5929TIP3   OH239201   5.505   1.609   4.938 -0.6316 -0.6082  0.3030
 5929TIP3    H139202   5.465   1.582   5.021  0.0177 -1.9301  0.2040
 5929TIP3    H239203   5.450   1.681   4.907 -0.6602  0.1722  2.0779
 5930TIP3   OH239204   5.734   3.834   2.284  0.4895 -0.0567  0.7264
 5930TIP3    H139205   5.799   3.781   2.239  1.2066  1.0051  0.4823
 5930TIP3    H239206   5.721   3.910   2.226  0.6540  0.8145  1.8169
 5931TIP3   OH239207   1.692   6.246   6.211 -0.4598  0.0616 -0.1771
 5931TIP3    H139208   1.609   6.203   6.193  0.0787 -2.1273  2.3466
 5931TIP3    H239209   1.758   6.194   6.165  0.0618 -1.1837  1.9298
 5932TIP3   OH239210   3.851   1.026   5.031  0.5581  0.0454 -0.1231
 5932TIP3    H139211   3.931   1.065   4.995  0.8005  0.0655  0.4464
 5932TIP3    H239212   3.864   1.025   5.125 -0.8508  1.7513  0.1415
 5933TIP3   OH239213   1.069   1.756   1.612 -0.0906  0.2886  0.1178
 5933TIP3    H139214   0.983   1.798   1.610 -0.5193 -0.6313 -0.9596
 5933TIP3    H239215   1.131   1.827   1.594 -0.5164  1.1793  2.0232
 5934TIP3   OH239216   1.776   4.020   5.202 -0.1887 -0.2898 -0.3326
 5934TIP3    H139217   1.744   4.055   5.119 -0.7876  0.5788  0.2655
 5934TIP3    H239218   1.851   3.965   5.177 -2.4330 -2.7739 -1.7732
 5935TIP3   OH239219   3.096   0.109  13.676  0.1611 -0.0415  0.2166
 5935TIP3    H139220   3.106   0.199  13.707  0.1607 -0.4400  1.3879
 5935TIP3    H239221   3.147   0.056  13.737  1.0760 -0.7211 -1.1281
 5936TIP3   OH239222   6.500   5.284   3.150 -0.3250 -0.2519 -0.1441
 5936TIP3    H139223   6.573   5.250   3.201  0.3860 -0.4479 -1.2749
 5936TIP3    H239224   6.541   5.322   3.072 -1.3578  0.4373 -0.3578
 5937TIP3   OH239225   1.628   4.005  12.154 -0.1416 -0.0061  0.3433
 5937TIP3    H139226   1.611   3.927  12.207  0.7746 -0.3550  0.1346
 5937TIP3    H239227   1.695   3.976  12.091  1.2339  1.3385  1.1587
 5938TIP3   OH239228   6.613   2.073   2.060 -0.1477 -0.2535 -0.2389
 5938TIP3    H139229   6.691   2.036   2.102  0.6780 -1.3788 -2.7139
 5938TIP3    H239230   6.539   2.034   2.108  0.7848 -1.4300  0.2535
 5939TIP3   OH239231   5.634   2.139  16.914 -0.8965  0.3718  0.6125
 5939TIP3    H139232   5.596   2.052  16.925 -0.8337  0.3909  0.9860
 5939TIP3    H239233   5.728   2.124  16.904 -0.7696  0.4581  1.6017
 5940TIP3   OH239234   4.720   5.578   0.621  0.2776  0.3401 -0.2563
 5940TIP3    H139235   4.666   5.641   0.669 -1.7526 -1.1980 -0.4559
 5940TIP3    H239236   4.676   5.494   0.634  1.9346 -0.7499 -1.4924
 5941TIP3   OH239237   0.752   1.064  11.275 -0.1067  0.2174  0.0056
 5941TIP3    H139238   0.679   1.090  11.330 -0.8855  1.7030 -1.6858
 5941TIP3    H239239   0.824   1.122  11.301 -0.8041  1.6891 -1.2978
 5942TIP3   OH239240   6.479   4.657  16.619 -0.4395 -0.1588 -0.6292
 5942TIP3    H139241   6.514   4.705  16.694  0.7360 -0.8221 -0.7458
 5942TIP3    H239242   6.424   4.589  16.657 -0.4137 -0.0485 -0.3952
 5943TIP3   OH239243   2.434   2.067   5.597  0.5756  0.1924  0.2802
 5943TIP3    H139244   2.493   2.142   5.591  0.5394  0.1190 -1.1746
 5943TIP3    H239245   2.348   2.105   5.614  1.0716  0.2769  2.8553
 5944TIP3   OH239246   4.870   3.793   5.765  0.4841 -0.4714  0.3452
 5944TIP3    H139247   4.948   3.753   5.725 -0.1463 -0.8374 -0.5134
 5944TIP3    H239248   4.798   3.736   5.740 -0.5458  1.5481 -1.5127
 5945TIP3   OH239249   6.197   3.170  15.234 -0.4165 -0.1834  0.0260
 5945TIP3    H139250   6.229   3.199  15.319  2.3339 -0.4569 -0.8804
 5945TIP3    H239251   6.228   3.236  15.172  1.2758 -2.1865 -1.3299
 5946TIP3   OH239252   5.825   1.197  14.415 -0.3627 -1.3262  0.1481
 5946TIP3    H139253   5.913   1.222  14.443 -1.0348 -1.3181  2.3597
 5946TIP3    H239254   5.838   1.114  14.367  0.8508 -1.2595  0.3414
 5947TIP3   OH239255   5.916   5.890  16.976 -0.1355 -0.7409 -0.0128
 5947TIP3    H139256   5.982   5.900  16.908 -0.9776  0.3764 -0.6754
 5947TIP3    H239257   5.927   5.967  17.032  0.4677 -1.5844  1.0705
 5948TIP3   OH239258   2.970   2.375   0.410  0.2676  0.0565 -0.4618
 5948TIP3    H139259   3.044   2.435   0.405  1.0097 -0.7389  0.7591
 5948TIP3    H239260   2.993   2.303   0.351 -0.5646  0.8798 -1.8265
 5949TIP3   OH239261   5.588   4.863  14.005 -0.3619 -0.3137 -0.5712
 5949TIP3    H139262   5.497   4.888  14.023 -0.7740 -2.2746  0.1498
 5949TIP3    H239263   5.585   4.769  13.989  1.9816 -0.9851  2.4981
 5950TIP3   OH239264   5.406   4.519   2.470  0.2939  0.0001 -0.4482
 5950TIP3    H139265   5.399   4.606   2.508  0.2581  0.5600 -1.7282
 5950TIP3    H239266   5.406   4.533   2.375  1.3290 -1.3070 -0.6596
 5951TIP3   OH239267   4.009   4.109   3.984 -0.0125 -0.5502 -0.1367
 5951TIP3    H139268   3.935   4.134   4.039  0.2577  0.0831 -0.0581
 5951TIP3    H239269   4.015   4.178   3.919  0.0478 -0.9841 -0.5968
 5952TIP3   OH239270   4.432   4.478   4.501 -0.7028  0.4876  0.2785
 5952TIP3    H139271   4.349   4.483   4.453 -0.2145 -1.2699 -0.7815
 5952TIP3    H239272   4.413   4.520   4.585 -2.4792  0.7200 -0.2119
 5953TIP3   OH239273   0.862   2.295   4.971 -0.3668  0.0519  0.3184
 5953TIP3    H139274   0.958   2.289   4.971 -0.2189  2.0291  2.4178
 5953TIP3    H239275   0.833   2.209   4.940  2.0641 -0.8307  0.3812
 5954TIP3   OH239276   5.111   0.322  12.567 -0.1609 -0.0216  0.1374
 5954TIP3    H139277   5.164   0.359  12.496 -0.2649  0.1382  0.1408
 5954TIP3    H239278   5.031   0.293  12.524 -0.7090  1.1154  0.3537
 5955TIP3   OH239279   1.641   1.070  16.933  0.0313  0.0240  0.5579
 5955TIP3    H139280   1.584   1.051  16.858  1.9544  0.5003 -1.0862
 5955TIP3    H239281   1.711   1.123  16.896  1.5623 -0.5913  2.5035
 5956TIP3   OH239282   4.497   3.033  14.941 -0.2599  0.2271  0.0313
 5956TIP3    H139283   4.562   3.072  15.000  0.7003 -0.2680 -0.6837
 5956TIP3    H239284   4.515   3.074  14.856 -1.0816  0.3016 -0.1071
 5957TIP3   OH239285   5.444   0.860   5.778  0.2496  0.3414 -0.1077
 5957TIP3    H139286   5.431   0.820   5.691 -0.8201 -0.0493  0.2163
 5957TIP3    H239287   5.539   0.869   5.786  0.3549  0.5438 -1.3928
 5958TIP3   OH239288   6.062   2.813  17.128 -0.6047 -0.1771  0.7165
 5958TIP3    H139289   6.087   2.820  17.036  2.3500  1.0179  1.5792
 5958TIP3    H239290   5.988   2.873  17.137 -0.9413 -0.3325 -0.8822
 5959TIP3   OH239291   6.028   1.752   1.860  0.2750  0.3278  0.3740
 5959TIP3    H139292   5.965   1.813   1.897  1.3917  2.4250 -1.0613
 5959TIP3    H239293   6.110   1.772   1.904  0.6247 -0.2481 -0.0009
 5960TIP3   OH239294   0.764   1.156   2.372 -0.2641 -0.3674 -0.8027
 5960TIP3    H139295   0.681   1.186   2.408 -0.1263 -0.9661  0.0102
 5960TIP3    H239296   0.798   1.232   2.325 -0.6887  0.2581 -0.1096
 5961TIP3   OH239297   4.852   3.997   2.165  0.0309 -0.1967 -0.0551
 5961TIP3    H139298   4.918   4.055   2.203  1.3444 -1.1094 -0.8679
 5961TIP3    H239299   4.900   3.948   2.098 -1.1238 -1.9606  0.3732
 5962TIP3   OH239300   1.515   3.057   0.921  0.5637  1.2052 -0.3397
 5962TIP3    H139301   1.538   3.141   0.881 -0.3104  2.3461  1.4702
 5962TIP3    H239302   1.548   3.063   1.011 -1.0348  0.3213  0.3364
 5963TIP3   OH239303   4.694   0.127   5.375  0.1333 -0.1009  0.3841
 5963TIP3    H139304   4.613   0.110   5.422  0.0626 -1.0180 -0.0574
 5963TIP3    H239305   4.666   0.147   5.285  0.2390  2.0164  0.7952
 5964TIP3   OH239306   4.773   0.662   2.921 -0.3100 -0.1215 -0.4259
 5964TIP3    H139307   4.799   0.587   2.867 -0.4649 -0.9248  0.5978
 5964TIP3    H239308   4.821   0.736   2.883 -0.7745 -0.5736 -1.9476
 5965TIP3   OH239309   1.248   1.591  13.581 -0.1645  0.0170 -0.1580
 5965TIP3    H139310   1.312   1.659  13.561  1.6278 -1.7220 -0.5009
 5965TIP3    H239311   1.215   1.562  13.496  0.0263 -0.4283 -0.0834
 5966TIP3   OH239312   3.633   1.188  15.223 -0.7363  0.0957 -0.0155
 5966TIP3    H139313   3.601   1.262  15.171 -1.4265 -0.4682 -0.4098
 5966TIP3    H239314   3.617   1.112  15.167  0.8620 -0.2547 -0.0175
 5967TIP3   OH239315   3.477   3.021   1.315  0.8975 -0.1700 -0.0805
 5967TIP3    H139316   3.436   2.993   1.233 -1.2873 -0.4965  1.1142
 5967TIP3    H239317   3.433   3.103   1.338  1.9588  0.2657  0.4312
 5968TIP3   OH239318   0.450   3.705   5.358  0.0214 -0.0912 -0.4233
 5968TIP3    H139319   0.490   3.737   5.439 -0.1004 -0.4810 -0.2045
 5968TIP3    H239320   0.455   3.779   5.298 -0.3179  0.3637  0.0977
 5969TIP3   OH239321   5.132   0.143  16.285  0.6166  0.0017 -0.1067
 5969TIP3    H139322   5.177   0.068  16.324 -0.4112 -0.8508 -0.5437
 5969TIP3    H239323   5.099   0.111  16.201  1.5647  1.4171 -1.0417
 5970TIP3   OH239324   2.930   6.253  16.872  0.5058 -0.3625 -1.0945
 5970TIP3    H139325   2.838   6.278  16.859  0.6489 -0.1344 -1.6950
 5970TIP3    H239326   2.926   6.179  16.932 -0.1087 -0.6890 -1.5240
 5971TIP3   OH239327   5.436   5.219  11.898 -0.4580 -0.1877 -0.1259
 5971TIP3    H139328   5.443   5.301  11.946  1.1364  0.4248 -1.3489
 5971TIP3    H239329   5.397   5.244  11.814  1.6630 -0.3819 -1.1870
 5972TIP3   OH239330   3.151   4.719  15.477  0.4577 -0.0369  0.4600
 5972TIP3    H139331   3.210   4.726  15.553  0.7529  1.4060  0.0984
 5972TIP3    H239332   3.140   4.624  15.465 -0.0691 -0.2825  2.6636
 5973TIP3   OH239333   5.987   2.459  16.282  0.2053  0.2512  0.0322
 5973TIP3    H139334   5.977   2.549  16.250  0.3262 -0.3301 -1.6663
 5973TIP3    H239335   5.897   2.427  16.289  0.1626  0.4967  0.6251
 5974TIP3   OH239336   5.092   5.783   5.225 -0.1503  0.0709 -0.8650
 5974TIP3    H139337   5.173   5.736   5.244  0.0615  0.0872 -1.7246
 5974TIP3    H239338   5.064   5.818   5.310  0.7127  0.0256 -0.5609
 5975TIP3   OH239339   3.798   6.166   3.256 -0.5731 -0.0963 -0.2016
 5975TIP3    H139340   3.811   6.083   3.210 -1.3078  0.0669 -0.6996
 5975TIP3    H239341   3.868   6.168   3.322 -0.2843 -0.9020 -0.4827
 5976TIP3   OH239342   1.545   1.583   2.039  0.2503  0.1788 -0.3268
 5976TIP3    H139343   1.538   1.489   2.054  0.4828  0.1845 -0.1706
 5976TIP3    H239344   1.456   1.616   2.052  0.4490  0.1845  1.0711
 5977TIP3   OH239345   4.754   1.603  10.592 -0.2142 -0.4296  0.2271
 5977TIP3    H139346   4.815   1.665  10.551 -0.8719  0.4738  0.6128
 5977TIP3    H239347   4.683   1.594  10.528  0.0224 -1.0136  0.0440
 5978TIP3   OH239348   3.252   3.783   0.829 -0.3514  0.2382  0.2783
 5978TIP3    H139349   3.323   3.723   0.851 -1.6402 -2.0312 -1.5255
 5978TIP3    H239350   3.296   3.859   0.792  1.2548 -0.1563  1.3234
 5979TIP3   OH239351   4.246   3.214   3.355 -0.9414  0.1447 -0.2905
 5979TIP3    H139352   4.226   3.177   3.441 -0.2424 -2.8658 -1.3646
 5979TIP3    H239353   4.341   3.216   3.350 -0.9485  2.3109 -0.2153
 5980TIP3   OH239354   5.055   2.395  14.554  0.7262 -0.1946 -0.5784
 5980TIP3    H139355   5.074   2.382  14.647  0.0622 -1.4494 -0.6076
 5980TIP3    H239356   4.990   2.328  14.533 -0.9680  1.6582 -1.3637
 5981TIP3   OH239357   2.429   2.364  15.537  0.1103  0.1879  0.4145
 5981TIP3    H139358   2.380   2.415  15.601 -0.0165  0.1615  0.3407
 5981TIP3    H239359   2.363   2.307  15.497  0.2967 -0.2170  0.6753
 5982TIP3   OH239360   4.263   4.069  12.614 -0.0683  0.1835 -0.0908
 5982TIP3    H139361   4.267   4.042  12.705  0.5384  0.8564  0.0893
 5982TIP3    H239362   4.248   3.988  12.565  0.0532 -0.2388  0.5683
 5983TIP3   OH239363   0.386   3.883   2.078  0.0388  0.2136 -0.0721
 5983TIP3    H139364   0.424   3.856   1.995  0.6559 -1.1714  0.6466
 5983TIP3    H239365   0.293   3.859   2.070  0.1257 -0.0507 -0.2974
 5984TIP3   OH239366   0.590   6.641  15.509  0.3440  0.1881 -0.5967
 5984TIP3    H139367   0.642   6.704  15.460  0.0342 -0.8802 -2.3208
 5984TIP3    H239368   0.516   6.620  15.452 -2.7148  2.5584  2.2587
 5985TIP3   OH239369   3.648   6.594  10.911  0.2238 -0.1498 -0.7739
 5985TIP3    H139370   3.575   6.535  10.897 -0.2378  0.8369 -2.6387
 5985TIP3    H239371   3.637   6.624  11.001 -1.5073 -0.2348 -0.9410
 5986TIP3   OH239372   1.486   0.574   0.992 -0.2458 -0.3480  0.2209
 5986TIP3    H139373   1.484   0.599   1.084 -1.2566 -0.3588  0.2056
 5986TIP3    H239374   1.519   0.484   0.993 -2.0258 -1.0176  0.7370
 5987TIP3   OH239375   4.866   6.521  12.629 -0.1194  0.3433 -0.0212
 5987TIP3    H139376   4.952   6.529  12.670  0.1203  0.8346 -0.6116
 5987TIP3    H239377   4.822   6.453  12.679  0.2955  0.6964  0.8352
 5988TIP3   OH239378   0.878   1.612   2.608  0.2078  0.2873  0.1758
 5988TIP3    H139379   0.824   1.672   2.557 -0.2025 -0.4457 -0.2734
 5988TIP3    H239380   0.875   1.646   2.697 -1.9708 -0.3839  0.3869
 5989TIP3   OH239381   3.336   3.684   5.010  0.1454 -0.1854  0.0854
 5989TIP3    H139382   3.304   3.707   5.098 -0.9689  0.1895 -0.4139
 5989TIP3    H239383   3.379   3.763   4.979 -2.0050  0.6699 -0.8558
 5990TIP3   OH239384   3.304   3.069  16.543  0.0089  0.3349  0.2508
 5990TIP3    H139385   3.367   3.032  16.481  1.7357  1.7914  1.0838
 5990TIP3    H239386   3.251   3.129  16.490 -0.5724 -0.7543 -0.4181
 5991TIP3   OH239387   5.044   5.183  14.716 -0.0106 -0.3094 -0.0133
 5991TIP3    H139388   5.133   5.148  14.715  0.5557  1.0361  1.4465
 5991TIP3    H239389   5.005   5.147  14.795  0.3532  1.7333  1.1294
 5992TIP3   OH239390   5.595   6.564   0.646  0.1862 -0.1010 -0.5540
 5992TIP3    H139391   5.628   6.649   0.618  1.6593 -0.1610  0.9369
 5992TIP3    H239392   5.515   6.584   0.694  1.4717  0.6185  1.3247
 5993TIP3   OH239393   4.199   2.853   2.340  0.0495 -0.2439 -0.0678
 5993TIP3    H139394   4.217   2.774   2.289 -0.0272 -1.8282  2.2589
 5993TIP3    H239395   4.284   2.896   2.348 -0.1321  0.6241 -2.4299
 5994TIP3   OH239396   4.197   1.440   4.107  0.8308 -0.1459  0.0619
 5994TIP3    H139397   4.103   1.442   4.121  0.8746 -1.9783  0.7896
 5994TIP3    H239398   4.218   1.347   4.096  2.6812  0.1419  0.8828
 5995TIP3   OH239399   2.313   4.699  10.806  0.2656 -0.5177  0.1154
 5995TIP3    H139400   2.223   4.700  10.774 -0.3019 -1.3532  1.6601
 5995TIP3    H239401   2.365   4.728  10.731 -1.3929  1.2480 -0.3885
 5996TIP3   OH239402   3.376   3.665  12.865 -0.6101  0.7537 -0.6575
 5996TIP3    H139403   3.327   3.595  12.909  0.1225  0.3228 -0.5047
 5996TIP3    H239404   3.383   3.734  12.931 -0.9030  0.7606 -0.6340
 5997TIP3   OH239405   4.811   6.097   6.028 -0.4298 -0.3607  0.0637
 5997TIP3    H139406   4.788   6.189   6.013  0.8101  0.2300  1.5990
 5997TIP3    H239407   4.899   6.101   6.067  0.2671 -2.2808 -1.2401
 5998TIP3   OH239408   1.665   0.240   1.861 -0.3287 -0.4880  0.2508
 5998TIP3    H139409   1.711   0.164   1.826 -0.0065 -1.2335  2.2354
 5998TIP3    H239410   1.587   0.203   1.902 -0.4956  0.3237  0.6713
 5999TIP3   OH239411   1.151   6.497   1.088 -0.6906 -0.5972 -0.4784
 5999TIP3    H139412   1.208   6.519   1.014  0.9767  0.7797  1.1711
 5999TIP3    H239413   1.106   6.579   1.108 -1.0812 -0.9504  0.0831
 6000TIP3   OH239414   2.835   3.029   2.071  0.1434  0.6973  0.3985
 6000TIP3    H139415   2.795   2.987   2.147 -1.3465  1.6650  0.1708
 6000TIP3    H239416   2.894   2.962   2.034 -0.2558 -0.2823  1.5183
 6001TIP3   OH239417   1.452   5.529  16.864 -0.1669 -0.1334  0.6893
 6001TIP3    H139418   1.453   5.445  16.910 -1.2020 -0.3111  0.3913
 6001TIP3    H239419   1.503   5.513  16.784  0.2832 -0.2640  1.0026
 6002TIP3   OH239420   0.545   5.434   5.463 -0.2282  0.0276 -0.1921
 6002TIP3    H139421   0.617   5.434   5.526 -0.0706  0.3931 -0.3730
 6002TIP3    H239422   0.502   5.518   5.476  1.3664  1.2245 -2.3582
 6003TIP3   OH239423   2.425   3.384   4.138  0.1484  0.0172 -0.0655
 6003TIP3    H139424   2.480   3.364   4.214 -1.2150  0.3777  1.0298
 6003TIP3    H239425   2.404   3.298   4.101  1.6332 -0.1102 -0.6343
 6004TIP3   OH239426   3.023   2.618   4.679  0.4014  0.1668 -0.2858
 6004TIP3    H139427   3.093   2.668   4.720  1.2517  0.0870 -1.6180
 6004TIP3    H239428   3.040   2.625   4.585 -0.4326 -1.2430 -0.5543
 6005TIP3   OH239429   4.511   1.925   3.575  0.9211 -0.0316 -0.2828
 6005TIP3    H139430   4.432   1.925   3.628 -0.1555  2.0455 -1.7995
 6005TIP3    H239431   4.491   1.983   3.501  2.7102 -2.0317 -2.4352
 6006TIP3   OH239432   5.127   3.763  16.065  0.2260  0.1687 -0.1656
 6006TIP3    H139433   5.162   3.680  16.098 -1.3697  0.0506  1.3497
 6006TIP3    H239434   5.201   3.824  16.069  0.9902 -0.7695  0.2519
 6007TIP3   OH239435   4.583   1.244  14.259  0.4484  0.0045 -0.2146
 6007TIP3    H139436   4.518   1.286  14.202 -0.2936 -0.0084  0.6232
 6007TIP3    H239437   4.627   1.181  14.202 -0.4500 -0.1749 -0.7142
 6008TIP3   OH239438   2.416   0.730  17.142  0.0549  0.3862 -0.4164
 6008TIP3    H139439   2.327   0.707  17.116  0.6037 -0.4314 -1.6024
 6008TIP3    H239440   2.428   0.687  17.227 -0.4271 -0.1222 -0.5999
 6009TIP3   OH239441   6.553   4.796   4.521 -0.2503 -0.4407 -0.0207
 6009TIP3    H139442   6.511   4.822   4.438  1.0134 -0.5728 -0.7226
 6009TIP3    H239443   6.518   4.857   4.586  0.4760  1.1670 -1.0979
 6010TIP3   OH239444   3.210   1.454  14.416  0.2009  0.3176 -0.8585
 6010TIP3    H139445   3.278   1.516  14.441  1.1012 -0.9043 -0.2414
 6010TIP3    H239446   3.185   1.481  14.328  0.7058  1.4554 -0.6587
 6011TIP3   OH239447   3.161   1.745  13.540 -0.2155 -0.0154  0.3848
 6011TIP3    H139448   3.246   1.703  13.552  0.2330  0.2655 -1.6029
 6011TIP3    H239449   3.181   1.836  13.519 -0.8471 -0.4423 -2.3771
 6012TIP3   OH239450   0.330   3.521   4.197  0.1119 -0.1104  0.2266
 6012TIP3    H139451   0.367   3.588   4.255 -0.9396  0.9434 -0.2854
 6012TIP3    H239452   0.404   3.489   4.147  0.9681 -0.7276  1.8361
 6013TIP3   OH239453   2.680   2.533  12.894 -0.3171  0.1539  0.1238
 6013TIP3    H139454   2.683   2.593  12.968  1.7548  1.7752 -1.1794
 6013TIP3    H239455   2.682   2.446  12.933 -2.9304  0.9213  2.0435
 6014TIP3   OH239456   4.944   4.651   5.267  0.7563  0.2232  0.7679
 6014TIP3    H139457   4.949   4.746   5.270 -0.5586  0.2992  1.0833
 6014TIP3    H239458   4.868   4.629   5.322 -0.2208 -0.8712 -0.9624
 6015TIP3   OH239459   3.688   3.682  13.506  0.0495 -0.3252  0.2398
 6015TIP3    H139460   3.754   3.746  13.480 -0.0938 -0.4206 -0.3891
 6015TIP3    H239461   3.726   3.635  13.580  0.1286  0.5339  0.7502
 6016TIP3   OH239462   4.482   1.906   3.285 -0.0905  0.1687  0.1105
 6016TIP3    H139463   4.547   1.835   3.285  1.0339  1.1784 -0.4854
 6016TIP3    H239464   4.531   1.983   3.258 -1.5901  0.9282 -0.4917
 6017TIP3   OH239465   6.378   6.712  11.746 -0.3667 -0.4148  0.1697
 6017TIP3    H139466   6.363   6.798  11.707  0.9100  0.0940  0.7582
 6017TIP3    H239467   6.418   6.661  11.676 -3.5916 -1.3893 -1.0142
 6018TIP3   OH239468   4.682   2.496   0.803  0.0679  0.4447  0.3609
 6018TIP3    H139469   4.699   2.403   0.816  0.9348  0.3168 -1.5185
 6018TIP3    H239470   4.733   2.540   0.871  1.6377 -0.3339 -0.3087
 6019TIP3   OH239471   4.176   6.638  14.020  0.2332  0.1193 -0.9195
 6019TIP3    H139472   4.269   6.616  14.027  0.1918 -0.0204 -0.8198
 6019TIP3    H239473   4.162   6.704  14.088  0.1898 -0.0791 -0.7387
 6020TIP3   OH239474   2.230   5.718  10.855  0.3351 -0.1574  0.2871
 6020TIP3    H139475   2.212   5.651  10.789  0.3347 -2.5261  2.5972
 6020TIP3    H239476   2.323   5.708  10.875  0.2081  0.1325  1.0524
 6021TIP3   OH239477   1.758   4.562   4.821  0.8245 -0.4059  0.0070
 6021TIP3    H139478   1.764   4.630   4.888  2.6879  0.9221 -1.4549
 6021TIP3    H239479   1.801   4.486   4.859  0.4403 -0.1789  0.9144
 6022TIP3   OH239480   4.516   1.211   0.981  0.1638  0.1956 -0.1545
 6022TIP3    H139481   4.532   1.120   0.956  0.3772  0.5652 -1.4115
 6022TIP3    H239482   4.440   1.207   1.038 -1.0177 -0.6008 -1.7313
 6023TIP3   OH239483   5.781   2.257  17.186 -0.2770  0.0007  0.0037
 6023TIP3    H139484   5.789   2.163  17.199 -1.1834  0.1293  1.5709
 6023TIP3    H239485   5.741   2.266  17.099  1.3684 -0.9859 -0.8913
 6024TIP3   OH239486   5.600   1.054   3.959  0.6639  0.2397  0.2389
 6024TIP3    H139487   5.511   1.076   3.932  0.3968  1.7767  2.2745
 6024TIP3    H239488   5.600   1.066   4.054  3.0836  0.3962  0.2456
 6025TIP3   OH239489   5.146   1.857   2.785  0.2642 -0.1055  0.0769
 6025TIP3    H139490   5.170   1.944   2.752  3.7871 -1.3120 -0.7653
 6025TIP3    H239491   5.146   1.867   2.881 -0.3706  1.0351 -0.0257
 6026TIP3   OH239492   4.232   5.760   0.479 -0.1696 -0.1447 -0.0647
 6026TIP3    H139493   4.154   5.776   0.532  0.6619 -0.1138  1.1696
 6026TIP3    H239494   4.258   5.671   0.500 -0.0145 -0.2515 -0.6791
 6027TIP3   OH239495   6.406   5.394  11.847 -0.5845  0.6852  0.6122
 6027TIP3    H139496   6.502   5.392  11.849 -0.4803  3.1878 -0.5558
 6027TIP3    H239497   6.381   5.436  11.929 -0.6043  1.4220  0.2349
 6028TIP3   OH239498   6.605   4.886   1.055  0.0039 -0.6166 -0.5401
 6028TIP3    H139499   6.687   4.864   1.012  0.7768 -0.5190  0.8439
 6028TIP3    H239500   6.605   4.833   1.135 -0.7119  0.2645  0.0526
 6029TIP3   OH239501   6.113   0.780  14.279 -0.4578 -0.1841 -0.0012
 6029TIP3    H139502   6.164   0.812  14.204  1.7108  2.1279  2.3242
 6029TIP3    H239503   6.128   0.686  14.280  0.7516 -0.0358 -1.5759
 6030TIP3   OH239504   1.285   4.090  10.988  0.2928 -0.1172  0.5637
 6030TIP3    H139505   1.309   4.142  10.912 -0.4840 -2.0973 -1.0714
 6030TIP3    H239506   1.189   4.093  10.991  0.3265  0.3097  1.7386
 6031TIP3   OH239507   1.633   1.245  12.429 -0.5177  0.2873 -0.1803
 6031TIP3    H139508   1.631   1.281  12.340  1.3550  1.0718  0.0637
 6031TIP3    H239509   1.590   1.160  12.421 -1.3716  0.8294 -1.5968
 6032TIP3   OH239510   1.684   0.944  13.022 -0.3722 -0.1231  0.3470
 6032TIP3    H139511   1.771   0.926  13.057  0.3095  1.0273 -0.7245
 6032TIP3    H239512   1.624   0.916  13.092  0.9119  0.6495  1.7897
 6033TIP3   OH239513   2.596   6.092  17.085 -0.7337  0.2723 -0.0613
 6033TIP3    H139514   2.502   6.096  17.068 -0.6226  0.9368 -0.5315
 6033TIP3    H239515   2.615   5.998  17.094 -1.3328  0.1004 -0.5729
 6034TIP3   OH239516   5.507   5.333   0.617 -0.0867  0.0141  0.0671
 6034TIP3    H139517   5.520   5.317   0.710 -0.8392  0.2811  0.2283
 6034TIP3    H239518   5.587   5.303   0.575 -0.2280 -1.2274  0.6716
 6035TIP3   OH239519   6.658   2.440   0.353  0.3843 -1.0216 -0.0513
 6035TIP3    H139520   6.707   2.407   0.277 -0.8274 -1.3738 -0.6862
 6035TIP3    H239521   6.681   2.380   0.424  2.0383 -0.3074  0.0371
 6036TIP3   OH239522   3.472   3.065   3.417 -0.4955 -0.3068  0.1085
 6036TIP3    H139523   3.557   3.026   3.439 -1.0179 -0.7865  1.3306
 6036TIP3    H239524   3.484   3.159   3.433 -0.1502 -0.3560  0.1372
 6037TIP3   OH239525   4.703   2.302   3.020  0.2299  0.1315 -0.1878
 6037TIP3    H139526   4.618   2.259   3.025  0.1906  0.3355  1.3036
 6037TIP3    H239527   4.741   2.289   3.107  2.2768 -1.0740 -1.2263
 6038TIP3   OH239528   3.550   2.944   3.980  0.0251 -0.0338 -0.0119
 6038TIP3    H139529   3.522   2.862   3.942  0.1230 -0.2589  0.3951
 6038TIP3    H239530   3.473   3.001   3.976 -0.3684 -0.5066  0.7143
 6039TIP3   OH239531   1.011   5.830  11.261  0.3882  0.2002 -0.0216
 6039TIP3    H139532   0.938   5.772  11.282 -1.7278  2.1911 -1.6157
 6039TIP3    H239533   1.005   5.901  11.325  0.3394  0.8531 -0.7395
 6040TIP3   OH239534   3.237   2.642  16.536 -0.2706  0.4735  0.5453
 6040TIP3    H139535   3.174   2.661  16.466 -0.5161  1.3989  1.0135
 6040TIP3    H239536   3.199   2.681  16.614  0.5551  0.4362  0.9704
 6041TIP3   OH239537   4.357   0.659   1.547 -0.2757 -0.4246  1.1177
 6041TIP3    H139538   4.362   0.754   1.540 -1.2339 -0.3889  0.7544
 6041TIP3    H239539   4.443   0.628   1.520  0.4788  0.3925  2.5243
 6042TIP3   OH239540   2.874   0.882   1.503  0.2319 -0.0326 -0.3643
 6042TIP3    H139541   2.967   0.896   1.484  0.0284  2.1334  0.1700
 6042TIP3    H239542   2.867   0.888   1.598 -0.0375 -2.9321 -0.1692
 6043TIP3   OH239543   3.444   5.717   2.359 -0.2405  0.7038  0.5261
 6043TIP3    H139544   3.381   5.676   2.418 -1.9716 -0.0137 -1.7624
 6043TIP3    H239545   3.427   5.677   2.274  2.4371  1.4657 -0.4160
 6044TIP3   OH239546   1.228   3.695  16.625 -0.1783 -0.4132 -0.3546
 6044TIP3    H139547   1.154   3.653  16.581 -0.1485  0.4623 -1.2643
 6044TIP3    H239548   1.305   3.653  16.588 -0.0772  1.6868 -2.6500
 6045TIP3   OH239549   2.351   2.235  15.962  0.1321 -0.3079 -0.4951
 6045TIP3    H139550   2.299   2.230  15.882 -0.4480  0.2741 -0.1568
 6045TIP3    H239551   2.418   2.302  15.943 -0.6593  0.6033 -0.1287
 6046TIP3   OH239552   0.344   1.084  13.713 -0.9603 -0.0786  0.1638
 6046TIP3    H139553   0.413   1.055  13.772 -2.1078 -2.9408  0.1672
 6046TIP3    H239554   0.262   1.066  13.760 -1.8515 -1.3902 -1.8219
 6047TIP3   OH239555   3.203   6.545   4.146 -0.0543  0.0736 -0.4497
 6047TIP3    H139556   3.294   6.569   4.168 -0.2862 -0.0662  0.6658
 6047TIP3    H239557   3.150   6.607   4.196 -0.5665  0.7612 -1.8344
 6048TIP3   OH239558   2.099   4.968  15.641 -0.6187 -0.0522  0.3727
 6048TIP3    H139559   2.094   4.998  15.732  1.9681 -0.0064  0.5323
 6048TIP3    H239560   2.186   4.929  15.633 -0.6597  0.2666 -2.1884
 6049TIP3   OH239561   3.428   0.890   4.880 -0.4558  0.0700 -0.1762
 6049TIP3    H139562   3.455   0.890   4.788  2.1311  1.5905  0.5449
 6049TIP3    H239563   3.504   0.858   4.928 -0.9501  1.5658  1.6701
 6050TIP3   OH239564   0.331   5.931   2.132 -0.0379 -0.2006  0.1607
 6050TIP3    H139565   0.337   5.965   2.221 -1.2807  1.2664 -0.2920
 6050TIP3    H239566   0.237   5.916   2.119  0.2155 -1.1424 -0.6372
 6051TIP3   OH239567   0.998   2.038   2.517  0.2631  0.1628  0.2860
 6051TIP3    H139568   0.905   2.054   2.507  0.3872  1.4877  1.2198
 6051TIP3    H239569   1.009   2.015   2.609  0.9116  0.3610  0.2594
 6052TIP3   OH239570   0.113   2.149  17.089 -0.3434 -0.0430 -0.3389
 6052TIP3    H139571   0.083   2.123  17.176 -0.1330 -0.6952 -0.4591
 6052TIP3    H239572   0.141   2.067  17.047 -0.8454  0.2022 -1.1723
 6053TIP3   OH239573   2.404   3.800   3.589 -0.0287 -0.0630  0.1513
 6053TIP3    H139574   2.343   3.870   3.609  0.2543  0.1725  0.2020
 6053TIP3    H239575   2.388   3.734   3.657 -2.4108 -1.4360 -1.6481
 6054TIP3   OH239576   1.229   6.765   1.127  0.0748  0.8266  0.1986
 6054TIP3    H139577   1.240   6.839   1.067  2.1227 -0.5627 -1.1899
 6054TIP3    H239578   1.298   6.703   1.102  0.3351 -0.2244  3.3558
 6055TIP3   OH239579   1.350   1.085   0.805 -0.4654  0.2738  0.0704
 6055TIP3    H139580   1.387   1.044   0.883 -2.7325 -0.8706  0.5818
 6055TIP3    H239581   1.425   1.097   0.747  0.8198 -1.3000  1.3505
 6056TIP3   OH239582   5.242   5.612  14.249  0.6171  0.1934 -0.0781
 6056TIP3    H139583   5.237   5.687  14.307 -0.0229  0.4638 -0.4751
 6056TIP3    H239584   5.179   5.549  14.285  1.9914 -0.6305  0.9269
 6057TIP3   OH239585   2.000   0.166   6.180  0.3434  0.3946  0.2356
 6057TIP3    H139586   2.037   0.084   6.149  1.2686  0.4658  1.1205
 6057TIP3    H239587   1.935   0.190   6.114 -0.8965 -1.7292  0.6422
 6058TIP3   OH239588   4.284   0.373  12.954  0.1126 -0.3201 -0.5712
 6058TIP3    H139589   4.313   0.285  12.978  0.5744 -0.5885 -2.0640
 6058TIP3    H239590   4.352   0.431  12.989  1.4361 -0.7991 -2.2841
 6059TIP3   OH239591   2.298   1.400  15.795  0.1015  0.1656  0.0492
 6059TIP3    H139592   2.295   1.495  15.810 -0.5943 -0.0132  1.0759
 6059TIP3    H239593   2.235   1.385  15.723 -0.0344  0.4369  0.1114
 6060TIP3   OH239594   4.892   0.168  10.780 -0.5922 -0.4431 -1.0230
 6060TIP3    H139595   4.841   0.225  10.838  1.0497 -0.4480  0.4618
 6060TIP3    H239596   4.979   0.207  10.779  0.8960 -3.5112  0.9399
 6061TIP3   OH239597   6.543   5.740  16.657  0.0700 -0.4882 -0.4199
 6061TIP3    H139598   6.521   5.649  16.639 -0.3856 -0.8118  1.6072
 6061TIP3    H239599   6.631   5.736  16.696  0.9103  0.1449 -2.2153
 6062TIP3   OH239600   1.802   1.059  15.409 -0.2227  0.2231  0.1449
 6062TIP3    H139601   1.863   1.128  15.380  0.4246  0.3762  1.7858
 6062TIP3    H239602   1.724   1.106  15.436  1.1814  0.6400  3.7998
 6063TIP3   OH239603   3.250   5.305  12.679 -0.5387 -0.2945  0.4338
 6063TIP3    H139604   3.233   5.324  12.587 -0.6993 -2.7055 -0.0490
 6063TIP3    H239605   3.176   5.253  12.708 -1.7392  2.4879  2.6508
 6064TIP3   OH239606   0.918   1.518  14.315  0.4587 -0.3286 -0.4353
 6064TIP3    H139607   0.935   1.576  14.388 -2.2371  0.4153 -0.3302
 6064TIP3    H239608   0.916   1.576  14.238 -2.0533 -0.2549 -0.3522
 6065TIP3   OH239609   2.634   5.056   5.347 -0.2691  0.2318 -0.7423
 6065TIP3    H139610   2.598   5.093   5.428  0.9417  1.0164 -0.5492
 6065TIP3    H239611   2.729   5.052   5.363 -0.1327 -0.5589 -1.7403
 6066TIP3   OH239612   4.314   4.375  14.617  0.6904 -0.3520  0.9307
 6066TIP3    H139613   4.281   4.307  14.676  0.1155 -0.6725  0.2488
 6066TIP3    H239614   4.277   4.456  14.653 -0.6128 -0.6729  0.3603
 6067TIP3   OH239615   0.384   1.279   0.770  0.1929 -0.3919  0.1644
 6067TIP3    H139616   0.339   1.357   0.803  1.5309  0.2826  0.4242
 6067TIP3    H239617   0.412   1.303   0.682 -0.2033 -0.9084 -0.1038
 6068TIP3   OH239618   3.113   5.454   1.563  0.1054  0.5497 -0.3596
 6068TIP3    H139619   3.089   5.545   1.575 -0.9286  0.2868 -0.4097
 6068TIP3    H239620   3.052   5.421   1.497  1.1803  0.1141 -1.1531
 6069TIP3   OH239621   0.095   0.306   2.259  1.2014 -0.3727 -0.0887
 6069TIP3    H139622   0.065   0.397   2.260 -0.2084 -0.7271 -3.9219
 6069TIP3    H239623   0.067   0.271   2.344 -2.5483  1.4705 -0.4665
 6070TIP3   OH239624   2.418   2.849  10.924  0.0906  0.3688 -0.3934
 6070TIP3    H139625   2.383   2.769  10.884 -0.9634  1.1927 -1.1390
 6070TIP3    H239626   2.345   2.885  10.973  0.1929  1.5315 -1.0815
 6071TIP3   OH239627   2.522   5.360  10.958 -0.2622  0.2155 -0.4398
 6071TIP3    H139628   2.588   5.326  10.898 -0.1366  0.2279 -0.3101
 6071TIP3    H239629   2.568   5.365  11.042  0.3522  2.7431 -0.8941
 6072TIP3   OH239630   0.656   6.784  17.195 -0.1757  0.0761  0.0714
 6072TIP3    H139631   0.568   6.818  17.179  0.3289  1.1432 -0.5368
 6072TIP3    H239632   0.666   6.786  17.290 -0.7990 -0.0152  0.1424
 6073TIP3   OH239633   4.060   3.057   3.567  0.2411  0.4433 -0.2582
 6073TIP3    H139634   4.023   2.978   3.528  3.6041 -0.5191 -1.7026
 6073TIP3    H239635   4.067   3.037   3.660  0.9169 -0.9459 -0.5906
 6074TIP3   OH239636   5.339   5.927   3.101 -0.2296 -0.1246 -0.1545
 6074TIP3    H139637   5.388   6.001   3.064 -1.7742 -0.1673 -2.3808
 6074TIP3    H239638   5.379   5.850   3.062 -0.6252 -0.2799 -0.2521
 6075TIP3   OH239639   6.554   6.008   0.742 -0.7719 -0.2000 -0.1614
 6075TIP3    H139640   6.585   5.958   0.666  1.3465 -0.2766  0.7058
 6075TIP3    H239641   6.460   6.017   0.729 -0.5057 -0.6093 -2.5694
 6076TIP3   OH239642   6.172   6.700   2.327 -0.3540  0.4925 -0.6992
 6076TIP3    H139643   6.076   6.711   2.331 -0.5448 -1.2212 -0.3653
 6076TIP3    H239644   6.192   6.703   2.234 -0.9667 -1.0021 -0.8894
 6077TIP3   OH239645   2.645   0.742   3.469 -0.0693  0.1276  0.9525
 6077TIP3    H139646   2.720   0.764   3.414 -1.7145  1.8741 -0.6656
 6077TIP3    H239647   2.643   0.647   3.469  1.1883  0.0706 -0.3093
 6078TIP3   OH239648   3.105   6.616   5.094  0.4004 -0.2335  0.0397
 6078TIP3    H139649   3.136   6.624   5.184  0.2698 -0.2761  0.0883
 6078TIP3    H239650   3.112   6.523   5.074  1.1582 -0.1092 -0.2549
 6079TIP3   OH239651   4.614   5.989  16.783 -0.3959 -0.5379  0.2237
 6079TIP3    H139652   4.686   5.938  16.746 -0.3927 -0.3208 -0.0737
 6079TIP3    H239653   4.569   6.025  16.707 -0.1081  0.2958  0.4452
 6080TIP3   OH239654   0.425   1.664   0.539  0.1187  0.0934  0.1635
 6080TIP3    H139655   0.486   1.733   0.563  0.0580  0.5312 -0.8943
 6080TIP3    H239656   0.358   1.709   0.487 -0.5392 -0.5639  0.4299
 6081TIP3   OH239657   3.207   5.492   4.936 -0.3404  0.0031  0.0906
 6081TIP3    H139658   3.140   5.556   4.909  0.0670 -0.1341 -1.2599
 6081TIP3    H239659   3.190   5.415   4.881  0.4504 -0.3119  0.2843
 6082TIP3   OH239660   3.154   5.329   3.193 -0.1011 -0.1557 -0.0286
 6082TIP3    H139661   3.073   5.313   3.143 -0.8427  1.9635  0.4269
 6082TIP3    H239662   3.194   5.243   3.202 -2.4993 -1.3057  0.0311
 6083TIP3   OH239663   6.081   1.666   4.484  0.7518 -0.1252 -0.2322
 6083TIP3    H139664   6.023   1.629   4.551  0.2946 -1.5081 -1.3762
 6083TIP3    H239665   6.134   1.592   4.455 -0.1633  0.0934 -2.5382
 6084TIP3   OH239666   3.738   2.068   1.780  0.4302 -0.1858 -0.0812
 6084TIP3    H139667   3.761   2.161   1.778 -0.7353  0.1931  2.4961
 6084TIP3    H239668   3.805   2.028   1.836  0.9119 -0.9110 -1.1588
 6085TIP3   OH239669   3.093   0.555  14.255 -0.3903  0.4237 -0.3899
 6085TIP3    H139670   3.007   0.544  14.296 -0.3547 -0.5851 -0.5679
 6085TIP3    H239671   3.155   0.520  14.318 -0.0568  1.6498 -0.0367
 6086TIP3   OH239672   5.885   3.964  10.909  0.5372  0.2281  0.1199
 6086TIP3    H139673   5.815   3.915  10.952 -0.6464  0.6399 -1.3431
 6086TIP3    H239674   5.861   4.056  10.920  3.1416  0.6450  3.5413
 6087TIP3   OH239675   5.293   3.473  15.070 -0.0977 -0.9650 -1.0389
 6087TIP3    H139676   5.236   3.493  15.145 -1.4450 -2.1197 -1.7169
 6087TIP3    H239677   5.326   3.385  15.089  0.8675 -0.6036 -1.0246
 6088TIP3   OH239678   0.881   6.014  14.965  1.0335  0.0923  0.5782
 6088TIP3    H139679   0.855   5.941  15.022 -0.7716 -0.6840 -1.1756
 6088TIP3    H239680   0.838   6.091  15.002  1.7926  0.0259  1.6165
 6089TIP3   OH239681   5.446   0.453   0.556  0.1209  0.4203 -0.1574
 6089TIP3    H139682   5.454   0.371   0.508  0.0680  1.4215 -1.8871
 6089TIP3    H239683   5.381   0.434   0.624 -1.1980 -0.4577 -1.6404
 6090TIP3   OH239684   2.138   0.838   1.739 -0.8640 -0.1977  0.4858
 6090TIP3    H139685   2.091   0.818   1.658 -0.8121  0.5074  0.2827
 6090TIP3    H239686   2.208   0.773   1.742  0.3624  0.9942 -1.0568
 6091TIP3   OH239687   1.082   4.423  15.136  0.7410  0.0398  0.1739
 6091TIP3    H139688   1.021   4.375  15.079  1.4718 -1.5149  0.6654
 6091TIP3    H239689   1.169   4.402  15.102  1.0935  0.5946  0.7243
 6092TIP3   OH239690   4.327   6.283   1.446 -0.0225  0.5214 -0.4831
 6092TIP3    H139691   4.285   6.260   1.529 -0.9133 -0.3525 -1.1574
 6092TIP3    H239692   4.260   6.330   1.396  0.1597  0.1214 -1.1205
 6093TIP3   OH239693   5.812   5.721  13.598 -0.1435 -0.3859 -0.2190
 6093TIP3    H139694   5.758   5.664  13.544  0.2054 -0.1537 -0.8259
 6093TIP3    H239695   5.780   5.809  13.579  0.6707 -0.2143 -0.8571
 6094TIP3   OH239696   2.490   4.035  14.889  0.2062  0.5019 -0.2357
 6094TIP3    H139697   2.444   4.078  14.962  1.6893  0.0525  0.9851
 6094TIP3    H239698   2.530   3.958  14.928 -2.1407 -1.8599 -2.3481
 6095TIP3   OH239699   2.553   2.868  14.082 -0.3953 -0.6083 -0.2841
 6095TIP3    H139700   2.569   2.958  14.056 -0.2252 -0.8149 -0.9020
 6095TIP3    H239701   2.635   2.822  14.065 -1.0997 -1.3047 -1.8726
 6096TIP3   OH239702   0.742   4.436  14.922  0.4733  0.1512 -0.4898
 6096TIP3    H139703   0.654   4.398  14.924  0.6070 -0.0677  1.4957
 6096TIP3    H239704   0.746   4.481  14.837 -1.5111  0.0921 -0.6428
 6097TIP3   OH239705   2.758   2.728  10.422 -0.2540  0.1128  0.4365
 6097TIP3    H139706   2.752   2.693  10.333 -0.6842  1.5538 -0.1230
 6097TIP3    H239707   2.830   2.680  10.462  0.6035  0.1398 -1.0296
 6098TIP3   OH239708   3.986   5.057  16.053  0.1313 -0.4952 -0.3470
 6098TIP3    H139709   4.081   5.048  16.052 -0.1119 -3.6502 -2.3369
 6098TIP3    H239710   3.971   5.152  16.060  3.3705 -0.0113  0.8915
 6099TIP3   OH239711   3.212   5.160  15.522  0.2762 -0.0210  0.0567
 6099TIP3    H139712   3.174   5.134  15.438  0.3012 -1.5160  0.4917
 6099TIP3    H239713   3.247   5.079  15.559  3.8176  1.2601 -0.2757
 6100TIP3   OH239714   1.567   3.147  15.816 -0.0681  0.1544  0.8456
 6100TIP3    H139715   1.538   3.176  15.903 -0.4603 -1.0633  1.1324
 6100TIP3    H239716   1.486   3.127  15.769  0.0849  2.0845 -0.2668
 6101TIP3   OH239717   4.879   4.432  17.037  0.0833 -0.3269 -0.7632
 6101TIP3    H139718   4.800   4.431  17.092  0.7758  0.0857  0.2690
 6101TIP3    H239719   4.881   4.520  17.000 -0.0317 -0.3894 -0.9186
 6102TIP3   OH239720   5.461   2.701  12.469  1.1444 -0.2693 -0.4635
 6102TIP3    H139721   5.544   2.696  12.422  1.1646 -4.1935 -0.1695
 6102TIP3    H239722   5.484   2.686  12.561  0.1609 -1.3244 -0.3724
 6103TIP3   OH239723   6.667   2.868  13.974 -0.2125 -1.0881  0.1470
 6103TIP3    H139724   6.576   2.890  13.991 -0.4910 -0.6098 -1.7923
 6103TIP3    H239725   6.686   2.910  13.890  1.9375 -0.7715  0.7635
 6104TIP3   OH239726   5.785   4.673  12.980 -0.2970 -0.3391 -0.3240
 6104TIP3    H139727   5.848   4.609  13.010 -0.4818  0.1901  1.2563
 6104TIP3    H239728   5.833   4.756  12.979 -0.0165 -0.4931 -2.4883
 6105TIP3   OH239729   5.767   4.066   2.584  0.2196 -0.1654 -0.2453
 6105TIP3    H139730   5.787   4.057   2.490  1.0325  0.5371 -0.1438
 6105TIP3    H239731   5.784   3.979   2.620 -1.5286 -0.8452 -0.9994
 6106TIP3   OH239732   3.745   1.075   4.323 -0.4155 -0.2859  0.0291
 6106TIP3    H139733   3.651   1.060   4.328 -0.7134  1.4945  0.1324
 6106TIP3    H239734   3.784   0.994   4.358 -1.8506 -1.5688 -1.2441
 6107TIP3   OH239735   1.653   0.141   5.742  0.0988  0.7606 -0.2313
 6107TIP3    H139736   1.608   0.214   5.784  0.2178  0.9063 -0.3569
 6107TIP3    H239737   1.591   0.068   5.746  0.2132  0.6933  0.4472
 6108TIP3   OH239738   1.654   5.515   5.892  0.3174 -0.4892  0.3687
 6108TIP3    H139739   1.583   5.471   5.938 -0.4088  0.0686 -0.2171
 6108TIP3    H239740   1.645   5.608   5.916  1.3830 -0.5367  0.9954
 6109TIP3   OH239741   6.138   1.231  15.804  0.1118 -0.1055  1.1339
 6109TIP3    H139742   6.089   1.150  15.817  0.2272 -0.5029 -0.7492
 6109TIP3    H239743   6.074   1.293  15.769  0.7892 -0.4576 -0.7896
 6110TIP3   OH239744   4.794   4.490   4.949 -0.3647  0.2216  0.0908
 6110TIP3    H139745   4.834   4.525   4.870  3.3250 -1.2474  1.1739
 6110TIP3    H239746   4.777   4.567   5.004  0.6926  0.9557 -0.5814
 6111TIP3   OH239747   1.456   5.297  16.991  0.3618 -0.0165  0.2874
 6111TIP3    H139748   1.456   5.303  17.087  1.3400 -1.0841  0.3569
 6111TIP3    H239749   1.539   5.257  16.969  0.5019  0.9679 -1.0771
 6112TIP3   OH239750   3.734   3.721  13.183  0.7982 -0.5815 -0.4115
 6112TIP3    H139751   3.705   3.802  13.142  0.8284 -0.1971  0.3269
 6112TIP3    H239752   3.803   3.748  13.244  0.5731 -1.1252  0.0795
 6113TIP3   OH239753   2.320   0.557   4.322 -0.0774  0.1792 -0.2239
 6113TIP3    H139754   2.297   0.464   4.312  0.5570  0.0574 -0.6297
 6113TIP3    H239755   2.381   0.559   4.396 -1.3065  0.4899  0.7998
 6114TIP3   OH239756   1.548   1.456  11.165  0.0680  0.0061  0.0113
 6114TIP3    H139757   1.486   1.404  11.216 -0.7571  1.8257  0.9080
 6114TIP3    H239758   1.504   1.475  11.083 -0.5070  1.1283  0.5677
 6115TIP3   OH239759   2.880   1.585  11.416  0.1503  0.2409  0.7543
 6115TIP3    H139760   2.937   1.551  11.485 -0.0809 -0.1019  0.7755
 6115TIP3    H239761   2.880   1.517  11.349  1.5127  1.1821 -0.2296
 6116TIP3   OH239762   3.306   4.912   1.091  0.0825 -0.2932  0.4225
 6116TIP3    H139763   3.392   4.945   1.118  0.0187  2.0891 -2.1237
 6116TIP3    H239764   3.325   4.852   1.019 -0.3942  0.6802 -0.5324
 6117TIP3   OH239765   2.231   5.777   6.078 -0.1123  0.2701 -0.3121
 6117TIP3    H139766   2.165   5.710   6.099  0.6053 -0.4706 -0.4084
 6117TIP3    H239767   2.307   5.728   6.047  0.3477  1.1451 -0.6008
 6118TIP3   OH239768   5.156   2.501   5.234  0.4196 -0.3541  0.0921
 6118TIP3    H139769   5.106   2.582   5.227  1.3370  0.1980 -0.0305
 6118TIP3    H239770   5.118   2.444   5.167  0.3857  0.2923 -0.4427
 6119TIP3   OH239771   4.972   4.443  14.311 -0.1905  0.1761 -0.2796
 6119TIP3    H139772   4.989   4.379  14.380  0.2718  0.8469  0.2331
 6119TIP3    H239773   5.057   4.483  14.294 -0.8885  2.3153  1.0628
 6120TIP3   OH239774   2.298   2.799  14.117  0.2715 -0.0419  0.1294
 6120TIP3    H139775   2.257   2.877  14.080  0.5711 -0.2073 -0.5723
 6120TIP3    H239776   2.392   2.814  14.106  0.3396 -0.3700  0.2506
 6121TIP3   OH239777   6.368   4.070  16.704 -0.4180 -0.1880  0.1991
 6121TIP3    H139778   6.421   4.112  16.772 -2.2786  1.1054  0.8972
 6121TIP3    H239779   6.298   4.026  16.752 -2.1436  1.2923 -0.8824
 6122TIP3   OH239780   0.926   6.089   3.217  0.3112  0.5612 -0.4279
 6122TIP3    H139781   0.938   6.116   3.126 -2.8886  1.4501 -0.6382
 6122TIP3    H239782   0.967   6.158   3.268  2.0130  0.1217 -1.1436
 6123TIP3   OH239783   6.475   2.163  16.110 -0.2788  0.1306 -0.1531
 6123TIP3    H139784   6.458   2.069  16.111 -0.8149  0.2155 -0.7371
 6123TIP3    H239785   6.388   2.203  16.113 -0.0502  0.6040  0.1415
 6124TIP3   OH239786   2.070   3.975  13.834 -0.6610  0.2957  0.1802
 6124TIP3    H139787   2.103   4.026  13.759  1.5625 -1.0283  0.1912
 6124TIP3    H239788   2.050   4.040  13.901  2.8786  1.1777  0.4814
 6125TIP3   OH239789   3.800   0.933   5.350  0.1104  0.5031  0.2482
 6125TIP3    H139790   3.798   0.923   5.445 -1.1058  1.0979  0.2946
 6125TIP3    H239791   3.794   0.843   5.316 -0.6254  0.3695  0.7230
 6126TIP3   OH239792   5.364   2.126   4.406 -0.0731 -0.4244 -0.0948
 6126TIP3    H139793   5.357   2.044   4.455 -1.0445 -0.8241 -0.8911
 6126TIP3    H239794   5.304   2.115   4.332  0.2820  0.7495 -0.5653
 6127TIP3   OH239795   3.000   2.867   2.914  0.2484 -0.0838  0.1954
 6127TIP3    H139796   2.951   2.827   2.986  0.0827 -0.5390 -0.1694
 6127TIP3    H239797   3.089   2.877   2.948  0.1947 -0.3899  0.4280
 6128TIP3   OH239798   2.999   0.486   4.424  0.0528 -0.0852 -0.2464
 6128TIP3    H139799   2.948   0.519   4.351 -1.9215  0.5726  1.3930
 6128TIP3    H239800   3.071   0.548   4.433  0.1383 -0.0022 -1.4105
 6129TIP3   OH239801   5.497   3.189  13.865  0.1988  0.7575  0.0017
 6129TIP3    H139802   5.488   3.284  13.875  3.0773  1.0227  0.5516
 6129TIP3    H239803   5.589   3.172  13.888  0.2766 -1.8895 -2.1182
 6130TIP3   OH239804   5.133   1.854  11.124  0.5585  0.2451  0.9155
 6130TIP3    H139805   5.215   1.878  11.082  0.7299  0.6821  1.4824
 6130TIP3    H239806   5.127   1.759  11.114  0.5623  0.3531 -0.1434
 6131TIP3   OH239807   0.902   0.135  12.211 -0.3438  0.2153  0.4123
 6131TIP3    H139808   0.815   0.156  12.243 -0.8961  0.4723 -1.2458
 6131TIP3    H239809   0.908   0.177  12.126  1.3060 -0.0186  0.3968
 6132TIP3   OH239810   1.501   6.663  14.603  0.0261 -0.1057 -0.2937
 6132TIP3    H139811   1.502   6.749  14.560  0.3507  1.2157  2.2619
 6132TIP3    H239812   1.449   6.676  14.682  1.4254 -1.8320  0.9539
 6133TIP3   OH239813   4.528   5.243  13.851  0.2218  0.0183 -0.3896
 6133TIP3    H139814   4.558   5.317  13.904 -0.4969  0.7077 -0.9392
 6133TIP3    H239815   4.584   5.170  13.879 -0.4998  0.2207  1.7178
 6134TIP3   OH239816   1.787   1.613   1.257 -0.3174 -0.4643  0.1436
 6134TIP3    H139817   1.700   1.577   1.237 -1.1642  0.9839  1.1756
 6134TIP3    H239818   1.839   1.595   1.178 -2.6878  2.2875 -2.1781
 6135TIP3   OH239819   5.731   0.110   1.616  0.0409  0.2442  0.4572
 6135TIP3    H139820   5.745   0.020   1.644  0.0780 -0.0899 -0.6433
 6135TIP3    H239821   5.794   0.161   1.669 -0.6189 -0.2466  1.7429
 6136TIP3   OH239822   2.164   3.823  13.522 -0.1510 -0.7130 -0.5912
 6136TIP3    H139823   2.240   3.869  13.559 -1.9524  1.4920  0.4411
 6136TIP3    H239824   2.185   3.730  13.535  2.1197 -0.1471  0.1836
 6137TIP3   OH239825   1.382   6.598   1.457 -0.6389 -0.2188 -0.0758
 6137TIP3    H139826   1.440   6.652   1.511  0.9161 -2.0956  0.1714
 6137TIP3    H239827   1.307   6.579   1.513 -0.7874  0.9544  0.1253
 6138TIP3   OH239828   0.417   1.421  16.153 -0.4308 -0.0560  0.2357
 6138TIP3    H139829   0.370   1.430  16.071  1.7102 -1.9878 -1.2714
 6138TIP3    H239830   0.484   1.489  16.151  1.0957 -1.5387 -0.7234
 6139TIP3   OH239831   4.586   4.471   2.160  0.5719 -0.6084 -0.0473
 6139TIP3    H139832   4.603   4.471   2.255 -2.4625 -0.9133  0.5393
 6139TIP3    H239833   4.525   4.399   2.147 -1.2607  1.2065 -1.7967
 6140TIP3   OH239834   0.913   3.646  10.701 -0.5332  0.0531 -0.5445
 6140TIP3    H139835   0.819   3.664  10.710 -0.3838  1.0270 -0.9150
 6140TIP3    H239836   0.956   3.729  10.724  0.2032 -0.1187 -1.2905
 6141TIP3   OH239837   5.406   0.330  14.991 -0.2277  0.6420  0.1974
 6141TIP3    H139838   5.426   0.241  15.021 -2.2095 -0.6992 -2.2918
 6141TIP3    H239839   5.375   0.375  15.069  2.2651 -0.3725  1.8298
 6142TIP3   OH239840   4.686   1.695   1.430  0.0776  0.3527  0.0986
 6142TIP3    H139841   4.674   1.718   1.522  0.9246 -0.4184  0.4162
 6142TIP3    H239842   4.624   1.750   1.382 -2.7101 -1.5720  1.3933
 6143TIP3   OH239843   5.643   5.769  14.189 -0.4695  0.2816  0.4316
 6143TIP3    H139844   5.561   5.819  14.190  0.0912  1.1989  0.6316
 6143TIP3    H239845   5.709   5.831  14.159  0.6453  0.3253  2.8497
 6144TIP3   OH239846   2.213   1.332   2.919  0.0315  0.2864 -0.3963
 6144TIP3    H139847   2.271   1.385   2.865 -1.6006  2.3499 -0.1778
 6144TIP3    H239848   2.247   1.343   3.008 -1.2333  2.2752 -0.1362
 6145TIP3   OH239849   5.011   1.764  10.225 -0.3774  0.5675 -0.1850
 6145TIP3    H139850   5.020   1.698  10.156 -1.5500 -0.5706  0.7233
 6145TIP3    H239851   5.075   1.831  10.202  0.1067 -0.3821 -1.7092
 6146TIP3   OH239852   1.064   2.602   1.696 -0.0438 -0.5734  0.3376
 6146TIP3    H139853   1.139   2.568   1.648  0.0617 -0.7468  0.6209
 6146TIP3    H239854   1.061   2.695   1.674  0.0425 -0.6371  0.0500
 6147TIP3   OH239855   2.542   0.188   3.487  0.5921  0.1954  0.1885
 6147TIP3    H139856   2.590   0.108   3.464 -1.0804 -1.9203  3.6744
 6147TIP3    H239857   2.460   0.181   3.438  1.2534  0.7790 -1.0230
 6148TIP3   OH239858   4.016   5.915  15.103  0.2281  0.4816  0.0450
 6148TIP3    H139859   4.028   5.953  15.189 -0.1715 -1.2571  0.9019
 6148TIP3    H239860   3.952   5.845  15.116  1.6314 -1.1067 -1.2628
 6149TIP3   OH239861   2.027   5.069  14.826  0.0097  0.6561  0.3730
 6149TIP3    H139862   1.938   5.097  14.846  0.2351  0.9070  1.0478
 6149TIP3    H239863   2.042   4.994  14.883  0.9434  1.8694  1.7603
 6150TIP3   OH239864   5.151   4.223  12.297  0.5358 -0.4654  0.0572
 6150TIP3    H139865   5.138   4.177  12.213 -0.2720 -1.2622  0.6085
 6150TIP3    H239866   5.065   4.221  12.338  0.4018  1.8789 -0.0559
 6151TIP3   OH239867   1.201   1.863  14.463 -0.4583  0.2906  0.0796
 6151TIP3    H139868   1.203   1.869  14.368 -3.2940  1.0287  0.0269
 6151TIP3    H239869   1.200   1.770  14.482  0.8599  0.1343 -0.5709
 6152TIP3   OH239870   5.814   6.693  12.394  0.2439 -0.2920 -0.7661
 6152TIP3    H139871   5.900   6.732  12.377  0.3860  0.5899  1.7348
 6152TIP3    H239872   5.831   6.627  12.461 -0.8898 -0.7691 -0.9471
 6153TIP3   OH239873   2.729   2.260   5.028 -0.4309  0.2129  0.4132
 6153TIP3    H139874   2.735   2.217   4.943  1.4838  2.1872 -0.4858
 6153TIP3    H239875   2.682   2.197   5.083 -0.4472 -1.6813 -1.6992
 6154TIP3   OH239876   0.153   1.372  13.557 -0.4245  0.4056  0.0682
 6154TIP3    H139877   0.124   1.329  13.476 -1.7854  3.6228 -1.2106
 6154TIP3    H239878   0.231   1.421  13.532  1.5564 -1.7994  1.6940
 6155TIP3   OH239879   3.904   3.271  12.321  1.0398  0.0518  0.0673
 6155TIP3    H139880   3.820   3.240  12.287  0.5260  0.2668  1.1172
 6155TIP3    H239881   3.901   3.252  12.415  1.5161  1.4744  0.3913
 6156TIP3   OH239882   4.527   0.103   6.550  0.0002  0.4211 -0.5716
 6156TIP3    H139883   4.604   0.160   6.541 -0.0757  0.3100 -2.0618
 6156TIP3    H239884   4.553   0.021   6.508  0.1986 -0.7664  1.7742
 6157TIP3   OH239885   6.196   3.098  10.445  0.1496 -0.0458 -0.0996
 6157TIP3    H139886   6.212   3.184  10.406 -0.9189  0.8641  1.4595
 6157TIP3    H239887   6.271   3.084  10.503 -0.4960  0.5427  0.8737
 6158TIP3   OH239888   2.782   4.740  11.762 -0.1074  0.8043  0.2173
 6158TIP3    H139889   2.714   4.682  11.728 -0.1113  1.9187 -1.7771
 6158TIP3    H239890   2.737   4.823  11.778  0.3325  0.8978  0.9755
 6159TIP3   OH239891   4.235   3.801   4.980 -0.0836 -0.3915 -0.3905
 6159TIP3    H139892   4.318   3.846   4.965  0.4497 -1.0604  0.5301
 6159TIP3    H239893   4.254   3.737   5.049 -1.3257 -0.6395 -0.2639
 6160TIP3   OH239894   6.432   2.030   5.286  0.2966 -0.3496 -0.3610
 6160TIP3    H139895   6.400   2.116   5.262  2.0124  0.4622  0.2047
 6160TIP3    H239896   6.469   2.042   5.374  1.1436 -1.5067 -0.5487
 6161TIP3   OH239897   6.213   0.559   2.081  0.2178 -0.2041  0.5713
 6161TIP3    H139898   6.286   0.506   2.111  1.0865  0.4842 -0.2907
 6161TIP3    H239899   6.213   0.635   2.140 -0.1324 -0.4682  0.9087
 6162TIP3   OH239900   6.712   4.686   3.304 -0.2821 -0.1278  0.2734
 6162TIP3    H139901   6.795   4.648   3.274  0.4453  0.5236  1.4006
 6162TIP3    H239902   6.736   4.735   3.383 -1.8503 -0.4352  0.9641
 6163TIP3   OH239903   2.259   3.619   5.769 -0.7319 -0.4060  0.8138
 6163TIP3    H139904   2.229   3.564   5.696 -0.1574  1.0652 -0.5859
 6163TIP3    H239905   2.354   3.605   5.771 -0.7260 -0.3129  1.1675
 6164TIP3   OH239906   0.631   3.492  13.356 -0.6475 -0.1302 -0.3677
 6164TIP3    H139907   0.550   3.542  13.341  0.2634  1.2956 -0.6447
 6164TIP3    H239908   0.695   3.558  13.382  0.3351 -1.3073  0.2656
 6165TIP3   OH239909   5.349   4.579   0.774 -0.5293  0.1353 -0.2280
 6165TIP3    H139910   5.393   4.633   0.840 -0.6615 -1.0368  0.8232
 6165TIP3    H239911   5.276   4.632   0.744 -0.2778  0.7977  0.3277
 6166TIP3   OH239912   0.038   4.582   1.056  0.2880 -0.3270  0.5511
 6166TIP3    H139913  -0.022   4.636   1.107 -1.8371  0.4642 -2.6604
 6166TIP3    H239914   0.039   4.623   0.969  2.2826 -2.7346 -0.6107
 6167TIP3   OH239915   0.961   4.718   1.560 -0.0537 -0.0842 -0.1404
 6167TIP3    H139916   0.909   4.772   1.501  1.1815 -0.0234 -1.2250
 6167TIP3    H239917   0.925   4.630   1.550 -0.3432  0.0667 -0.4289
 6168TIP3   OH239918   1.694   3.156   3.240  0.4687  0.2625  0.6164
 6168TIP3    H139919   1.601   3.143   3.259  0.7040 -0.1855  1.4538
 6168TIP3    H239920   1.694   3.213   3.163 -0.4988  0.5625  0.8261
 6169TIP3   OH239921   0.322   4.500   4.360  0.1822  0.3153 -0.4007
 6169TIP3    H139922   0.231   4.530   4.359  0.1953  0.3556 -0.2617
 6169TIP3    H239923   0.356   4.528   4.445  0.2013 -0.0729 -0.2826
 6170TIP3   OH239924   1.759   6.039  12.227  0.0506  0.3562 -0.0433
 6170TIP3    H139925   1.757   6.012  12.135 -0.8066 -1.2529  0.4293
 6170TIP3    H239926   1.837   5.996  12.263 -0.6155 -0.5051  0.4030
 6171TIP3   OH239927   3.123   4.930  15.301 -0.8240 -0.3690  0.3540
 6171TIP3    H139928   3.203   4.981  15.291 -1.1435 -0.2104 -1.6510
 6171TIP3    H239929   3.151   4.849  15.344 -0.0238  0.7046  1.9133
 6172TIP3   OH239930   3.549   6.486  16.173  0.0543  0.2304  0.3501
 6172TIP3    H139931   3.519   6.428  16.243 -0.1655  1.2290  1.0925
 6172TIP3    H239932   3.573   6.427  16.102 -0.4409 -0.7578  0.9916
 6173TIP3   OH239933   3.012   5.573  14.126  0.6163 -0.5097  0.4725
 6173TIP3    H139934   2.962   5.492  14.115  2.2950 -1.6911  1.2704
 6173TIP3    H239935   3.002   5.595  14.219 -0.8855  0.9314 -0.0050
 6174TIP3   OH239936   3.875   2.546  13.097  0.4388  0.4506 -0.0331
 6174TIP3    H139937   3.793   2.496  13.102  0.3625  0.4563 -1.1088
 6174TIP3    H239938   3.938   2.493  13.146 -0.1138  0.2421  0.4578
 6175TIP3   OH239939   5.239   5.054   2.453 -0.0438  0.0626 -0.5036
 6175TIP3    H139940   5.244   5.143   2.419 -4.4710  0.4150 -0.5292
 6175TIP3    H239941   5.225   5.065   2.547  0.6824 -0.6364 -0.3069
 6176TIP3   OH239942   1.804   4.175  15.697  0.6933 -0.6425  0.1314
 6176TIP3    H139943   1.716   4.183  15.735  0.7610 -0.6352  0.2871
 6176TIP3    H239944   1.836   4.265  15.693  0.4095 -0.5709 -0.6087
 6177TIP3   OH239945   4.292   6.575  10.972 -0.4379 -0.3053  0.2696
 6177TIP3    H139946   4.233   6.508  10.939 -0.6847 -0.0395  0.1685
 6177TIP3    H239947   4.286   6.646  10.909 -1.1387  0.3248  1.0296
 6178TIP3   OH239948   1.621   3.311   1.432  0.4353 -0.0623  0.2003
 6178TIP3    H139949   1.711   3.316   1.463  0.4434 -0.1743  0.1975
 6178TIP3    H239950   1.582   3.395   1.454  0.0461 -0.6418  1.7886
 6179TIP3   OH239951   1.769   3.988   6.333 -0.1578 -0.9487  0.1862
 6179TIP3    H139952   1.770   4.077   6.369 -1.1816 -0.9345  0.1848
 6179TIP3    H239953   1.806   3.935   6.403 -2.6406 -0.9980  1.5299
 6180TIP3   OH239954   5.115   3.779   4.039  0.8763  0.1612  0.2267
 6180TIP3    H139955   5.024   3.803   4.055  0.8931 -0.4236  1.2425
 6180TIP3    H239956   5.113   3.730   3.957  0.3610  0.6033 -0.0313
 6181TIP3   OH239957   1.647   5.620  15.263  0.2290 -0.2795 -0.3573
 6181TIP3    H139958   1.696   5.635  15.345  0.7304  0.2565 -0.7443
 6181TIP3    H239959   1.556   5.609  15.291  0.0461  2.1360  0.0940
 6182TIP3   OH239960   6.171   1.654  16.867 -0.3184  0.1641  0.0361
 6182TIP3    H139961   6.094   1.673  16.814  1.0130  0.8708 -1.6997
 6182TIP3    H239962   6.205   1.740  16.890  0.1974 -0.1418  0.4250
 6183TIP3   OH239963   3.508   5.722   6.129  0.7215 -0.2696  0.2756
 6183TIP3    H139964   3.492   5.799   6.074  0.1847 -0.6675 -0.1179
 6183TIP3    H239965   3.421   5.688   6.149  1.0177 -1.8377 -1.0282
 6184TIP3   OH239966   6.538   6.497  11.588 -0.0171 -0.3326  0.1277
 6184TIP3    H139967   6.587   6.465  11.664 -0.0385 -0.9242 -0.1091
 6184TIP3    H239968   6.498   6.419  11.550 -2.2092  0.3048  1.0643
 6185TIP3   OH239969   3.886   6.509  14.194 -0.2360  0.4985  0.2572
 6185TIP3    H139970   3.805   6.461  14.181  0.7326 -1.2595  0.6519
 6185TIP3    H239971   3.936   6.495  14.114  0.0618  0.8248  0.3820
 6186TIP3   OH239972   3.823   5.195   2.563  0.9363 -0.5042  0.0892
 6186TIP3    H139973   3.862   5.201   2.476  1.5707  0.2807  0.4150
 6186TIP3    H239974   3.778   5.110   2.564  0.1431 -0.1303 -1.3144
 6187TIP3   OH239975   3.851   3.542  15.818  0.1193  0.9214 -0.2329
 6187TIP3    H139976   3.776   3.483  15.820  0.6839  0.1504 -1.0121
 6187TIP3    H239977   3.814   3.630  15.816 -0.7275  0.6947  2.9641
 6188TIP3   OH239978   3.597   0.618  15.942 -0.5011 -0.2583 -0.0534
 6188TIP3    H139979   3.670   0.581  15.991  0.0011 -0.3348 -0.8467
 6188TIP3    H239980   3.618   0.711  15.935  0.6278 -0.6401 -2.1528
 6189TIP3   OH239981   0.938   1.577  14.592  0.1176  0.6433  0.0900
 6189TIP3    H139982   1.028   1.590  14.621  0.3208 -1.5302  0.5474
 6189TIP3    H239983   0.913   1.491  14.627 -1.1734 -0.0462 -2.3539
 6190TIP3   OH239984   5.512   1.188  16.648 -0.3094 -0.4524 -0.0648
 6190TIP3    H139985   5.492   1.220  16.560 -1.0123  0.3116  0.3616
 6190TIP3    H239986   5.607   1.175  16.648 -0.1857  0.3976 -0.6701
 6191TIP3   OH239987   5.072   1.157   1.755 -0.0704 -0.1809  0.5479
 6191TIP3    H139988   5.045   1.182   1.667 -2.0883  1.3749  1.5792
 6191TIP3    H239989   5.015   1.084   1.778 -0.4139  0.2429  1.0448
 6192TIP3   OH239990   6.739   6.508  10.894 -0.5751 -0.3472  0.0693
 6192TIP3    H139991   6.758   6.566  10.967  3.0284 -1.1134 -0.1437
 6192TIP3    H239992   6.758   6.560  10.816  0.6257 -1.1306 -0.1717
 6193TIP3   OH239993   1.639   1.311  12.134 -0.2495 -0.5594 -0.0187
 6193TIP3    H139994   1.690   1.240  12.096 -0.7972 -1.3230  0.6427
 6193TIP3    H239995   1.691   1.389  12.119  0.5551 -1.1649 -0.3989
 6194TIP3   OH239996   5.452   3.284  17.053 -0.1171  0.1045  0.3211
 6194TIP3    H139997   5.470   3.361  17.107 -1.5602 -0.4947  1.7032
 6194TIP3    H239998   5.428   3.216  17.116  0.6546 -1.3340 -0.9212
 6195TIP3   OH239999   1.745   5.438   1.818  0.7960 -0.3801  0.1269
 6195TIP3    H140000   1.776   5.513   1.768  1.3934 -1.9613 -1.9933
 6195TIP3    H240001   1.782   5.449   1.905 -1.6819  3.3581  0.8279
 6196TIP3   OH240002   0.852   0.091   0.681  0.2833  0.4140  0.1323
 6196TIP3    H140003   0.855   0.082   0.777 -0.4809 -0.5362  0.0786
 6196TIP3    H240004   0.875   0.005   0.648 -1.7546  0.0731 -0.4951
 6197TIP3   OH240005   1.229   0.145   4.009  0.0128 -0.1959  0.5555
 6197TIP3    H140006   1.261   0.133   4.099  0.1104 -0.5601  0.4746
 6197TIP3    H240007   1.266   0.229   3.982  1.7752 -1.0879  0.1072
 6198TIP3   OH240008   4.586   6.659   2.902  0.5371  0.0216 -0.5475
 6198TIP3    H140009   4.494   6.634   2.895  0.1445  1.0021  0.9550
 6198TIP3    H240010   4.624   6.593   2.960  0.7008 -0.1634 -0.8636
 6199TIP3   OH240011   3.148   0.602  13.738 -0.4584 -0.2560 -0.5457
 6199TIP3    H140012   3.060   0.614  13.773 -0.1926  0.5657 -0.1455
 6199TIP3    H240013   3.162   0.507  13.740 -0.7166 -0.2657  0.9202
 6200TIP3   OH240014   1.086   4.546   4.909 -0.2189  0.4294  0.5501
 6200TIP3    H140015   1.180   4.559   4.921  0.0828 -0.3275 -0.9017
 6200TIP3    H240016   1.064   4.473   4.967  0.5406 -0.8665 -0.7422
 6201TIP3   OH240017   4.254   5.935  14.126 -0.0233 -0.3231 -0.6857
 6201TIP3    H140018   4.230   6.028  14.126  0.9899 -0.0556 -0.5292
 6201TIP3    H240019   4.291   5.920  14.213 -1.6718 -1.2804 -0.1275
 6202TIP3   OH240020   2.929   3.537   5.919 -0.0308 -0.7635 -0.2016
 6202TIP3    H140021   3.016   3.526   5.882 -0.3363 -2.6306 -0.4388
 6202TIP3    H240022   2.944   3.558   6.011  0.6788  0.7441 -0.6432
 6203TIP3   OH240023   1.864   0.175  13.528 -0.8676  0.1492 -0.0201
 6203TIP3    H140024   1.955   0.168  13.501 -0.4437  1.2560  1.0792
 6203TIP3    H240025   1.867   0.175  13.624 -2.2298 -2.3329  0.0925
 6204TIP3   OH240026   2.384   1.326   2.589 -0.1563  0.3044  0.7136
 6204TIP3    H140027   2.457   1.275   2.554  0.1784  1.4994 -0.3990
 6204TIP3    H240028   2.310   1.304   2.532  0.2587  1.8569 -0.4615
 6205TIP3   OH240029   2.793   3.840   5.418  0.1925 -0.2543 -0.1209
 6205TIP3    H140030   2.743   3.870   5.493 -2.0033 -1.3793 -1.1012
 6205TIP3    H240031   2.751   3.882   5.343  0.7130 -1.1962 -0.9550
 6206TIP3   OH240032   1.012   6.050   5.191  0.4442 -0.3200  0.6053
 6206TIP3    H140033   1.085   6.096   5.232  0.7662 -0.7129  0.4767
 6206TIP3    H240034   1.051   6.004   5.117 -0.1403  0.3755 -0.1416
 6207TIP3   OH240035   3.107   4.229  13.439  0.7413  0.9571 -0.2054
 6207TIP3    H140036   3.178   4.270  13.388  0.7208  1.1394 -0.0850
 6207TIP3    H240037   3.090   4.146  13.393 -0.2930  1.7948 -1.3644
 6208TIP3   OH240038   3.596   6.699   2.026  0.3102 -0.2114 -0.3521
 6208TIP3    H140039   3.636   6.780   1.994  1.4643 -0.6496 -0.0369
 6208TIP3    H240040   3.661   6.663   2.086  0.4238 -2.1044 -1.5830
 6209TIP3   OH240041   0.897   2.202   5.572  0.4724  0.1168 -0.1257
 6209TIP3    H140042   0.858   2.123   5.610  0.0562 -0.2955 -1.3698
 6209TIP3    H240043   0.983   2.208   5.613  0.0785 -0.3881  0.7768
 6210TIP3   OH240044   1.990   2.283   0.673  0.0102  0.3456  0.0024
 6210TIP3    H140045   2.009   2.346   0.604  0.2562 -2.0636 -2.1859
 6210TIP3    H240046   1.898   2.261   0.662  0.4989 -1.4179 -0.7504
 6211TIP3   OH240047   5.904   2.698   2.747  0.3649 -0.1808 -0.3030
 6211TIP3    H140048   5.986   2.729   2.784  0.7477  0.4803 -1.6708
 6211TIP3    H240049   5.928   2.666   2.659 -0.6066 -1.1996 -0.2188
 6212TIP3   OH240050   5.386   0.995   0.535  0.7590  0.1144  0.1526
 6212TIP3    H140051   5.480   1.013   0.543  0.3767  2.2934  0.1311
 6212TIP3    H240052   5.346   1.042   0.608 -0.3919 -0.1549 -0.2885
 6213TIP3   OH240053   3.610   3.010  15.648  0.4221  0.0059 -0.3627
 6213TIP3    H140054   3.689   2.960  15.627  0.1506 -0.8748  0.6770
 6213TIP3    H240055   3.606   3.078  15.581  3.0008  1.0918  0.4977
 6214TIP3   OH240056   1.233   3.743   1.516  0.8652 -0.4349  0.1786
 6214TIP3    H140057   1.187   3.717   1.436 -0.4587 -1.7060  1.3229
 6214TIP3    H240058   1.309   3.685   1.521  1.2942  0.0633 -0.4680
 6215TIP3   OH240059   2.961   3.812   0.287 -0.2345 -0.4418  0.1140
 6215TIP3    H140060   2.990   3.777   0.204  0.4952 -1.1304  0.6579
 6215TIP3    H240061   2.865   3.811   0.281 -0.2278 -2.3867  0.0670
 6216TIP3   OH240062   3.782   2.834  12.634 -0.1052  0.2061 -0.0327
 6216TIP3    H140063   3.819   2.758  12.588  0.7327  0.7906 -0.3433
 6216TIP3    H240064   3.768   2.803  12.723  0.5634 -0.2180 -0.0675
 6217TIP3   OH240065   5.354   1.483   1.887  0.2781 -0.6966 -0.8258
 6217TIP3    H140066   5.300   1.498   1.810 -1.2865 -1.6892  0.0423
 6217TIP3    H240067   5.325   1.398   1.920 -0.7670  0.7532  2.1789
 6218TIP3   OH240068   0.404   1.803  10.340 -0.1110  0.0490 -0.1816
 6218TIP3    H140069   0.377   1.884  10.384  0.0890  0.7763 -1.3672
 6218TIP3    H240070   0.328   1.777  10.289 -0.1888 -0.5369  0.2339
 6219TIP3   OH240071   1.453   3.490   5.826 -0.1807  0.0024 -0.0371
 6219TIP3    H140072   1.423   3.527   5.743  0.0771  1.5956  0.5530
 6219TIP3    H240073   1.446   3.395   5.814  2.0051  0.1107 -2.6856
 6220TIP3   OH240074   0.056   0.993   2.723 -0.1539  1.0341  0.6006
 6220TIP3    H140075   0.082   1.072   2.770 -1.9604  3.3171 -2.0838
 6220TIP3    H240076  -0.015   0.956   2.776  0.4480  1.4227  1.6840
 6221TIP3   OH240077   3.511   2.669   4.256 -0.2072 -0.2017 -0.0779
 6221TIP3    H140078   3.567   2.662   4.179 -0.6790 -0.9409 -0.3560
 6221TIP3    H240079   3.456   2.591   4.253  0.5666 -0.8200  1.6389
 6222TIP3   OH240080   4.670   0.913  15.370 -0.5384 -0.1458 -0.1211
 6222TIP3    H140081   4.671   1.009  15.360  0.6488  0.1580  2.3190
 6222TIP3    H240082   4.579   0.888  15.355 -1.2307  1.6264  0.9241
 6223TIP3   OH240083   6.393   5.742  15.050 -0.3942 -0.1951  0.7262
 6223TIP3    H140084   6.327   5.712  14.987 -0.8853  1.6585  0.3387
 6223TIP3    H240085   6.477   5.725  15.007 -0.6361 -1.7139  0.8374
 6224TIP3   OH240086   1.655   2.378   0.876  0.5416  0.0128 -0.1773
 6224TIP3    H140087   1.648   2.447   0.942 -1.3635  1.2531 -1.5833
 6224TIP3    H240088   1.696   2.305   0.921 -0.9585  0.7264  2.4544
 6225TIP3   OH240089   6.203   4.069   3.096 -0.0896 -0.3877  0.3985
 6225TIP3    H140090   6.240   4.035   3.178  0.2100  0.2759  0.5397
 6225TIP3    H240091   6.109   4.052   3.104  0.0371 -1.0853  0.5110
 6226TIP3   OH240092   6.161   5.493   2.254  0.0853 -0.3088 -0.5110
 6226TIP3    H140093   6.127   5.429   2.315 -1.1790  0.7500 -0.0694
 6226TIP3    H240094   6.192   5.442   2.179  1.1202 -1.5634  0.7646
 6227TIP3   OH240095   1.317   1.600   4.916 -0.0775  0.8374 -0.4403
 6227TIP3    H140096   1.362   1.603   4.832  0.6560  1.4321 -0.0369
 6227TIP3    H240097   1.267   1.519   4.914 -1.2631  1.5813 -2.0618
 6228TIP3   OH240098   3.921   1.885  16.427  0.5855  0.3117 -0.5288
 6228TIP3    H140099   3.830   1.895  16.457 -0.1282 -2.1845 -1.7517
 6228TIP3    H240100   3.948   1.800  16.462  1.9855  0.3967 -1.3897
 6229TIP3   OH240101   4.272   2.555   3.754  0.0469 -0.0210  0.0035
 6229TIP3    H140102   4.354   2.600   3.736 -0.2424 -0.1195 -1.7222
 6229TIP3    H240103   4.254   2.505   3.674 -1.8911  0.3178  0.1858
 6230TIP3   OH240104   3.926   4.120  13.218  0.0416 -0.1784  0.0558
 6230TIP3    H140105   3.874   4.051  13.259  1.1253 -0.5533  0.8303
 6230TIP3    H240106   3.996   4.073  13.172  0.2450  0.3574 -0.1848
 6231TIP3   OH240107   6.191   2.321   2.526 -0.1155 -0.9464 -0.3565
 6231TIP3    H140108   6.105   2.337   2.565 -1.0049 -1.6030 -2.0109
 6231TIP3    H240109   6.229   2.251   2.578 -0.6186 -0.7162  0.3223
 6232TIP3   OH240110   4.020   5.447   3.415  0.1885  0.1348  0.3085
 6232TIP3    H140111   4.016   5.369   3.359  0.5260 -1.5653  2.5519
 6232TIP3    H240112   3.937   5.445   3.463 -0.1366  1.6254 -0.1755
 6233TIP3   OH240113   3.601   2.036   4.255  0.3563  0.4255 -0.0473
 6233TIP3    H140114   3.616   1.942   4.255 -1.7607  0.0286 -2.2020
 6233TIP3    H240115   3.680   2.073   4.218  0.3732 -0.6782 -1.1292
 6234TIP3   OH240116   1.622   1.914   5.290 -0.3111 -0.4635  0.2195
 6234TIP3    H140117   1.716   1.899   5.293 -0.3867 -1.0793 -0.4267
 6234TIP3    H240118   1.603   1.934   5.198 -0.8630 -0.7311  0.2680
 6235TIP3   OH240119   4.383   1.903  12.788 -0.2308  0.4661  0.1008
 6235TIP3    H140120   4.416   1.963  12.855 -1.8143  2.0503 -0.4999
 6235TIP3    H240121   4.462   1.861  12.753  0.6740  0.1866  2.4051
 6236TIP3   OH240122   5.407   3.573  15.752  0.0254 -0.4420  0.7104
 6236TIP3    H140123   5.471   3.543  15.688 -0.7804 -0.2298 -0.2021
 6236TIP3    H240124   5.339   3.617  15.701  0.1905  1.2079  1.8593
 6237TIP3   OH240125   3.661   0.187  11.687  0.4813 -0.8877  0.1893
 6237TIP3    H140126   3.741   0.169  11.637  1.0307  1.9888 -0.0566
 6237TIP3    H240127   3.613   0.105  11.685  1.8523 -1.6996 -2.6293
 6238TIP3   OH240128   4.059   2.813   2.609 -0.1413  0.2840  0.2742
 6238TIP3    H140129   3.965   2.830   2.598  0.0471  1.6694  0.6702
 6238TIP3    H240130   4.099   2.843   2.528  0.0197  0.2142  0.3266
 6239TIP3   OH240131   1.324   5.107  13.989  0.0368  0.3481  0.8788
 6239TIP3    H140132   1.398   5.104  13.928 -1.5696 -1.2125 -1.0655
 6239TIP3    H240133   1.342   5.036  14.051  0.8832  0.9123  1.2888
 6240TIP3   OH240134   3.063   2.420   4.869 -0.6296 -0.4655 -0.6420
 6240TIP3    H140135   3.001   2.453   4.804  0.2964  0.6618 -0.9539
 6240TIP3    H240136   3.082   2.331   4.840 -2.0957 -0.8328 -0.5428
 6241TIP3   OH240137   5.499   6.572   5.277 -0.3161 -0.2720 -0.2978
 6241TIP3    H140138   5.581   6.522   5.275  0.0216  0.2975 -2.2174
 6241TIP3    H240139   5.466   6.563   5.366  1.8362 -0.5177  0.4793
 6242TIP3   OH240140   0.208   5.290   1.297 -0.1591  0.0620 -0.2590
 6242TIP3    H140141   0.192   5.350   1.224  3.0379 -0.6658 -1.6160
 6242TIP3    H240142   0.300   5.305   1.321 -0.2749 -1.9296  1.5807
 6243TIP3   OH240143   3.822   0.723   4.149 -0.1129 -0.1341 -0.0572
 6243TIP3    H140144   3.891   0.744   4.212 -0.4346  1.0573 -0.0726
 6243TIP3    H240145   3.801   0.631   4.165 -0.9451  0.4382  2.3306
 6244TIP3   OH240146   3.518   4.004   5.350 -0.2010  0.2292  0.3679
 6244TIP3    H140147   3.525   4.098   5.331  1.1422  0.2508  0.9422
 6244TIP3    H240148   3.424   3.985   5.343 -0.7968  2.1232  2.6040
 6245TIP3   OH240149   3.595   5.331   1.635 -0.0334  0.0226  0.4010
 6245TIP3    H140150   3.546   5.413   1.645 -0.4831 -0.4527  2.2782
 6245TIP3    H240151   3.576   5.282   1.715  0.9262 -1.5502 -0.3201
 6246TIP3   OH240152   4.429   1.684   1.554 -0.4345 -0.4369  0.1352
 6246TIP3    H140153   4.410   1.715   1.465 -1.0193  0.0485  0.4246
 6246TIP3    H240154   4.442   1.590   1.544  1.1165 -0.1449 -0.7091
 6247TIP3   OH240155   4.917   6.610   1.125  0.2297 -0.1708  0.4134
 6247TIP3    H140156   4.982   6.584   1.060 -0.9949 -0.6498 -0.6505
 6247TIP3    H240157   4.944   6.697   1.153  3.2206 -1.6682  2.4730
 6248TIP3   OH240158   5.071   4.536   4.668  0.1934 -0.3770 -0.0509
 6248TIP3    H140159   5.072   4.567   4.578 -1.1596 -0.3669 -0.0803
 6248TIP3    H240160   4.981   4.505   4.682  0.8833 -2.1054  0.7115
 6249TIP3   OH240161   4.145   0.693  16.111  0.5451 -0.4991 -0.7167
 6249TIP3    H140162   4.176   0.784  16.108  1.0097 -0.6424 -0.3897
 6249TIP3    H240163   4.116   0.681  16.202 -0.5813 -0.3350 -1.0416
 6250TIP3   OH240164   4.496   2.722  13.723  0.3742  0.2927 -0.0747
 6250TIP3    H140165   4.578   2.772  13.719  0.3862  0.2162 -0.9253
 6250TIP3    H240166   4.449   2.747  13.643 -0.8097  0.9818  0.8313
 6251TIP3   OH240167   0.677   6.504  14.481 -0.0862 -0.4281 -0.3682
 6251TIP3    H140168   0.626   6.555  14.417 -0.4694 -0.7988 -0.3617
 6251TIP3    H240169   0.619   6.495  14.556  0.7856  0.9731  0.4880
 6252TIP3   OH240170   3.388   2.696   5.195  0.5671 -0.1981 -0.0724
 6252TIP3    H140171   3.450   2.767   5.214  0.4157  0.2604 -1.2353
 6252TIP3    H240172   3.311   2.740   5.160  0.2336 -0.8874 -0.2153
 6253TIP3   OH240173   3.390   2.663  13.467 -0.5891  0.2238  0.0356
 6253TIP3    H140174   3.369   2.601  13.536  1.0928 -0.4100 -0.0014
 6253TIP3    H240175   3.396   2.748  13.511  0.5326 -0.1864  0.6968
 6254TIP3   OH240176   2.290   0.290  12.878 -0.0696 -0.4923  0.0924
 6254TIP3    H140177   2.382   0.265  12.865 -0.0725  0.0714 -1.1205
 6254TIP3    H240178   2.270   0.263  12.967  2.1636  2.1542  1.4721
 6255TIP3   OH240179   6.344   0.163  15.200  0.3588 -0.2518  0.1190
 6255TIP3    H140180   6.348   0.250  15.160  1.0906  0.4059  1.5712
 6255TIP3    H240181   6.256   0.158  15.237  0.7306  0.3872  1.1198
 6256TIP3   OH240182   3.497   3.880  12.281  0.6733 -0.0497  0.1530
 6256TIP3    H140183   3.482   3.786  12.282  0.3955  0.0068  1.4434
 6256TIP3    H240184   3.571   3.892  12.222 -0.1353 -0.9428 -1.0740
 6257TIP3   OH240185   6.410   0.420   3.973 -0.6819  0.3385 -0.0355
 6257TIP3    H140186   6.460   0.463   4.043 -0.6942  0.3174 -0.0134
 6257TIP3    H240187   6.386   0.491   3.914  1.3741  0.0245 -1.2899
 6258TIP3   OH240188   0.463   5.771  12.094  0.1438 -0.4078  0.2401
 6258TIP3    H140189   0.427   5.859  12.084  1.9331  0.3924  0.7655
 6258TIP3    H240190   0.430   5.741  12.179  2.9032  1.3936  1.9902
 6259TIP3   OH240191   6.372   2.632  16.927  0.6082 -0.2775  0.4938
 6259TIP3    H140192   6.449   2.606  16.876  0.4391  0.0027  0.0896
 6259TIP3    H240193   6.298   2.590  16.883  0.2814  1.2192 -0.4249
 6260TIP3   OH240194   5.848   1.231  15.486 -0.3031 -0.4392 -0.0974
 6260TIP3    H140195   5.767   1.245  15.536 -1.1527  1.0004 -1.8045
 6260TIP3    H240196   5.817   1.213  15.397  1.2557 -0.2720 -0.6762
 6261TIP3   OH240197   0.030   2.031   3.841  0.0869  0.3952 -0.2710
 6261TIP3    H140198   0.002   2.065   3.755  0.9899 -0.1518 -0.7922
 6261TIP3    H240199   0.123   2.050   3.844 -0.1445  1.3777  1.0594
 6262TIP3   OH240200   6.121   2.938   4.361  0.2537  0.0550  0.1213
 6262TIP3    H140201   6.113   2.976   4.449  0.0005  0.3695 -0.0357
 6262TIP3    H240202   6.034   2.948   4.322  0.4821  0.3401 -0.3311
 6263TIP3   OH240203   1.475   3.440  11.571 -0.3031 -0.5152  0.0585
 6263TIP3    H140204   1.511   3.360  11.609 -0.9646 -0.5786  0.5621
 6263TIP3    H240205   1.380   3.428  11.576 -0.4135  0.5810  0.7581
 6264TIP3   OH240206   2.751   2.129  16.750 -0.5918 -0.3319 -0.5473
 6264TIP3    H140207   2.736   2.207  16.804  0.2148  0.3019 -1.2269
 6264TIP3    H240208   2.777   2.163  16.664  0.0443 -1.3523 -0.7742
 6265TIP3   OH240209   2.571   4.052   2.368 -0.4381  0.0708  0.1226
 6265TIP3    H140210   2.549   4.143   2.390 -1.7228 -0.1440 -0.2249
 6265TIP3    H240211   2.502   4.025   2.308 -0.5204 -1.3928  0.8662
 6266TIP3   OH240212   1.786   2.434   2.988 -0.5585 -0.4281 -0.0700
 6266TIP3    H140213   1.694   2.425   2.963 -0.2729 -0.0524 -1.3194
 6266TIP3    H240214   1.824   2.488   2.918 -0.3804  3.2823  2.7404
 6267TIP3   OH240215   2.442   1.455   1.230  0.4201  0.0317  0.3835
 6267TIP3    H140216   2.383   1.515   1.276  0.6368  2.5715 -2.5106
 6267TIP3    H240217   2.530   1.489   1.249  0.6743 -0.6854  0.4971
 6268TIP3   OH240218   3.020   0.807  15.928  0.1614  0.3523  0.1212
 6268TIP3    H140219   3.104   0.775  15.896 -0.5439 -1.1979 -0.2207
 6268TIP3    H240220   2.968   0.727  15.942 -0.7230  1.1999  1.7816
 6269TIP3   OH240221   1.849   3.626   2.579  0.1863 -0.2099 -0.2738
 6269TIP3    H140222   1.778   3.563   2.569  0.4946 -0.5947 -0.0805
 6269TIP3    H240223   1.806   3.707   2.604 -0.4345  0.2628 -2.6942
 6270TIP3   OH240224   1.895   5.884   4.321 -0.2512 -0.2156  0.6550
 6270TIP3    H140225   1.984   5.851   4.333  0.4618 -0.4871 -4.2193
 6270TIP3    H240226   1.842   5.806   4.303 -0.7081  0.2495 -0.0785
 6271TIP3   OH240227   3.844   2.745  15.208  0.5756  0.0534 -0.4857
 6271TIP3    H140228   3.771   2.725  15.268 -1.3163  2.1554 -2.0042
 6271TIP3    H240229   3.862   2.838  15.223  0.5098  0.4400 -2.6945
 6272TIP3   OH240230   3.864   0.992   3.404  0.0685  0.1194  0.1837
 6272TIP3    H140231   3.808   1.052   3.454 -1.4851 -0.9053 -0.2663
 6272TIP3    H240232   3.804   0.948   3.345  1.1628 -1.8816  0.5152
 6273TIP3   OH240233   1.834   4.461  16.168 -0.4914 -0.1510  0.0238
 6273TIP3    H140234   1.850   4.382  16.117 -0.6792 -1.1336  1.4639
 6273TIP3    H240235   1.908   4.518  16.147  0.0520 -1.0145 -0.4377
 6274TIP3   OH240236   6.573   2.225   4.298  0.5723  0.4521 -0.6094
 6274TIP3    H140237   6.539   2.135   4.299  1.1071  0.2482 -0.9474
 6274TIP3    H240238   6.667   2.215   4.307  0.6446  0.9757 -0.7836
 6275TIP3   OH240239   0.309   4.085   4.397  0.1147  0.2331  0.5064
 6275TIP3    H140240   0.392   4.054   4.431  0.1234  1.2963  1.4983
 6275TIP3    H240241   0.251   4.009   4.401  1.1732 -0.6499 -0.6831
 6276TIP3   OH240242   4.169   2.349  14.614  0.0298 -0.1419 -0.1443
 6276TIP3    H140243   4.171   2.444  14.600 -1.5972  0.2351  1.9867
 6276TIP3    H240244   4.133   2.313  14.533  2.2488  0.8794 -1.6368
 6277TIP3   OH240245   6.707   5.661   5.606  0.1952 -0.1004 -0.0403
 6277TIP3    H140246   6.748   5.625   5.685 -0.4555  1.4144  1.0155
 6277TIP3    H240247   6.634   5.602   5.587  0.6629 -0.7593  0.1850
 6278TIP3   OH240248   6.579   0.398  15.166 -0.4712  0.4634 -0.3432
 6278TIP3    H140249   6.501   0.393  15.112  0.9849 -0.8538 -2.3935
 6278TIP3    H240250   6.650   0.365  15.110  0.8326 -2.4591  2.8107
 6279TIP3   OH240251   1.059   2.635  14.742 -0.4332 -0.4901  0.5572
 6279TIP3    H140252   0.970   2.621  14.710  0.0598 -0.6208 -0.7589
 6279TIP3    H240253   1.116   2.610  14.669  0.7107 -1.1710  1.6526
 6280TIP3   OH240254   6.630   3.580  11.615  0.0340  0.4853  0.1117
 6280TIP3    H140255   6.659   3.513  11.677 -2.1930 -1.7737 -1.1876
 6280TIP3    H240256   6.676   3.560  11.534  0.2550  1.2626  0.0384
 6281TIP3   OH240257   0.508   5.400   3.945  0.0322 -0.8283  0.6297
 6281TIP3    H140258   0.420   5.414   3.980 -0.1901 -2.4410  0.7715
 6281TIP3    H240259   0.494   5.368   3.856  0.5046 -0.2845  0.3565
 6282TIP3   OH240260   1.864   0.729  15.104  0.2406  0.0912 -0.2368
 6282TIP3    H140261   1.899   0.711  15.017  2.6934 -1.8786  1.0930
 6282TIP3    H240262   1.864   0.643  15.148 -2.8197  0.7028  1.0629
 6283TIP3   OH240263   1.154   4.483   3.925  0.1651  0.5718  0.1651
 6283TIP3    H140264   1.229   4.542   3.938 -0.5943  1.3119  1.3092
 6283TIP3    H240265   1.089   4.513   3.989  0.9740 -3.5901  3.1583
 6284TIP3   OH240266   0.801   0.046  11.194  0.5081 -0.3840 -0.0203
 6284TIP3    H140267   0.740   0.119  11.207  1.3703  0.3531 -0.0173
 6284TIP3    H240268   0.792   0.024  11.102 -0.4013 -0.8629  0.1765
 6285TIP3   OH240269   2.431   3.821   2.807 -0.0382 -0.5417 -0.0853
 6285TIP3    H140270   2.379   3.744   2.787 -0.1183 -0.5061 -0.0174
 6285TIP3    H240271   2.518   3.788   2.827  0.2936 -0.5065 -1.3998
 6286TIP3   OH240272   3.498   2.577  16.053  0.0451  0.7918  0.0076
 6286TIP3    H140273   3.425   2.516  16.049  0.2773  0.3507  1.8757
 6286TIP3    H240274   3.474   2.640  16.121  0.8398  1.3887 -0.2502
 6287TIP3   OH240275   4.134   5.808  12.031  0.0008 -0.1951  0.6544
 6287TIP3    H140276   4.128   5.898  12.062 -1.4695  0.0018 -0.1369
 6287TIP3    H240277   4.228   5.793  12.017  0.2635  1.1464  0.9522
 6288TIP3   OH240278   1.589   0.800   3.269 -0.0290  0.2563 -0.1029
 6288TIP3    H140279   1.675   0.766   3.245  0.0261 -2.2218  3.2347
 6288TIP3    H240280   1.528   0.752   3.213  0.5887  0.0962 -0.6458
 6289TIP3   OH240281   6.277   0.166   1.607  0.0645 -0.0271  1.0712
 6289TIP3    H140282   6.296   0.152   1.699  0.1651 -0.1473  1.0319
 6289TIP3    H240283   6.268   0.078   1.570  0.5495  0.0122  0.8587
 6290TIP3   OH240284   0.716   4.582   1.274  1.0832 -0.8781  0.6291
 6290TIP3    H140285   0.711   4.495   1.235 -0.7839  0.2316 -1.7321
 6290TIP3    H240286   0.644   4.584   1.337  0.6383 -0.7904  0.1227
 6291TIP3   OH240287   3.362   4.747   0.855  0.1804 -0.1690 -0.3057
 6291TIP3    H140288   3.413   4.803   0.796 -2.7750 -0.9296 -3.7523
 6291TIP3    H240289   3.411   4.665   0.858  1.2203  0.4382 -0.3650
 6292TIP3   OH240290   5.406   3.065  12.873 -0.2961  0.3985 -0.2175
 6292TIP3    H140291   5.417   3.148  12.827 -1.4732  0.0962 -1.0735
 6292TIP3    H240292   5.466   3.005  12.830 -1.1988  0.1866 -1.2266
 6293TIP3   OH240293   2.141   1.714  14.626  0.1899 -0.2574  0.9974
 6293TIP3    H140294   2.207   1.771  14.587  0.4022  0.3817  2.2652
 6293TIP3    H240295   2.190   1.636  14.654 -0.1323 -1.1616 -0.9076
 6294TIP3   OH240296   3.573   2.842  12.234  0.6479 -0.4012  0.0398
 6294TIP3    H140297   3.618   2.793  12.164  0.6778  0.3749 -0.4865
 6294TIP3    H240298   3.640   2.899  12.270  0.6094 -0.7429  0.6573
 6295TIP3   OH240299   6.328   1.078  13.523  0.4648 -0.5264  0.8252
 6295TIP3    H140300   6.268   1.085  13.449  1.3993 -3.0875 -0.2468
 6295TIP3    H240301   6.296   1.143  13.586 -3.5472 -1.8669  0.3608
 6296TIP3   OH240302   4.174   3.891   1.715  0.1387 -0.0361  0.0890
 6296TIP3    H140303   4.151   3.820   1.655 -1.4650 -1.4325  2.2776
 6296TIP3    H240304   4.123   3.966   1.683 -0.2638 -0.6094 -0.6392
 6297TIP3   OH240305   1.122   5.271   2.693  0.2991  0.0865 -0.2788
 6297TIP3    H140306   1.103   5.207   2.625  0.1266 -0.4598  0.2826
 6297TIP3    H240307   1.216   5.289   2.684  0.0693  0.8209 -1.3511
 6298TIP3   OH240308   1.829   4.232  15.055  0.8292 -0.3362 -0.1611
 6298TIP3    H140309   1.802   4.197  14.970  0.4969  0.0187 -0.2025
 6298TIP3    H240310   1.863   4.319  15.035 -1.2030  0.6109  0.3209
 6299TIP3   OH240311   4.187   2.536   2.672  0.1219 -0.2596  0.7802
 6299TIP3    H140312   4.268   2.576   2.704  0.5153 -1.3337  1.1404
 6299TIP3    H240313   4.145   2.605   2.621  0.7560  0.6405  1.4526
 6300TIP3   OH240314   4.943   1.426  16.459 -0.5544 -0.0886  0.0645
 6300TIP3    H140315   4.871   1.389  16.510 -0.4886 -0.1552  0.1092
 6300TIP3    H240316   4.941   1.377  16.377 -0.8142  0.1864 -0.0968
 6301TIP3   OH240317   3.672   4.180  12.620  0.4949 -0.1203 -0.4394
 6301TIP3    H140318   3.636   4.121  12.686  0.2602  0.8699  0.3402
 6301TIP3    H240319   3.739   4.230  12.667  1.7278 -0.7921 -1.4560
 6302TIP3   OH240320   6.288   4.233   2.497 -0.1966  0.3373 -0.4783
 6302TIP3    H140321   6.323   4.303   2.553  0.8904 -1.1895  0.8194
 6302TIP3    H240322   6.366   4.185   2.468 -1.0921 -2.4058  1.4776
 6303TIP3   OH240323   1.807   6.311  14.020  0.5626 -0.6270 -0.1170
 6303TIP3    H140324   1.816   6.315  14.115  0.0435  2.0936 -0.1595
 6303TIP3    H240325   1.804   6.217  14.001 -2.0799 -1.2137  2.7914
 6304TIP3   OH240326   1.138   6.665  15.425 -0.0513  0.7648  0.3507
 6304TIP3    H140327   1.093   6.749  15.421 -0.6518  0.4562  0.5198
 6304TIP3    H240328   1.104   6.624  15.505 -0.7278 -0.1734 -0.4101
 6305TIP3   OH240329   0.296   6.496   6.002 -0.4068  0.6055 -0.0693
 6305TIP3    H140330   0.224   6.442   6.035  0.2959 -1.1862 -1.3866
 6305TIP3    H240331   0.260   6.540   5.924 -1.0393  2.2272  1.1152
 6306TIP3   OH240332   0.419   0.362   3.077 -0.5317 -0.1880  0.7226
 6306TIP3    H140333   0.392   0.412   3.153  0.5482  1.0219  0.3180
 6306TIP3    H240334   0.345   0.368   3.016 -0.4908  0.6975  0.7677
 6307TIP3   OH240335   4.447   1.632  12.673 -0.1127 -0.2320  0.6341
 6307TIP3    H140336   4.398   1.578  12.612 -0.6304  1.3261 -0.3759
 6307TIP3    H240337   4.539   1.614  12.652 -0.2809  0.1942 -0.5597
 6308TIP3   OH240338   1.457   0.439  12.295  0.0708  0.7978 -0.0899
 6308TIP3    H140339   1.383   0.494  12.321  1.1797  2.0903  0.3423
 6308TIP3    H240340   1.475   0.464  12.204  1.2419  1.8972  0.4408
 6309TIP3   OH240341   1.866   4.596   5.265  0.3236 -0.3114  0.0389
 6309TIP3    H140342   1.828   4.520   5.221  0.6666 -0.9711  0.8564
 6309TIP3    H240343   1.798   4.625   5.325  0.3830 -0.2824  0.0918
 6310TIP3   OH240344   0.197   2.078  15.225 -0.3233  0.2809 -0.2559
 6310TIP3    H140345   0.114   2.039  15.252 -0.5979  0.3748 -0.9628
 6310TIP3    H240346   0.238   2.013  15.168  0.4032 -0.0491  0.6280
 6311TIP3   OH240347   4.144   6.613   5.524 -0.2270 -0.7977  0.6705
 6311TIP3    H140348   4.071   6.670   5.548 -0.8736 -1.7201  0.9138
 6311TIP3    H240349   4.164   6.564   5.603  0.8365 -0.3807  0.6822
 6312TIP3   OH240350   5.197   6.746  11.750  0.1463 -0.1886 -0.1008
 6312TIP3    H140351   5.241   6.691  11.815 -1.6416 -1.7016 -0.1276
 6312TIP3    H240352   5.121   6.781  11.797  1.1977  2.1875 -0.1287
 6313TIP3   OH240353   0.095   6.464  11.883  0.5312 -0.6634 -0.4858
 6313TIP3    H140354   0.161   6.398  11.861  0.2740 -0.8375 -0.7358
 6313TIP3    H240355   0.120   6.540  11.832  0.8442 -0.5523 -0.1769
 6314TIP3   OH240356   2.843   0.376  12.137 -0.3836 -0.0581  0.4323
 6314TIP3    H140357   2.887   0.445  12.087 -0.3688 -0.6107 -0.3262
 6314TIP3    H240358   2.778   0.422  12.189 -1.1280  0.4229 -0.8897
 6315TIP3   OH240359   2.686   3.580  17.004  0.0870  0.0266 -0.1184
 6315TIP3    H140360   2.653   3.670  17.014 -1.1496 -0.2760 -1.2364
 6315TIP3    H240361   2.702   3.550  17.093 -1.8280  0.5115  0.4074
 6316TIP3   OH240362   2.831   4.478   3.750 -0.4678 -0.1227 -0.2677
 6316TIP3    H140363   2.885   4.541   3.703 -1.0043 -0.0309 -0.7725
 6316TIP3    H240364   2.818   4.406   3.687  0.8187 -1.1136  0.5860
 6317TIP3   OH240365   4.291   0.257  11.411 -0.3143 -0.8683  0.1326
 6317TIP3    H140366   4.336   0.284  11.491 -0.1814 -1.5120  0.2757
 6317TIP3    H240367   4.279   0.163  11.421  1.7431 -1.3409 -1.6432
 6318TIP3   OH240368   3.407   4.932   2.332 -0.0670 -0.1647 -0.0140
 6318TIP3    H140369   3.403   4.900   2.242 -0.4924 -0.1483 -0.0010
 6318TIP3    H240370   3.379   5.023   2.326 -1.3403 -0.5178  0.3108
 6319TIP3   OH240371   3.930   0.330  16.408 -0.5679 -0.0273 -0.5966
 6319TIP3    H140372   3.997   0.268  16.380 -1.1796 -0.3592 -1.3565
 6319TIP3    H240373   3.850   0.299  16.365 -0.8479  1.3868 -1.1344
 6320TIP3   OH240374   4.603   6.424   6.111  0.2297 -0.3666  0.6505
 6320TIP3    H140375   4.564   6.504   6.076  2.0083  0.8727  1.4557
 6320TIP3    H240376   4.573   6.422   6.202  0.0054 -0.7392  0.5687
 6321TIP3   OH240377   2.344   6.786  12.541  0.0959  0.1978 -0.0539
 6321TIP3    H140378   2.283   6.799  12.614 -0.7051  0.4522 -0.7485
 6321TIP3    H240379   2.382   6.872  12.525 -1.9652  0.8437 -1.8440
 6322TIP3   OH240380   0.950   1.326  13.421 -0.0438 -0.9214 -0.4539
 6322TIP3    H140381   0.921   1.383  13.492  0.3511 -0.9374 -0.2778
 6322TIP3    H240382   0.977   1.387  13.351 -3.4213 -0.9137 -1.8252
 6323TIP3   OH240383   0.100   0.100  12.702 -0.2530  0.3414  0.8619
 6323TIP3    H140384   0.106   0.145  12.618 -0.0987  1.2323  1.3454
 6323TIP3    H240385   0.055   0.161  12.760  0.6639  0.2028  1.7480
 6324TIP3   OH240386   5.273   4.861   4.954 -0.2755  0.8839 -0.1380
 6324TIP3    H140387   5.281   4.788   4.893  1.2233  0.5627  0.4042
 6324TIP3    H240388   5.274   4.939   4.899 -0.2965  0.5427 -0.6171
 6325TIP3   OH240389   3.062   2.050  15.299 -0.2563 -0.2077 -0.1874
 6325TIP3    H140390   3.098   2.101  15.372 -1.1626 -2.4132  1.8661
 6325TIP3    H240391   3.006   1.985  15.340 -0.7811 -1.5374 -2.8751
 6326TIP3   OH240392   6.125   5.947  16.778 -0.0275 -0.5168 -0.2411
 6326TIP3    H140393   6.182   5.872  16.758  0.7215 -0.5141  1.7615
 6326TIP3    H240394   6.163   6.019  16.728  1.3584 -0.6816  0.5272
 6327TIP3   OH240395   4.197   4.685   4.872  0.5508 -0.0502 -0.2385
 6327TIP3    H140396   4.225   4.604   4.830  0.3145  0.0959 -0.6819
 6327TIP3    H240397   4.151   4.733   4.803 -1.4225 -0.5926  0.6588
 6328TIP3   OH240398   6.295   6.083   1.462 -0.0333 -0.1540  0.0333
 6328TIP3    H140399   6.268   6.082   1.553 -1.2649  2.1119 -0.2830
 6328TIP3    H240400   6.333   6.170   1.449  1.0276 -0.7992 -1.3769
 6329TIP3   OH240401   4.291   4.534   2.883 -0.0952 -0.0321  0.0637
 6329TIP3    H140402   4.376   4.498   2.857 -0.1122 -0.8213  1.0820
 6329TIP3    H240403   4.309   4.584   2.962 -0.3488  0.9177 -0.4772
 6330TIP3   OH240404   3.000   4.748   5.277  0.0572 -0.1207 -0.5781
 6330TIP3    H140405   2.968   4.812   5.213 -2.3875  0.4105  1.1249
 6330TIP3    H240406   3.094   4.766   5.283  0.3081 -0.0267 -3.8007
 6331TIP3   OH240407   4.873   4.568  14.017  0.1870  0.0989 -0.1016
 6331TIP3    H140408   4.933   4.493  14.022 -0.2196 -0.1664  1.0188
 6331TIP3    H240409   4.786   4.529  14.022 -0.0252  0.6355  0.3850
 6332TIP3   OH240410   1.995   6.779  10.845 -0.2478 -0.1042 -0.1057
 6332TIP3    H140411   2.027   6.869  10.858  0.0842 -0.4828  1.9643
 6332TIP3    H240412   1.934   6.786  10.772 -0.0932  1.7911 -0.0931
 6333TIP3   OH240413   4.401   3.663   0.574  0.1101  0.1315  0.2224
 6333TIP3    H140414   4.425   3.668   0.482 -1.8937 -0.2832 -0.3587
 6333TIP3    H240415   4.396   3.754   0.603  2.8660  0.2098  0.5245
 6334TIP3   OH240416   3.622   5.368   0.496 -0.6468  0.5600  0.4605
 6334TIP3    H140417   3.564   5.398   0.566 -1.3767  2.1400 -0.7839
 6334TIP3    H240418   3.564   5.321   0.436 -0.0209 -0.8110  0.9163
 6335TIP3   OH240419   2.208   1.744   0.480 -0.0691 -0.1417 -0.1610
 6335TIP3    H140420   2.241   1.655   0.490 -0.1646 -0.0262  1.1413
 6335TIP3    H240421   2.224   1.786   0.564 -2.8228  0.1695  0.2348
 6336TIP3   OH240422   3.035   3.771  11.642  0.2785  0.0312 -0.6457
 6336TIP3    H140423   3.050   3.736  11.730 -1.3202  0.7778 -0.0581
 6336TIP3    H240424   2.968   3.714  11.604 -0.7306  1.1114 -0.5060
 6337TIP3   OH240425   0.967   4.198   2.928  0.5807 -0.3421 -0.0961
 6337TIP3    H140426   1.019   4.278   2.932 -1.6954  1.2254 -0.4775
 6337TIP3    H240427   0.908   4.204   3.003 -1.7833 -0.0618 -1.9052
 6338TIP3   OH240428   0.174   6.257   3.918  0.0194 -0.3881 -0.5989
 6338TIP3    H140429   0.186   6.308   3.838  0.6787 -0.9372 -0.8570
 6338TIP3    H240430   0.148   6.170   3.887  0.6133 -0.6982 -0.2250
 6339TIP3   OH240431   0.241   5.060   4.837  0.8207 -0.5205 -1.2157
 6339TIP3    H140432   0.167   5.041   4.779  0.0789 -0.6149 -0.2378
 6339TIP3    H240433   0.202   5.100   4.914  1.7941 -0.5572 -0.6923
 6340TIP3   OH240434   5.535   5.092  11.507 -0.4124  0.2004  0.2313
 6340TIP3    H140435   5.510   5.119  11.419  2.0486 -0.6121 -0.7679
 6340TIP3    H240436   5.457   5.053  11.544 -0.9594 -1.1512 -2.2876
 6341TIP3   OH240437   6.122   3.053  13.628 -0.4933 -0.0065  0.0509
 6341TIP3    H140438   6.039   3.039  13.674 -1.2877  1.2686 -0.9457
 6341TIP3    H240439   6.107   3.132  13.576  1.7517  0.9210  0.7787
 6342TIP3   OH240440   0.343   6.119  11.660 -0.2009 -0.0114  0.6489
 6342TIP3    H140441   0.319   6.195  11.607  3.0445  1.3594  1.0062
 6342TIP3    H240442   0.438   6.117  11.657 -0.2101 -4.2732  0.4539
 6343TIP3   OH240443   6.280   2.376  14.563  0.1766  0.0502 -0.3830
 6343TIP3    H140444   6.254   2.468  14.564  0.6477  0.2079 -1.2305
 6343TIP3    H240445   6.200   2.328  14.543  0.4679  0.5239 -2.9194
 6344TIP3   OH240446   2.700   3.406  15.885 -0.0944  0.0279 -0.8826
 6344TIP3    H140447   2.618   3.368  15.917 -0.4548 -0.0105 -1.8213
 6344TIP3    H240448   2.674   3.489  15.846  0.1689 -0.4088 -2.0156
 6345TIP3   OH240449   1.443   5.122  12.918  0.2353 -0.2606 -0.2326
 6345TIP3    H140450   1.351   5.146  12.930  0.4918  1.6282 -1.7877
 6345TIP3    H240451   1.440   5.042  12.865 -0.4958  0.2919 -1.0296
 6346TIP3   OH240452   2.516   2.738   1.712  0.1244 -0.4042 -0.2463
 6346TIP3    H140453   2.444   2.752   1.774  0.8225  0.1447  0.4512
 6346TIP3    H240454   2.528   2.823   1.669  0.1762 -0.5658 -0.5496
 6347TIP3   OH240455   0.480   6.297  13.092 -0.4129 -0.9520 -0.1074
 6347TIP3    H140456   0.533   6.377  13.095 -0.6872 -0.6455 -2.4631
 6347TIP3    H240457   0.544   6.226  13.087 -0.1350 -1.0190  3.1298
 6348TIP3   OH240458   4.255   3.460  15.230 -0.0124 -0.2557  0.0755
 6348TIP3    H140459   4.215   3.466  15.143  2.6600  0.1703 -1.1747
 6348TIP3    H240460   4.218   3.534  15.279 -0.7089  0.1432 -1.0501
 6349TIP3   OH240461   2.968   2.388  14.811  0.3431  0.5159  0.1726
 6349TIP3    H140462   2.874   2.400  14.824  0.3026 -1.1337  1.5284
 6349TIP3    H240463   2.977   2.363  14.719 -0.9702 -3.3239  1.0195
 6350TIP3   OH240464   3.393   6.446   5.313 -0.1754  0.2920  0.6014
 6350TIP3    H140465   3.460   6.447   5.244  1.0238 -1.1080  1.7079
 6350TIP3    H240466   3.440   6.473   5.392 -1.0038 -0.3649  1.3170
 6351TIP3   OH240467   1.375   1.363   0.142 -0.5207 -0.2806 -0.4067
 6351TIP3    H140468   1.431   1.359   0.065 -2.0493  0.6361 -1.5955
 6351TIP3    H240469   1.410   1.436   0.193  0.2154 -0.5970 -0.4506
 6352TIP3   OH240470   2.742   2.126  15.220  0.2500 -0.6228 -0.0361
 6352TIP3    H140471   2.791   2.208  15.225 -0.4474 -0.2171  0.1949
 6352TIP3    H240472   2.766   2.079  15.300  1.4025 -1.0837 -0.6276
 6353TIP3   OH240473   6.512   1.667  16.741 -0.2547  0.6886 -0.3928
 6353TIP3    H140474   6.602   1.669  16.773 -0.4021 -0.0851  0.0901
 6353TIP3    H240475   6.481   1.579  16.762 -0.5142  0.3195 -2.2594
 6354TIP3   OH240476   6.384   2.555  11.628  0.2642  0.4358  0.6473
 6354TIP3    H140477   6.400   2.511  11.544  1.5534  1.6097  0.2467
 6354TIP3    H240478   6.289   2.553  11.638 -0.1607  2.3751 -2.0775
 6355TIP3   OH240479   4.995   5.164   0.875  0.3900  0.0511 -0.6588
 6355TIP3    H140480   4.975   5.257   0.874 -0.3923 -0.1079 -0.2235
 6355TIP3    H240481   4.950   5.129   0.798 -2.6143 -0.6151  1.3037
 6356TIP3   OH240482   1.262   1.735   2.810 -0.2212 -0.4746 -0.3219
 6356TIP3    H140483   1.212   1.667   2.764  0.1240 -1.9696  1.4618
 6356TIP3    H240484   1.327   1.687   2.861  2.6832  1.3939 -2.0902
 6357TIP3   OH240485   0.594   3.233  16.301 -0.6055 -0.3807  0.3466
 6357TIP3    H140486   0.539   3.184  16.362 -2.1181 -0.0130 -0.7015
 6357TIP3    H240487   0.546   3.231  16.218  0.5005  0.7796 -0.3453
 6358TIP3   OH240488   2.865   3.554  12.480  0.3506 -0.1027  0.1816
 6358TIP3    H140489   2.919   3.582  12.554  0.9008 -0.4456 -0.0853
 6358TIP3    H240490   2.790   3.612  12.482  1.3807  1.2679 -0.2591
 6359TIP3   OH240491   2.922   0.006   6.267 -0.5207 -0.1703 -0.2264
 6359TIP3    H140492   2.906   0.009   6.361 -3.3408 -1.4428 -0.5979
 6359TIP3    H240493   2.923   0.098   6.240  1.1948  0.2365  1.1588
 6360TIP3   OH240494   5.158   3.865   1.425  0.7855 -0.0683  0.4338
 6360TIP3    H140495   5.164   3.896   1.334  0.9371 -0.7373  0.2128
 6360TIP3    H240496   5.108   3.933   1.470  0.3749  0.0807 -0.2399
 6361TIP3   OH240497   1.007   2.870   1.684 -0.1763 -0.3347 -0.3446
 6361TIP3    H140498   0.999   2.925   1.762  0.7504 -0.9247  0.1816
 6361TIP3    H240499   1.055   2.924   1.621  0.1323 -0.2946 -0.0736
 6362TIP3   OH240500   1.912   1.897  15.509  0.2668 -0.4187  0.5069
 6362TIP3    H140501   1.939   1.910  15.418 -1.6797 -0.7514 -0.1324
 6362TIP3    H240502   1.883   1.984  15.538  1.1632 -0.2488  0.9200
 6363TIP3   OH240503   4.513   0.505  12.231 -0.1412  0.4293 -0.1162
 6363TIP3    H140504   4.484   0.420  12.264 -1.8451  1.1656  0.3487
 6363TIP3    H240505   4.433   0.557  12.225  0.7706  1.7486 -1.1673
 6364TIP3   OH240506   0.292   5.303  16.606 -0.0232  0.2220 -0.4697
 6364TIP3    H140507   0.287   5.262  16.520  0.4356 -0.8977  0.0263
 6364TIP3    H240508   0.380   5.283  16.637 -0.2781  0.3866  0.3714
 6365TIP3   OH240509   4.417   0.514  12.750  0.0031 -0.5021 -0.1808
 6365TIP3    H140510   4.440   0.458  12.677 -0.1186 -0.6283 -0.1219
 6365TIP3    H240511   4.370   0.457  12.811 -0.0205 -0.3651 -0.0691
 6366TIP3   OH240512   2.529   2.734  15.856 -0.3565  0.1610 -0.8622
 6366TIP3    H140513   2.584   2.670  15.810  0.0600  0.6429 -1.0448
 6366TIP3    H240514   2.540   2.815  15.806  1.0916  1.0304  0.8047
 6367TIP3   OH240515   1.941   1.575  11.199  0.2412  0.3030  0.7678
 6367TIP3    H140516   1.897   1.490  11.199 -0.5019  0.6599 -1.5542
 6367TIP3    H240517   1.871   1.638  11.178  1.5759  1.0045 -1.7966
 6368TIP3   OH240518   5.522   3.876  14.545  0.1643  0.0772 -0.8313
 6368TIP3    H140519   5.449   3.832  14.501  1.1458 -1.3494 -1.0725
 6368TIP3    H240520   5.492   3.966  14.558 -2.0895 -0.7851  0.1384
 6369TIP3   OH240521   3.609   4.552   5.337 -0.2423  0.0903 -0.0021
 6369TIP3    H140522   3.663   4.622   5.300  0.6219 -1.0428 -0.9268
 6369TIP3    H240523   3.521   4.589   5.339  0.0923  0.9900 -1.0936
 6370TIP3   OH240524   5.449   6.581   1.328 -0.1699 -0.0931 -0.3150
 6370TIP3    H140525   5.519   6.565   1.265 -0.1143  2.1551 -0.8846
 6370TIP3    H240526   5.370   6.550   1.284  0.0632  0.1788 -0.9321
 6371TIP3   OH240527   2.684   0.813   1.317  0.5553 -0.2659  0.0615
 6371TIP3    H140528   2.748   0.850   1.377  1.7258 -2.1795  0.0355
 6371TIP3    H240529   2.699   0.718   1.321 -1.1208 -0.6148 -1.2416
 6372TIP3   OH240530   3.606   3.182   4.897 -0.2609  0.5028  0.1152
 6372TIP3    H140531   3.636   3.241   4.967  1.3851  0.3602 -0.4526
 6372TIP3    H240532   3.648   3.098   4.916 -0.5290  0.2119 -0.5422
 6373TIP3   OH240533   3.824   3.001   4.032  0.0531  0.4868  0.7504
 6373TIP3    H140534   3.736   2.978   4.003 -0.5978  1.0919  2.2263
 6373TIP3    H240535   3.863   2.918   4.060  0.2297  0.1014 -0.5976
 6374TIP3   OH240536   2.464   0.413  14.220 -0.0010 -0.0192  0.3313
 6374TIP3    H140537   2.437   0.346  14.157  0.9201  0.5943 -0.7316
 6374TIP3    H240538   2.398   0.408  14.290 -0.5528 -1.2855 -0.2631
 6375TIP3   OH240539   0.396   2.856  17.237 -0.7839 -0.5962 -0.4375
 6375TIP3    H140540   0.488   2.838  17.258 -0.6732 -0.6577 -0.9598
 6375TIP3    H240541   0.362   2.900  17.315 -0.3357 -0.6540 -0.2041
 6376TIP3   OH240542   1.715   6.618   5.738  0.0676 -0.2526  0.1522
 6376TIP3    H140543   1.652   6.547   5.725 -1.4834  0.8521  1.3307
 6376TIP3    H240544   1.724   6.624   5.833  1.8669 -0.3026 -0.0162
 6377TIP3   OH240545   1.730   6.381   1.387 -0.4109  0.0395 -0.1526
 6377TIP3    H140546   1.679   6.308   1.422 -2.8493  1.6432 -0.2234
 6377TIP3    H240547   1.772   6.345   1.308  0.4751 -1.9615  1.1876
 6378TIP3   OH240548   5.133   1.690   5.250  0.5650 -0.2881  0.3387
 6378TIP3    H140549   5.086   1.700   5.168  1.5816 -2.2163 -0.5191
 6378TIP3    H240550   5.067   1.659   5.312 -0.3824  1.9619  0.4906
 6379TIP3   OH240551   5.104   0.050   3.966  0.5410  0.0102  0.5096
 6379TIP3    H140552   5.068   0.100   3.893  2.4901 -0.0991 -0.5405
 6379TIP3    H240553   5.069   0.093   4.044 -0.2775  1.0901 -0.4429
 6380TIP3   OH240554   6.450   3.071  15.081 -0.4818 -1.0048  0.9445
 6380TIP3    H140555   6.475   3.162  15.094 -0.6727 -0.3831 -2.4950
 6380TIP3    H240556   6.364   3.064  15.123 -1.1032  0.8021  0.0323
 6381TIP3   OH240557   6.707   3.202   2.022  0.3547  0.1675  0.4641
 6381TIP3    H140558   6.660   3.135   2.071 -0.1097  0.4384  0.3930
 6381TIP3    H240559   6.644   3.274   2.014  0.4750  0.1797 -0.4061
 6382TIP3   OH240560   5.420   2.356   6.035  0.4222  0.2919  0.4026
 6382TIP3    H140561   5.440   2.322   6.122  0.1802 -0.2972  0.2314
 6382TIP3    H240562   5.350   2.420   6.049  1.5046  1.3914  0.8389
 6383TIP3   OH240563   6.414   4.009  12.471  0.1844  0.0147  0.0434
 6383TIP3    H140564   6.350   3.959  12.421 -0.4479  1.2655 -0.4224
 6383TIP3    H240565   6.380   4.007  12.561 -0.0532 -0.0483 -0.0469
 6384TIP3   OH240566   3.000   6.762  13.070 -0.1365 -0.8067 -0.7414
 6384TIP3    H140567   3.012   6.667  13.064 -1.4857 -1.0786  0.6308
 6384TIP3    H240568   3.088   6.798  13.056  0.3697 -2.2513 -1.3641
 6385TIP3   OH240569   0.995   2.272   2.681  0.3350 -0.5795 -0.2234
 6385TIP3    H140570   1.018   2.219   2.757  1.9466 -0.3134 -0.5174
 6385TIP3    H240571   1.063   2.253   2.617  0.0362  0.6304 -0.9107
 6386TIP3   OH240572   6.041   1.588  12.004 -0.1143  0.3848  0.0268
 6386TIP3    H140573   6.021   1.548  11.919  0.2839 -0.9949  0.5703
 6386TIP3    H240574   6.126   1.631  11.991 -0.0744  0.2118 -0.2933
 6387TIP3   OH240575   0.098   6.653  14.252  0.2541  0.1645 -0.2285
 6387TIP3    H140576   0.023   6.666  14.311  0.4277  2.1210 -0.4254
 6387TIP3    H240577   0.101   6.732  14.199  0.4317 -1.3598 -2.5357
 6388TIP3   OH240578   1.247   2.180   0.990 -0.0326  0.1007 -0.0912
 6388TIP3    H140579   1.251   2.150   1.080 -0.7805  1.7678  0.5316
 6388TIP3    H240580   1.214   2.270   0.996 -1.2862 -0.1738 -2.0910
 6389TIP3   OH240581   4.356   1.775   1.309  0.4013 -0.0364 -0.2427
 6389TIP3    H140582   4.444   1.805   1.284  0.3056  0.5529  0.1243
 6389TIP3    H240583   4.302   1.795   1.233  0.4967  0.0043 -0.3005
 6390TIP3   OH240584   2.934   5.840  13.569 -0.1445 -0.2927 -0.3201
 6390TIP3    H140585   2.941   5.802  13.481  0.7650  0.1938 -0.4519
 6390TIP3    H240586   2.913   5.765  13.625  1.2723 -0.9355 -0.6439
 6391TIP3   OH240587   2.946   0.640   4.840  0.0572 -0.3405 -0.1283
 6391TIP3    H140588   2.884   0.574   4.808 -0.0691  0.0952 -0.8024
 6391TIP3    H240589   2.953   0.623   4.934  0.2732 -1.5200 -0.3487
 6392TIP3   OH240590   4.643   5.668   2.968 -0.4375 -0.0883 -0.1674
 6392TIP3    H140591   4.591   5.718   2.905 -1.2304  0.0642  0.6059
 6392TIP3    H240592   4.593   5.588   2.983  0.1050 -0.4464 -0.2864
 6393TIP3   OH240593   1.128   0.256   1.993  0.3920  0.0041  0.6159
 6393TIP3    H140594   1.192   0.220   1.931 -0.4023 -0.9884  0.3606
 6393TIP3    H240595   1.082   0.179   2.027 -1.0875  0.7600  0.3345
 6394TIP3   OH240596   1.006   2.235  11.692 -0.3992 -0.8333  0.1207
 6394TIP3    H140597   1.022   2.288  11.770 -1.4658 -0.3834  0.0499
 6394TIP3    H240598   1.058   2.156  11.705  3.7098  1.5328 -1.1816
 6395TIP3   OH240599   3.552   1.789  16.950  0.5949 -0.2785  0.1913
 6395TIP3    H140600   3.541   1.874  16.907  1.0602 -1.2520 -1.8830
 6395TIP3    H240601   3.639   1.795  16.990  0.7913  0.0890 -0.2793
 6396TIP3   OH240602   2.201   6.562  14.946 -0.3088 -0.0485 -0.0006
 6396TIP3    H140603   2.122   6.615  14.933 -0.5697 -0.4885 -0.2018
 6396TIP3    H240604   2.185   6.516  15.028 -1.2400 -1.8821 -1.1859
 6397TIP3   OH240605   2.496   2.995  12.744 -0.3125  0.2458 -0.1220
 6397TIP3    H140606   2.466   2.983  12.834  0.4829 -1.2288 -0.0248
 6397TIP3    H240607   2.466   2.916  12.699 -0.1987  0.7042 -1.0109
 6398TIP3   OH240608   3.088   3.833   1.073 -1.0069  0.0808  0.1572
 6398TIP3    H140609   3.037   3.752   1.085 -2.2184  0.7918 -0.1668
 6398TIP3    H240610   3.164   3.805   1.022 -2.7471 -0.3813 -2.2513
 6399TIP3   OH240611   0.265   1.177  11.512  0.1532  0.7262  0.5404
 6399TIP3    H140612   0.246   1.264  11.545  1.5978  0.6156  1.7515
 6399TIP3    H240613   0.230   1.118  11.579 -0.6907  0.3799 -0.2038
 6400TIP3   OH240614   0.227   3.536  16.300 -0.2712 -0.4213  0.9116
 6400TIP3    H140615   0.141   3.572  16.320 -0.2687 -0.7313  1.5026
 6400TIP3    H240616   0.210   3.467  16.236 -0.2275  0.8949 -0.5449
 6401TIP3   OH240617   2.220   3.951   5.926 -0.0247 -0.2563 -0.2228
 6401TIP3    H140618   2.279   3.999   5.984  0.1835  0.4889 -1.0359
 6401TIP3    H240619   2.150   3.920   5.983  0.2027  0.4170  0.4331
 6402TIP3   OH240620   1.865   2.609   0.451  0.2734 -0.2108  0.2891
 6402TIP3    H140621   1.828   2.605   0.363 -0.8924  1.3825  0.6837
 6402TIP3    H240622   1.800   2.568   0.507 -0.2773  1.2916  0.7793
 6403TIP3   OH240623   1.792   1.565  14.656  0.3864  0.0987  0.8445
 6403TIP3    H140624   1.744   1.641  14.623 -0.3117 -0.4364  0.6031
 6403TIP3    H240625   1.841   1.598  14.731  1.0927  1.0704 -0.0281
 6404TIP3   OH240626   5.469   0.840  13.919  0.0395 -0.0414 -0.4183
 6404TIP3    H140627   5.469   0.803  14.007 -0.3848  0.4755 -0.2005
 6404TIP3    H240628   5.378   0.836  13.891 -0.0733  1.2264 -0.2310
 6405TIP3   OH240629   6.528   5.234  15.307  0.4951 -0.1041 -0.3362
 6405TIP3    H140630   6.588   5.162  15.329 -0.1329 -1.2207 -2.2037
 6405TIP3    H240631   6.441   5.200  15.331  0.4912  1.1777  1.5525
 6406TIP3   OH240632   4.613   2.558  15.455 -0.5387  0.3921 -0.0637
 6406TIP3    H140633   4.643   2.618  15.523  2.6877 -0.1654 -0.8769
 6406TIP3    H240634   4.518   2.563  15.458 -0.3991  2.6830  2.4061
 6407TIP3   OH240635   1.792   5.262  11.970  0.1440  0.0240 -0.2106
 6407TIP3    H140636   1.834   5.206  12.035  0.0251 -1.5490 -1.4475
 6407TIP3    H240637   1.702   5.229  11.964  0.6498 -1.0458 -2.4598
 6408TIP3   OH240638   3.748   0.064  12.267 -0.4013  0.0516 -0.4475
 6408TIP3    H140639   3.700  -0.017  12.283  0.7770 -0.7047 -0.6374
 6408TIP3    H240640   3.838   0.043  12.291  0.9876 -0.3703 -5.3603
 6409TIP3   OH240641   6.336   6.787   3.175  0.5422 -0.5117 -0.1774
 6409TIP3    H140642   6.314   6.704   3.219  0.7522 -0.0473  0.8307
 6409TIP3    H240643   6.432   6.789   3.176  0.5282  0.1503  0.6070
 6410TIP3   OH240644   2.938   0.384  15.974  0.3225  0.3720  0.1249
 6410TIP3    H140645   2.892   0.467  15.988 -2.1299 -0.6920 -1.3061
 6410TIP3    H240646   2.926   0.337  16.056 -1.1921  0.1007 -0.2368
 6411TIP3   OH240647   4.015   4.042  11.303 -0.1561 -0.4198 -0.3419
 6411TIP3    H140648   3.970   4.041  11.388 -1.0613  0.9162 -0.7951
 6411TIP3    H240649   3.947   4.022  11.239  0.2467 -0.0779 -0.8794
 6412TIP3   OH240650   1.257   1.378   1.493  0.0312  0.2155 -0.4530
 6412TIP3    H140651   1.300   1.452   1.449  1.7128  0.3396  1.3374
 6412TIP3    H240652   1.325   1.341   1.549 -1.6847 -0.7585  1.0333
 6413TIP3   OH240653   6.592   6.362  10.627 -0.1118 -0.2962  0.5539
 6413TIP3    H140654   6.686   6.377  10.624 -0.5207  2.5824  0.6530
 6413TIP3    H240655   6.558   6.406  10.549 -1.2843 -2.2484 -0.0656
 6414TIP3   OH240656   0.437   5.162  13.745 -0.1285 -0.2928  0.3905
 6414TIP3    H140657   0.424   5.256  13.730  2.5331  0.2412  1.1406
 6414TIP3    H240658   0.521   5.157  13.791 -0.7871 -2.9703  1.3770
 6415TIP3   OH240659   0.122   1.515  14.595  0.2884  0.0690  0.1526
 6415TIP3    H140660   0.217   1.518  14.594  0.2875  0.0928 -0.8552
 6415TIP3    H240661   0.095   1.586  14.537 -0.3360 -0.0984  0.2319
 6416TIP3   OH240662   4.081   0.697   1.800  0.8524 -0.5014 -0.5516
 6416TIP3    H140663   4.132   0.616   1.804  1.0980 -0.2665  2.9724
 6416TIP3    H240664   4.146   0.767   1.806  0.2987 -0.1881  2.9578
 6417TIP3   OH240665   2.765   4.333   1.541 -0.0533 -0.4629  0.1017
 6417TIP3    H140666   2.785   4.348   1.448  1.5440  2.2478  0.8175
 6417TIP3    H240667   2.699   4.264   1.541 -1.4158  0.7570 -3.1341
 6418TIP3   OH240668   2.096   1.083   1.415 -0.2700 -0.0954 -0.1949
 6418TIP3    H140669   2.156   1.131   1.473  0.3909 -0.0284 -0.9293
 6418TIP3    H240670   2.009   1.099   1.452 -0.1501  2.4152 -0.9349
 6419TIP3   OH240671   0.134   1.481   3.876 -0.2381 -0.1694 -0.1585
 6419TIP3    H140672   0.164   1.570   3.888  0.9924 -0.5439 -0.4253
 6419TIP3    H240673   0.151   1.438   3.961  0.6554 -0.5684 -0.5323
 6420TIP3   OH240674   2.005   2.504  11.358 -0.1586 -0.2832 -0.1912
 6420TIP3    H140675   1.920   2.470  11.389 -0.9836  0.8444 -1.1614
 6420TIP3    H240676   1.984   2.547  11.275  1.5707 -1.0097 -1.0243
 6421TIP3   OH240677   4.330   4.493  14.255  0.0035 -0.4367 -0.3678
 6421TIP3    H140678   4.285   4.576  14.271  0.3992 -0.3290  0.1874
 6421TIP3    H240679   4.297   4.465  14.169 -0.7486 -0.1134 -0.1911
 6422TIP3   OH240680   5.854   6.385   3.606 -0.1542 -0.0334  0.3740
 6422TIP3    H140681   5.872   6.468   3.650 -1.3927  0.3000  0.2759
 6422TIP3    H240682   5.926   6.328   3.632  1.3959  1.4523 -0.5735
 6423TIP3   OH240683   5.045   4.654   0.942 -0.0381 -0.0073  0.1601
 6423TIP3    H140684   5.056   4.560   0.957 -1.0578 -0.3418 -1.1444
 6423TIP3    H240685   5.070   4.666   0.850 -0.4801  0.9009  0.1630
 6424TIP3   OH240686   0.125   2.648  15.744  0.2090 -0.2759 -0.0647
 6424TIP3    H140687   0.119   2.599  15.662 -0.5446  1.6361 -1.2091
 6424TIP3    H240688   0.216   2.680  15.746  0.6960 -1.7032  0.6784
 6425TIP3   OH240689   2.774   4.950  16.679 -0.5035 -0.0909  0.5302
 6425TIP3    H140690   2.849   4.999  16.712  0.7447 -1.6036 -0.0400
 6425TIP3    H240691   2.703   4.971  16.741  0.3453  1.3952  1.0310
 6426TIP3   OH240692   5.499   0.872  15.387  0.6530  0.1118 -0.5545
 6426TIP3    H140693   5.428   0.833  15.336  0.4294  0.2435 -0.3436
 6426TIP3    H240694   5.499   0.964  15.362  1.6300 -0.1544 -1.5645
 6427TIP3   OH240695   2.653   1.468   0.468  0.4762 -0.6013 -0.5386
 6427TIP3    H140696   2.619   1.404   0.531 -0.1611  0.9062  0.7015
 6427TIP3    H240697   2.580   1.484   0.408  0.3268 -0.3502 -0.2906
 6428TIP3   OH240698   1.742   3.699   2.125 -0.2521  0.0286 -0.0579
 6428TIP3    H140699   1.650   3.720   2.112 -0.0647 -0.5603 -2.5479
 6428TIP3    H240700   1.765   3.641   2.052  1.9301 -0.3052  0.8421
 6429TIP3   OH240701   0.159   1.084  11.141 -0.4601  0.3948  0.2579
 6429TIP3    H140702   0.253   1.081  11.124  0.5306 -0.8277  5.0738
 6429TIP3    H240703   0.145   1.171  11.179 -1.2696  0.5348 -0.3510
 6430TIP3   OH240704   6.434   3.385   2.862  0.3966  0.8733  0.0773
 6430TIP3    H140705   6.363   3.445   2.886  1.9001  2.9336 -0.4598
 6430TIP3    H240706   6.453   3.406   2.771  1.4660  0.1176  0.1213
 6431TIP3   OH240707   4.029   1.178  12.796 -0.1257  0.7984  0.0849
 6431TIP3    H140708   3.982   1.243  12.745  0.2938 -0.5465 -2.0941
 6431TIP3    H240709   3.965   1.108  12.812  0.2660  0.3423 -0.2960
 6432TIP3   OH240710   5.195   1.964  17.047 -0.0709 -0.3613  0.4504
 6432TIP3    H140711   5.162   1.957  17.136 -0.7079  0.3020  0.2705
 6432TIP3    H240712   5.240   1.881  17.031 -0.5961 -0.7774  1.1303
 6433TIP3   OH240713   2.495   1.979   0.155  0.1450  0.3487 -0.4533
 6433TIP3    H140714   2.467   1.891   0.180  0.2380  0.3373 -0.3871
 6433TIP3    H240715   2.586   1.983   0.184  0.0505  0.5720 -0.1938
 6434TIP3   OH240716   3.190   1.089  16.041 -0.0107 -0.7737 -0.3478
 6434TIP3    H140717   3.232   1.026  15.983  0.6571  0.9587 -1.7703
 6434TIP3    H240718   3.145   1.150  15.983  2.0203  1.9433  0.8168
 6435TIP3   OH240719   5.227   2.635   1.348  0.0094  0.0469  0.6287
 6435TIP3    H140720   5.320   2.615   1.356  0.2097  0.4150 -0.5933
 6435TIP3    H240721   5.203   2.603   1.261 -0.8571  0.5127  0.6877
 6436TIP3   OH240722   4.231   3.167  14.926  0.9399  0.4886 -0.0341
 6436TIP3    H140723   4.320   3.131  14.921  0.2473 -1.0921 -1.3865
 6436TIP3    H240724   4.198   3.160  14.836  0.1345  2.8631  0.0446
 6437TIP3   OH240725   5.847   1.073  11.086 -0.3546 -0.4964  0.4964
 6437TIP3    H140726   5.839   1.156  11.135 -0.0926 -0.1113 -0.1037
 6437TIP3    H240727   5.757   1.043  11.075 -0.6065  0.7103 -0.9575
 6438TIP3   OH240728   3.599   1.894  11.490  0.3964 -0.8557 -0.1034
 6438TIP3    H140729   3.534   1.960  11.466 -0.4860 -1.3153  0.9373
 6438TIP3    H240730   3.680   1.943  11.502  0.2590 -0.2822 -1.4641
 6439TIP3   OH240731   0.762   6.287   4.950 -0.4053 -0.4065  0.4948
 6439TIP3    H140732   0.720   6.201   4.950 -0.3279 -0.4449  0.6787
 6439TIP3    H240733   0.817   6.288   4.872 -1.1281 -0.1746 -0.0163
 6440TIP3   OH240734   4.237   6.611   6.132 -0.0860  0.0987  0.0821
 6440TIP3    H140735   4.174   6.655   6.190 -1.7941 -0.4363 -1.3317
 6440TIP3    H240736   4.234   6.519   6.160 -1.1243 -0.2119 -1.0134
 6441TIP3   OH240737   2.049   3.491   1.398 -1.0234 -0.0773  0.1314
 6441TIP3    H140738   2.058   3.483   1.303 -1.1892 -1.7293  0.2405
 6441TIP3    H240739   2.041   3.585   1.413 -0.3207  0.2561 -1.4289
 6442TIP3   OH240740   5.574   5.442  11.309  0.3055 -0.7707 -1.1489
 6442TIP3    H140741   5.523   5.363  11.290 -1.4420  0.0121  0.1601
 6442TIP3    H240742   5.564   5.455  11.403  0.6971  0.9306 -1.3314
 6443TIP3   OH240743   2.462   0.822  14.932 -0.1146  0.1282  0.0693
 6443TIP3    H140744   2.495   0.767  15.003 -1.0577  0.1154  0.5060
 6443TIP3    H240745   2.493   0.910  14.954 -2.1092  0.4738  1.5914
 6444TIP3   OH240746   3.881   5.149  14.036  0.1526 -0.3676  0.1721
 6444TIP3    H140747   3.850   5.062  14.013  0.6655 -0.4775 -0.1200
 6444TIP3    H240748   3.833   5.173  14.115 -0.7366 -0.4920 -0.3324
 6445TIP3   OH240749   1.224   2.781  13.554 -0.0505 -0.1841 -0.0308
 6445TIP3    H140750   1.219   2.852  13.618 -1.3948 -0.8158  0.5675
 6445TIP3    H240751   1.317   2.773  13.535  0.3424  0.1308  1.6940
 6446TIP3   OH240752   5.586   4.208  12.416  0.2767  0.3890  0.2991
 6446TIP3    H140753   5.670   4.228  12.376 -0.0344 -0.6008 -0.8766
 6446TIP3    H240754   5.606   4.145  12.485  0.4429 -0.0931 -0.1970
 6447TIP3   OH240755   1.543   1.325   0.971  0.5158  0.1104  0.0987
 6447TIP3    H140756   1.506   1.241   0.998 -0.5515 -0.1061 -1.9058
 6447TIP3    H240757   1.488   1.353   0.898  3.3017  0.5463 -1.9377
 6448TIP3   OH240758   1.652   0.946   3.493  1.0045  0.0888 -0.1479
 6448TIP3    H140759   1.570   0.973   3.534  1.7232 -0.2426  1.5586
 6448TIP3    H240760   1.624   0.889   3.421 -0.3156  1.3192 -0.6394
 6449TIP3   OH240761   5.522   3.723   5.532  0.8613 -0.1079  0.2847
 6449TIP3    H140762   5.505   3.788   5.463 -1.5621  0.3217  1.2317
 6449TIP3    H240763   5.570   3.771   5.599 -0.5871  0.6610  0.8057
 6450TIP3   OH240764   4.675   2.236   4.155  0.0134  0.1152  0.0432
 6450TIP3    H140765   4.733   2.303   4.118  0.7148 -0.9514 -0.8122
 6450TIP3    H240766   4.623   2.283   4.220 -0.0867  1.6704 -1.1297
 6451TIP3   OH240767   2.580   2.063  12.192 -0.3784  0.3496 -0.1108
 6451TIP3    H140768   2.517   2.127  12.160  2.3612  3.6506  0.7465
 6451TIP3    H240769   2.543   2.031  12.274 -1.2761  1.6664  0.0067
 6452TIP3   OH240770   4.033   1.357   1.851 -0.1312 -0.1623  0.0446
 6452TIP3    H140771   4.093   1.430   1.840  0.4466 -0.4184  1.3149
 6452TIP3    H240772   3.994   1.371   1.937 -2.5210  0.4434 -1.1035
 6453TIP3   OH240773   0.661   6.297   0.013  0.2526 -0.0205  0.2487
 6453TIP3    H140774   0.674   6.355  -0.062 -0.5769  0.4936  0.4893
 6453TIP3    H240775   0.744   6.251   0.023  1.9497  3.1306  1.7391
 6454TIP3   OH240776   2.521   6.038   3.735 -0.1842  0.3905 -0.1673
 6454TIP3    H140777   2.606   6.077   3.750  0.4549 -1.1920  0.4141
 6454TIP3    H240778   2.482   6.030   3.822 -0.6334  0.4509 -0.3590
 6455TIP3   OH240779   4.698   2.500  10.957 -0.2301 -0.3190  0.0664
 6455TIP3    H140780   4.728   2.576  11.006 -0.3666 -1.0275  1.2695
 6455TIP3    H240781   4.779   2.454  10.932 -0.1581  0.0803 -0.4442
 6456TIP3   OH240782   2.119   1.002   4.036 -0.0957  0.0390  0.2122
 6456TIP3    H140783   2.116   0.935   4.104  0.4505  1.0369  1.2523
 6456TIP3    H240784   2.208   0.998   4.002 -0.7819 -1.4459 -1.4974
 6457TIP3   OH240785   5.653   6.144  15.271  0.6020  0.6702  0.2882
 6457TIP3    H140786   5.709   6.220  15.282  3.6299 -1.3172 -0.7103
 6457TIP3    H240787   5.663   6.121  15.178 -0.1563 -1.0273  0.6151
 6458TIP3   OH240788   2.275   1.231   0.280  0.0845 -0.5727  0.5858
 6458TIP3    H140789   2.299   1.193   0.364  1.5847  4.4291  2.5820
 6458TIP3    H240790   2.352   1.221   0.225 -0.3227 -2.3575  0.3206
 6459TIP3   OH240791   0.561   1.269  13.667 -0.4314  0.2758 -0.2114
 6459TIP3    H140792   0.606   1.186  13.651 -1.2097  0.0779 -1.4460
 6459TIP3    H240793   0.468   1.250  13.651 -1.1815  0.3385  3.6287
 6460TIP3   OH240794   5.236   1.137  13.256 -0.1813  0.2950 -0.8030
 6460TIP3    H140795   5.199   1.156  13.343 -0.8382 -0.4025 -0.9268
 6460TIP3    H240796   5.160   1.138  13.198  0.0059 -1.0536 -1.0762
 6461TIP3   OH240797   2.910   1.521   2.034 -0.1662 -0.4934  0.0470
 6461TIP3    H140798   2.985   1.468   2.061  0.1775 -0.0709 -0.0658
 6461TIP3    H240799   2.913   1.596   2.093 -0.5284 -0.5011  0.0714
 6462TIP3   OH240800   1.167   0.931  16.396  0.2724 -0.3814 -0.0931
 6462TIP3    H140801   1.104   0.974  16.454  1.2588  0.6158  0.2580
 6462TIP3    H240802   1.113   0.880  16.336 -0.9612  1.5660 -0.6804
 6463TIP3   OH240803   3.947   6.415   0.240  0.2963  0.0659  0.2491
 6463TIP3    H140804   3.948   6.336   0.295 -1.4668  0.8649  1.4700
 6463TIP3    H240805   4.021   6.467   0.272  1.1105 -0.8237 -0.1688
 6464TIP3   OH240806   6.457   1.347  16.407  0.0169 -0.5591  0.2627
 6464TIP3    H140807   6.393   1.405  16.449  2.1500 -0.0315  2.9319
 6464TIP3    H240808   6.527   1.406  16.381  0.2704 -1.3859 -0.9290
 6465TIP3   OH240809   2.440   5.841   5.148  0.8549  0.1000  0.0886
 6465TIP3    H140810   2.527   5.801   5.154  0.2671 -0.9896  1.7037
 6465TIP3    H240811   2.399   5.823   5.233 -2.0159 -1.8678 -1.6263
 6466TIP3   OH240812   3.894   2.344   5.554 -0.1715 -0.4199  0.4175
 6466TIP3    H140813   3.953   2.399   5.604 -0.3433  0.7242 -0.6138
 6466TIP3    H240814   3.812   2.394   5.550 -0.3128 -0.7177 -0.5768
 6467TIP3   OH240815   3.725   1.981   4.580  0.2400  0.1416  0.0817
 6467TIP3    H140816   3.780   2.040   4.528 -0.0804  1.2856  1.0349
 6467TIP3    H240817   3.759   1.988   4.669 -0.6053 -0.1670  0.4352
 6468TIP3   OH240818   2.578   2.985   2.822  0.2319  0.0834 -0.0220
 6468TIP3    H140819   2.643   2.922   2.791  1.0376  1.9830 -2.4025
 6468TIP3    H240820   2.522   3.001   2.745 -0.0919  2.0567  0.5921
 6469TIP3   OH240821   6.139   4.637  15.536 -0.3116 -0.1040  0.3371
 6469TIP3    H140822   6.057   4.665  15.494 -0.0471 -0.7911 -0.6591
 6469TIP3    H240823   6.205   4.697  15.501 -0.0630 -0.7803 -0.3519
 6470TIP3   OH240824   5.679   3.334  10.854  0.0510 -0.5257  0.0190
 6470TIP3    H140825   5.597   3.349  10.899 -1.2961 -2.8293 -1.5575
 6470TIP3    H240826   5.660   3.353  10.762  1.2882 -1.0967 -0.3732
 6471TIP3   OH240827   3.306   1.968  12.757 -0.0869 -0.0897 -0.6374
 6471TIP3    H140828   3.296   1.875  12.741  0.2290 -0.1556 -0.4502
 6471TIP3    H240829   3.323   2.006  12.671 -1.5644 -0.0274 -0.8994
 6472TIP3   OH240830   6.364   2.633   0.263 -0.1759 -0.4064  0.4682
 6472TIP3    H140831   6.298   2.596   0.203  0.9828 -0.9816 -0.4832
 6472TIP3    H240832   6.421   2.684   0.206 -0.0048  0.3854  1.3490
 6473TIP3   OH240833   0.066   0.873  11.994  0.0683 -0.0693 -0.0322
 6473TIP3    H140834   0.013   0.850  11.918  0.9249  1.1869 -1.0211
 6473TIP3    H240835   0.003   0.904  12.059 -0.3848  1.9327 -1.3846
 6474TIP3   OH240836   0.441   5.708  15.501 -0.4797  0.0084 -0.1227
 6474TIP3    H140837   0.474   5.679  15.586 -0.4669 -0.4157 -0.2698
 6474TIP3    H240838   0.382   5.780  15.522 -0.3230  0.0385  0.2289
 6475TIP3   OH240839   5.256   1.044   5.673 -0.2188 -0.0274 -0.3445
 6475TIP3    H140840   5.170   1.002   5.679  0.2159 -1.0353 -0.9845
 6475TIP3    H240841   5.317   0.978   5.705  0.2155  1.0617  1.0840
 6476TIP3   OH240842   2.423   4.769   3.211  0.5566  0.0820 -0.4083
 6476TIP3    H140843   2.376   4.730   3.285  0.7052 -0.3112 -0.5200
 6476TIP3    H240844   2.515   4.756   3.232  0.6065  0.3855 -0.4416
 6477TIP3   OH240845   0.458   0.266   4.657  0.2807  0.0135 -0.1288
 6477TIP3    H140846   0.482   0.230   4.571  0.9135 -1.2799  0.5805
 6477TIP3    H240847   0.536   0.255   4.710 -0.1728  0.6452  0.6776
 6478TIP3   OH240848   0.517   2.982   1.496 -0.2003  0.0680  0.4795
 6478TIP3    H140849   0.533   3.070   1.461 -1.0033 -0.4531 -1.2410
 6478TIP3    H240850   0.587   2.928   1.461 -1.4563 -0.6266 -1.0447
 6479TIP3   OH240851   3.375   4.679   5.367  0.2023 -0.4071  0.0612
 6479TIP3    H140852   3.306   4.741   5.342  0.2633 -0.0011  0.9051
 6479TIP3    H240853   3.377   4.681   5.462  0.1147 -1.8100  0.1137
 6480TIP3   OH240854   1.116   6.113   3.563  0.2122 -0.2492  0.0909
 6480TIP3    H140855   1.078   6.180   3.506 -0.4486 -0.5571  0.1620
 6480TIP3    H240856   1.044   6.087   3.621  0.6709 -0.4838  0.5574
 6481TIP3   OH240857   6.190   6.526  14.627 -0.4901 -0.5739 -0.0602
 6481TIP3    H140858   6.284   6.515  14.639 -0.8011 -0.7368  2.4688
 6481TIP3    H240859   6.180   6.551  14.535  2.3752  3.2489  0.5377
 6482TIP3   OH240860   5.040   5.440  16.732  0.0059 -0.9120  0.1612
 6482TIP3    H140861   5.077   5.409  16.814  0.2060  0.5817  0.6482
 6482TIP3    H240862   4.947   5.454  16.751  0.0861 -0.4005  0.1896
 6483TIP3   OH240863   4.712   2.633  16.223 -0.3395 -0.2647 -0.1028
 6483TIP3    H140864   4.744   2.609  16.310  0.0221 -0.5711 -0.3163
 6483TIP3    H240865   4.637   2.690  16.239  0.8587  1.2209  0.4268
 6484TIP3   OH240866   5.575   4.827  12.688 -0.2050  0.7235  0.4849
 6484TIP3    H140867   5.588   4.732  12.692 -0.0204  0.7885  1.4098
 6484TIP3    H240868   5.484   4.840  12.715 -0.1314  0.8389  0.6738
 6485TIP3   OH240869   5.504   5.133  13.263 -0.3910 -0.1557  0.2656
 6485TIP3    H140870   5.539   5.093  13.343  2.0094 -0.6899 -0.9967
 6485TIP3    H240871   5.563   5.206  13.245 -0.3467 -0.6073 -1.5233
 6486TIP3   OH240872   6.010   3.214  14.014 -0.1218  0.2897 -0.3153
 6486TIP3    H140873   6.017   3.134  13.961 -0.1859  0.8603 -1.1834
 6486TIP3    H240874   6.017   3.183  14.104  0.3053 -0.6502 -0.6671
 6487TIP3   OH240875   1.696   2.322  12.537  0.5592 -0.8541 -0.3977
 6487TIP3    H140876   1.692   2.234  12.500 -0.6539 -0.5556 -0.9992
 6487TIP3    H240877   1.747   2.372  12.473  0.3113 -0.8569 -0.5971
 6488TIP3   OH240878   5.596   5.999  12.027 -0.6184  0.3141  0.1280
 6488TIP3    H140879   5.519   5.990  11.972 -0.3599 -1.1131 -0.0079
 6488TIP3    H240880   5.629   5.910  12.039  0.3208  0.7748  1.1705
 6489TIP3   OH240881   0.074   2.953   3.719 -1.1312  0.4728  0.1784
 6489TIP3    H140882   0.136   2.966   3.647 -2.7952  0.6134 -1.2664
 6489TIP3    H240883   0.061   2.858   3.722  2.1473  0.0057  3.1195
 6490TIP3   OH240884   6.250   4.340  12.401  0.4642 -0.1405  0.0125
 6490TIP3    H140885   6.227   4.402  12.470 -0.6223  0.1057 -0.5448
 6490TIP3    H240886   6.345   4.332  12.406  0.5729  1.2181  0.3895
 6491TIP3   OH240887   0.368   1.557   3.711 -0.1644 -0.0207  0.7095
 6491TIP3    H140888   0.332   1.470   3.729 -0.7127  0.0564  0.0329
 6491TIP3    H240889   0.449   1.561   3.761 -2.4659  0.8545  4.5687
 6492TIP3   OH240890   6.167   4.299   3.677  0.0289 -0.1239  0.0945
 6492TIP3    H140891   6.167   4.244   3.755  0.7878 -0.2950 -0.0185
 6492TIP3    H240892   6.133   4.383   3.706 -0.1648 -0.3425  0.4951
 6493TIP3   OH240893   2.599   0.975  15.128 -0.2191  0.0859  0.1982
 6493TIP3    H140894   2.641   1.029  15.062 -1.6613  1.4435  0.3532
 6493TIP3    H240895   2.589   1.034  15.204 -1.6346 -0.4472  0.4356
 6494TIP3   OH240896   0.328   5.615   4.468  0.0001  0.0047 -0.2737
 6494TIP3    H140897   0.362   5.532   4.502 -1.3003 -1.1162 -1.5810
 6494TIP3    H240898   0.252   5.633   4.523 -0.7270 -0.5886 -1.0657
 6495TIP3   OH240899   2.343   1.071  16.876  0.9634  0.3475  0.3552
 6495TIP3    H140900   2.362   1.013  16.802  3.2899  0.3016  0.9523
 6495TIP3    H240901   2.272   1.127  16.844  1.2423 -0.3385 -1.5629
 6496TIP3   OH240902   4.470   4.429  16.336 -0.2774  0.0633  0.5073
 6496TIP3    H140903   4.385   4.387  16.350 -1.1777  0.9618 -1.9326
 6496TIP3    H240904   4.518   4.367  16.281 -0.8683  1.2534 -1.4296
 6497TIP3   OH240905   0.155   0.977  16.279  0.4082 -0.0037  0.7853
 6497TIP3    H140906   0.202   1.056  16.304  0.0378  0.6228 -0.4218
 6497TIP3    H240907   0.110   1.001  16.198  0.0783 -1.3732  0.5486
 6498TIP3   OH240908   1.827   5.911  14.671  0.4111  0.3840 -0.1378
 6498TIP3    H140909   1.857   5.944  14.756  1.2199 -0.3596 -0.1285
 6498TIP3    H240910   1.843   5.817  14.675  0.6841  0.3854 -1.2076
 6499TIP3   OH240911   6.078   3.602  16.965 -0.2219  0.4265  0.0029
 6499TIP3    H140912   5.996   3.553  16.962  0.3901 -0.5222 -2.1223
 6499TIP3    H240913   6.074   3.660  16.888  0.4397  1.4849  0.7492
 6500TIP3   OH240914   2.618   6.208  16.285  0.3487 -0.3422  0.2168
 6500TIP3    H140915   2.538   6.241  16.244  0.3382 -1.0714 -0.3602
 6500TIP3    H240916   2.667   6.167  16.213  1.8915  1.2950  0.2792
 6501TIP3   OH240917   5.482   3.938  14.847  0.8118  0.1214 -0.2877
 6501TIP3    H140918   5.545   3.866  14.836 -1.4063 -1.9335  0.1576
 6501TIP3    H240919   5.461   3.965  14.757  0.6333 -0.7107 -0.5027
 6502TIP3   OH240920   0.061   5.902  15.882 -0.4312 -0.0335  0.0314
 6502TIP3    H140921   0.088   5.919  15.972  1.3296 -1.6840 -0.1565
 6502TIP3    H240922   0.015   5.817  15.887 -2.5358  1.0516 -0.2431
 6503TIP3   OH240923   2.772   2.724   4.619  0.0072 -0.1106 -0.7458
 6503TIP3    H140924   2.747   2.668   4.546 -1.2562 -0.5502  0.0202
 6503TIP3    H240925   2.842   2.677   4.663 -0.3371 -0.6057 -0.7232
 6504TIP3   OH240926   6.314   5.802   3.125 -0.3803 -0.6682  0.6204
 6504TIP3    H140927   6.243   5.740   3.112 -0.2587 -0.7625  0.3893
 6504TIP3    H240928   6.291   5.877   3.069  0.3310 -1.2311 -0.4454
 6505TIP3   OH240929   1.479   1.849  14.179  0.1313  0.1856 -0.4303
 6505TIP3    H140930   1.492   1.786  14.249 -0.0024 -1.6274 -1.9940
 6505TIP3    H240931   1.384   1.857  14.172  0.1558  1.9851  0.9829
 6506TIP3   OH240932   2.666   0.352   1.581 -0.1807 -0.2185  0.2898
 6506TIP3    H140933   2.649   0.399   1.663  1.2890 -0.7166  0.8884
 6506TIP3    H240934   2.735   0.403   1.538 -0.3342 -0.4496 -0.2335
 6507TIP3   OH240935   6.022   6.230  11.298 -0.0777  0.0936 -0.2593
 6507TIP3    H140936   6.071   6.306  11.265 -3.1334  2.1101 -0.3693
 6507TIP3    H240937   5.989   6.187  11.219  0.9642 -0.8954 -0.1648
 6508TIP3   OH240938   5.007   0.223   0.654  0.2034 -0.0057  0.3968
 6508TIP3    H140939   5.056   0.219   0.572  0.5043 -0.2002  0.5821
 6508TIP3    H240940   4.922   0.185   0.635  0.3607 -0.2755  0.2397
 6509TIP3   OH240941   1.849   1.671  11.522 -0.2184  0.4121  0.1471
 6509TIP3    H140942   1.782   1.606  11.502 -0.6021  1.4068 -1.8992
 6509TIP3    H240943   1.885   1.644  11.607 -0.0228 -2.7353 -0.9051
 6510TIP3   OH240944   5.592   6.280   4.442  0.4904 -0.0301 -0.0967
 6510TIP3    H140945   5.569   6.194   4.406  1.7436  0.2263 -1.5733
 6510TIP3    H240946   5.557   6.279   4.531 -1.6773 -1.1256 -0.9208
 6511TIP3   OH240947   1.821   0.470   1.615  0.5020 -1.0465 -0.1526
 6511TIP3    H140948   1.846   0.382   1.644  1.1887 -1.1974 -1.1654
 6511TIP3    H240949   1.900   0.505   1.573 -0.1185 -0.4070 -0.8098
 6512TIP3   OH240950   3.237   3.551  13.470 -0.4597  0.3736  0.1156
 6512TIP3    H140951   3.152   3.542  13.428  0.1698  0.6373 -1.2357
 6512TIP3    H240952   3.282   3.619  13.420  0.8258 -0.2791  0.3578
 6513TIP3   OH240953   4.220   6.177  13.002 -0.0658 -0.6647 -0.6491
 6513TIP3    H140954   4.248   6.230  12.927  0.8954 -2.2046 -1.3955
 6513TIP3    H240955   4.150   6.121  12.968 -0.0697 -0.9232 -0.2261
 6514TIP3   OH240956   1.034   1.467   2.392  0.1050 -0.1862 -0.2045
 6514TIP3    H140957   0.996   1.417   2.464  0.3442 -0.4510 -0.2603
 6514TIP3    H240958   0.968   1.534   2.372 -0.3057 -0.6094 -0.2701
 6515TIP3   OH240959   3.546   6.773   1.719 -0.2246  0.1608  0.1731
 6515TIP3    H140960   3.464   6.811   1.751 -0.6571 -2.2187  1.9846
 6515TIP3    H240961   3.538   6.776   1.624 -1.8159  1.1856  0.3154
 6516TIP3   OH240962   5.145   5.433  16.230  0.1087  0.0851  0.1863
 6516TIP3    H140963   5.211   5.488  16.188 -0.9964  0.6506 -0.8451
 6516TIP3    H240964   5.173   5.427  16.321  1.6021  0.2857 -0.2562
 6517TIP3   OH240965   4.709   3.706  14.018 -0.1757 -0.2764  0.1861
 6517TIP3    H140966   4.793   3.667  13.996 -0.2743 -0.0719 -0.5773
 6517TIP3    H240967   4.702   3.782  13.960 -0.6037  0.0720  0.6874
 6518TIP3   OH240968   0.230   4.917  15.812 -0.4891  0.2061 -0.0847
 6518TIP3    H140969   0.313   4.923  15.764  0.2329 -0.8393  1.0091
 6518TIP3    H240970   0.192   5.004  15.804 -0.0013  0.2943 -1.8522
 6519TIP3   OH240971   3.459   5.226   4.289  0.3375 -1.0224  0.8194
 6519TIP3    H140972   3.504   5.251   4.369  0.7904 -0.4410  0.3867
 6519TIP3    H240973   3.463   5.304   4.233  1.2893 -1.8867 -0.3384
 6520TIP3   OH240974   1.501   1.762   6.119 -0.5577  0.2474 -0.6564
 6520TIP3    H140975   1.425   1.703   6.123 -0.0532 -0.3220  0.9917
 6520TIP3    H240976   1.485   1.817   6.042 -2.4364 -0.1477 -0.5693
 6521TIP3   OH240977   0.903   4.745  14.830  0.8017 -0.7094 -0.6203
 6521TIP3    H140978   0.876   4.682  14.764  0.4977 -2.4684  1.1311
 6521TIP3    H240979   0.821   4.779  14.866  0.9631  0.4957 -1.3382
 6522TIP3   OH240980   3.063   6.635  14.785 -0.3545 -0.3854 -0.0915
 6522TIP3    H140981   3.022   6.571  14.726 -0.2737 -0.7352  0.2311
 6522TIP3    H240982   3.066   6.591  14.870 -1.1810  0.4151  0.3520
 6523TIP3   OH240983   0.135   2.170  13.472 -0.2699 -0.5916  0.3733
 6523TIP3    H140984   0.079   2.095  13.492  0.1389 -0.9487  0.1744
 6523TIP3    H240985   0.114   2.234  13.540 -2.7589  0.2745 -1.1431
 6524TIP3   OH240986   1.817   1.914  15.227 -0.1720  0.4128  0.2856
 6524TIP3    H140987   1.896   1.967  15.225  0.3482 -0.3765 -0.2636
 6524TIP3    H240988   1.747   1.973  15.199  0.4468  0.7184 -0.6236
 6525TIP3   OH240989   4.179   4.318  12.560  0.9904  0.0194 -0.2240
 6525TIP3    H140990   4.174   4.312  12.465 -1.7885  0.9708 -0.1763
 6525TIP3    H240991   4.205   4.230  12.588  0.5780 -0.6168 -1.7846
 6526TIP3   OH240992   1.769   0.211  12.184  0.1922 -0.0296 -0.8835
 6526TIP3    H140993   1.841   0.272  12.198 -1.0895  1.2537  0.2672
 6526TIP3    H240994   1.722   0.209  12.267 -0.8668 -1.1511 -1.4927
 6527TIP3   OH240995   4.065   6.139  14.715 -0.0088  0.1576 -0.3952
 6527TIP3    H140996   4.093   6.052  14.688  1.8595  0.1981  1.2423
 6527TIP3    H240997   4.146   6.191  14.712 -0.4357  0.9978  1.8106
 6528TIP3   OH240998   4.436   0.240  11.654  0.4692 -0.5756  0.0144
 6528TIP3    H140999   4.421   0.145  11.654  3.1761 -1.0497  1.6577
 6528TIP3    H241000   4.461   0.260  11.744 -1.8539  2.0485  0.1415
 6529TIP3   OH241001   4.154   6.455   5.862 -0.3437 -0.1647  0.1438
 6529TIP3    H141002   4.089   6.525   5.868 -0.6056 -0.5813  2.3425
 6529TIP3    H241003   4.115   6.381   5.907  0.8663 -1.0412 -0.2139
 6530TIP3   OH241004   3.211   0.297   5.424  0.6068 -0.2352 -0.3628
 6530TIP3    H141005   3.220   0.390   5.405 -0.7755 -0.1584 -0.7241
 6530TIP3    H241006   3.121   0.289   5.458  0.7977 -1.3928 -0.1330
 6531TIP3   OH241007   1.241   1.512   3.556 -0.3586  0.3330 -0.4465
 6531TIP3    H141008   1.328   1.498   3.518  0.9459  1.7311  1.8666
 6531TIP3    H241009   1.219   1.429   3.597  0.2201  0.1861 -0.4202
 6532TIP3   OH241010   5.856   4.342   1.697 -0.0482 -0.5001  0.2174
 6532TIP3    H141011   5.929   4.292   1.733 -0.1957  0.4402  1.8383
 6532TIP3    H241012   5.778   4.297   1.731 -0.2318 -1.0805 -0.9395
 6533TIP3   OH241013   2.436   3.382  11.950 -0.0134  0.1888 -0.1149
 6533TIP3    H141014   2.522   3.422  11.960  0.1976  0.3482 -2.2050
 6533TIP3    H241015   2.378   3.436  12.002  0.9573  0.7718  0.3767
 6534TIP3   OH241016   4.249   5.754   4.021  0.2522  0.3195 -0.1155
 6534TIP3    H141017   4.186   5.802   3.968  2.2644  1.5270 -1.5234
 6534TIP3    H241018   4.295   5.822   4.071  0.5089 -0.5134  0.7970
 6535TIP3   OH241019   6.239   0.900  12.952 -0.3855 -0.3858 -0.2148
 6535TIP3    H141020   6.322   0.914  12.997  0.4262  3.0359 -2.5895
 6535TIP3    H241021   6.259   0.836  12.884  0.7623  1.5977 -1.7942
 6536TIP3   OH241022   4.910   4.685   0.456 -0.2558  0.4332 -0.4313
 6536TIP3    H141023   4.856   4.611   0.484 -0.1038  0.3787 -0.2856
 6536TIP3    H241024   4.991   4.645   0.423  0.0146  0.5615  0.0791
 6537TIP3   OH241025   2.978   3.213  13.905 -0.1336 -0.0164  0.3220
 6537TIP3    H141026   3.052   3.163  13.869 -0.7668 -0.1208 -0.8469
 6537TIP3    H241027   3.016   3.297  13.929  0.5960 -0.4575  0.7507
 6538TIP3   OH241028   0.610   1.507  14.851  0.6884  0.2962  0.3408
 6538TIP3    H141029   0.600   1.603  14.855  0.1461  0.2476  0.1824
 6538TIP3    H241030   0.521   1.474  14.860  0.7182 -0.1557 -0.9480
 6539TIP3   OH241031   4.043   6.106  11.784 -0.1780 -0.4387  0.1711
 6539TIP3    H141032   4.121   6.135  11.832 -0.5149 -3.3909  2.7211
 6539TIP3    H241033   4.077   6.049  11.715  0.0133 -1.2085  0.8830
 6540TIP3   OH241034   0.239   4.534   3.774  0.3513  0.5084  0.3366
 6540TIP3    H141035   0.152   4.494   3.781 -0.1450  1.3909 -0.7719
 6540TIP3    H241036   0.291   4.490   3.842 -0.8207 -0.3700  0.6741
 6541TIP3   OH241037   6.302   1.327   0.932 -0.3831 -0.4807 -0.2552
 6541TIP3    H141038   6.376   1.317   0.871 -1.2483 -1.2913 -1.2084
 6541TIP3    H241039   6.311   1.415   0.967  1.2032 -0.6717 -0.1367
 6542TIP3   OH241040   3.392   0.266  11.768 -0.3696  0.5129  0.4772
 6542TIP3    H141041   3.374   0.173  11.756  0.3248  0.4350  0.0403
 6542TIP3    H241042   3.485   0.276  11.747 -0.0800  1.0488  1.9240
 6543TIP3   OH241043   4.044   5.806   4.206  0.1945  0.0520  0.2110
 6543TIP3    H141044   4.011   5.718   4.220  0.5522 -0.4247 -1.7885
 6543TIP3    H241045   4.124   5.794   4.154  0.1695  1.5513 -0.2022
 6544TIP3   OH241046   0.459   5.265  15.018  0.0927  0.6349 -0.6157
 6544TIP3    H141047   0.422   5.321  14.949  0.3898  0.4646 -0.9139
 6544TIP3    H241048   0.444   5.176  14.986  1.8214  0.5692 -1.2989
 6545TIP3   OH241049   4.372   4.287   2.140  0.0920 -0.0264 -0.1022
 6545TIP3    H141050   4.420   4.215   2.180  0.2954  1.1707  1.8637
 6545TIP3    H241051   4.283   4.280   2.175 -0.0107  0.3889 -0.2686
 6546TIP3   OH241052   4.362   3.191   1.818  0.2987 -0.8147 -0.2042
 6546TIP3    H141053   4.337   3.143   1.897 -2.4643 -0.0748 -0.5710
 6546TIP3    H241054   4.287   3.179   1.759  1.5911  0.0740 -2.0596
 6547TIP3   OH241055   2.333   0.521   0.065  0.1712 -0.6175 -0.1407
 6547TIP3    H141056   2.390   0.447   0.046  0.9132 -0.1387  0.2226
 6547TIP3    H241057   2.355   0.546   0.155  0.1475  0.2420 -0.3685
 6548TIP3   OH241058   5.867   6.422   2.332 -0.3257 -0.2808  0.5994
 6548TIP3    H141059   5.850   6.441   2.425 -2.0644 -0.0740  0.2564
 6548TIP3    H241060   5.847   6.329   2.323 -4.6236  0.6327 -0.4860
 6549TIP3   OH241061   3.048   4.272   4.308  0.2713 -0.0166  0.1328
 6549TIP3    H141062   3.075   4.282   4.217 -1.9589 -1.1369 -0.6962
 6549TIP3    H241063   2.963   4.229   4.303  0.0093  0.1133  2.7487
 6550TIP3   OH241064   0.630   5.390  15.183  0.8463 -0.0890  0.3471
 6550TIP3    H141065   0.622   5.475  15.140  2.6824 -0.4884 -0.8125
 6550TIP3    H241066   0.565   5.335  15.138  0.6816  0.2876  0.1186
 6551TIP3   OH241067   1.904   2.737   4.619 -0.6566 -0.1072 -0.0154
 6551TIP3    H141068   1.972   2.671   4.603  0.2446  1.4857 -3.1948
 6551TIP3    H241069   1.943   2.796   4.683  0.0885 -0.4506 -0.1467
 6552TIP3   OH241070   5.183   1.698   3.787  0.1075 -0.5722  0.6504
 6552TIP3    H141071   5.232   1.633   3.737  1.0130 -0.4525  1.3675
 6552TIP3    H241072   5.244   1.771   3.797  0.0599 -0.7096  2.1656
 6553TIP3   OH241073   3.091   3.807  13.228 -0.6092 -0.0175  0.0784
 6553TIP3    H141074   3.184   3.830  13.231 -0.4826 -0.0491 -2.3041
 6553TIP3    H241075   3.056   3.837  13.311  1.3950  0.6460  0.7193
 6554TIP3   OH241076   3.926   5.423  16.749  0.5870  0.1059 -0.6048
 6554TIP3    H141077   4.005   5.452  16.702  1.1654  0.3347  0.4879
 6554TIP3    H241078   3.853   5.451  16.693  1.2880 -0.5068 -1.8520
 6555TIP3   OH241079   2.116   0.866   0.703  0.4344  0.5363 -0.0801
 6555TIP3    H141080   2.114   0.956   0.738  0.3600  0.7090 -0.5281
 6555TIP3    H241081   2.169   0.818   0.766 -1.4327  0.3651  1.4123
 6556TIP3   OH241082   4.360   6.305   3.335 -0.6176  0.3996  0.1585
 6556TIP3    H141083   4.412   6.283   3.258 -0.3527  0.1255  0.4081
 6556TIP3    H241084   4.282   6.348   3.301  0.1836  1.6062 -0.1666
 6557TIP3   OH241085   4.501   1.148  13.012 -0.1135  0.5068  0.2569
 6557TIP3    H141086   4.503   1.076  12.949  0.3781  0.5460  0.2259
 6557TIP3    H241087   4.408   1.168  13.023 -0.3185 -0.8740  1.1037
 6558TIP3   OH241088   1.727   5.296  15.483  0.3318  0.0864 -0.0110
 6558TIP3    H141089   1.664   5.288  15.555  0.0789  0.0308 -0.2406
 6558TIP3    H241090   1.802   5.243  15.511 -0.4464 -1.3204 -0.5408
 6559TIP3   OH241091   6.468   6.259  12.309 -0.0801  0.5591  0.6941
 6559TIP3    H141092   6.393   6.212  12.274  0.8998 -0.7390  0.2742
 6559TIP3    H241093   6.521   6.192  12.351  1.2078  1.3297  0.3371
 6560TIP3   OH241094   6.235   5.015   2.201  0.1030  0.2247 -0.0829
 6560TIP3    H141095   6.141   5.021   2.182 -0.1880  0.0458  1.3011
 6560TIP3    H241096   6.245   4.934   2.250  1.1073 -0.1556 -0.8906
 6561TIP3   OH241097   3.567   1.746   5.263  0.4071 -0.3542 -0.1592
 6561TIP3    H141098   3.622   1.676   5.299  0.3924 -0.3506 -0.1310
 6561TIP3    H241099   3.529   1.790   5.339 -0.3142 -0.8967 -0.2019
 6562TIP3   OH241100   3.426   5.119   3.882  0.4457 -0.8877 -0.4291
 6562TIP3    H141101   3.405   5.048   3.820 -1.2420 -1.8071  1.1467
 6562TIP3    H241102   3.343   5.166   3.893  1.6743  1.6684 -1.8333
 6563TIP3   OH241103   1.440   3.752   3.117 -0.2567 -0.4471  0.7033
 6563TIP3    H141104   1.392   3.727   3.038 -0.0936  2.3363 -0.3291
 6563TIP3    H241105   1.532   3.738   3.095 -0.2166  0.2527  0.3967
 6564TIP3   OH241106   3.717   1.453   2.555 -0.0890 -0.9499 -0.3223
 6564TIP3    H141107   3.757   1.367   2.570 -0.2192 -0.8840  0.4559
 6564TIP3    H241108   3.791   1.514   2.555  0.2074 -1.2569 -2.7289
 6565TIP3   OH241109   3.609   3.987  16.321 -0.2826 -0.0349 -0.3187
 6565TIP3    H141110   3.538   3.924  16.336 -0.4555  0.5509  1.4550
 6565TIP3    H241111   3.688   3.940  16.348 -0.5355  0.8395  2.1239
 6566TIP3   OH241112   2.189   4.133  14.190 -0.2992  0.2979  0.0025
 6566TIP3    H141113   2.154   4.187  14.120  0.6332  0.3024 -0.4759
 6566TIP3    H241114   2.254   4.078  14.147  0.8576  0.8633  0.9925
 6567TIP3   OH241115   4.120   0.475  13.648  0.5398 -0.3295  0.3232
 6567TIP3    H141116   4.063   0.517  13.713  1.6780  1.3882  0.2298
 6567TIP3    H241117   4.200   0.527  13.650  0.8903 -0.7727 -1.8795
 6568TIP3   OH241118   0.347   1.104  10.877 -0.5512 -0.1937  0.1802
 6568TIP3    H141119   0.336   1.117  10.783 -0.2795  0.6497  0.2616
 6568TIP3    H241120   0.361   1.010  10.887 -3.5495 -0.7398 -0.3385
 6569TIP3   OH241121   0.109   0.639  15.955  0.4779 -0.5818  0.0940
 6569TIP3    H141122   0.015   0.653  15.961 -0.1388 -4.4476  0.8079
 6569TIP3    H241123   0.141   0.652  16.044  0.6653  0.9389 -0.1890
 6570TIP3   OH241124   6.069   1.161  12.910 -0.0015 -0.2309 -0.5468
 6570TIP3    H141125   5.993   1.218  12.918  0.2472 -0.0639  0.6697
 6570TIP3    H241126   6.143   1.221  12.902  0.3192 -0.3584  1.2599
 6571TIP3   OH241127   5.726   0.039   4.174  0.4583 -0.0307 -0.7716
 6571TIP3    H141128   5.820   0.053   4.175  0.3571  0.6756 -0.6409
 6571TIP3    H241129   5.707   0.000   4.260  0.3570  1.7724  0.0509
 6572TIP3   OH241130   0.308   3.238   0.097 -0.7809 -0.4990  0.2220
 6572TIP3    H141131   0.215   3.262   0.092 -0.4416  0.9906  0.8115
 6572TIP3    H241132   0.341   3.255   0.008 -1.0361 -0.8869  0.0515
 6573TIP3   OH241133   5.372   0.847  17.178  0.0406  0.3169  0.6098
 6573TIP3    H141134   5.464   0.841  17.204  0.1641  1.0192  0.3380
 6573TIP3    H241135   5.323   0.815  17.254  0.5315 -0.7145  0.5002
 6574TIP3   OH241136   2.517   1.120  12.503  0.0821  0.8707  0.0547
 6574TIP3    H141137   2.567   1.087  12.428 -0.6664  1.6694 -0.8109
 6574TIP3    H241138   2.434   1.072  12.500  0.2679  0.4896  0.7250
 6575TIP3   OH241139   6.611   2.547  14.341  0.6570  0.1142  0.3379
 6575TIP3    H141140   6.542   2.607  14.371  0.0871  0.2914 -1.2734
 6575TIP3    H241141   6.690   2.601  14.338  0.0870  0.8897 -1.3777
 6576TIP3   OH241142   3.278   2.607   4.772 -0.1668  0.3321  0.0147
 6576TIP3    H141143   3.244   2.545   4.836 -0.2464 -0.2247 -0.5643
 6576TIP3    H241144   3.285   2.557   4.691  2.4001  0.3031  0.1956
 6577TIP3   OH241145   4.566   5.621  14.055  0.1955 -0.4570 -0.1650
 6577TIP3    H141146   4.534   5.610  13.966 -0.6892 -0.3907  0.1422
 6577TIP3    H241147   4.594   5.533  14.081  0.4305 -0.4806 -0.4896
 6578TIP3   OH241148   3.651   1.751   4.209 -0.1201 -0.1148 -0.1808
 6578TIP3    H141149   3.583   1.683   4.203  0.1432 -0.2881 -1.2313
 6578TIP3    H241150   3.691   1.753   4.122  1.4806 -0.2728  0.5287
 6579TIP3   OH241151   0.749   0.447  10.851  0.2137 -0.0013  0.0024
 6579TIP3    H141152   0.779   0.433  10.941 -0.1967 -1.1820 -0.0325
 6579TIP3    H241153   0.829   0.448  10.799  0.3115 -1.7413  0.0887
 6580TIP3   OH241154   2.953   1.027   4.784  0.7139 -0.5734 -0.1277
 6580TIP3    H141155   3.031   1.076   4.812  0.8178  0.0128 -1.4327
 6580TIP3    H241156   2.987   0.942   4.756  1.1006  0.2792 -2.2996
 6581TIP3   OH241157   2.858   5.697  16.259  0.7286 -0.2508  0.3159
 6581TIP3    H141158   2.823   5.759  16.323  2.8898 -0.2722  1.5566
 6581TIP3    H241159   2.790   5.690  16.193  0.9706  4.6623 -0.6654
 6582TIP3   OH241160   4.168   2.782   0.722  0.4086  0.5605 -0.5663
 6582TIP3    H141161   4.203   2.766   0.809  2.0140  1.3765 -1.0335
 6582TIP3    H241162   4.208   2.865   0.695 -0.5233  0.6148 -1.8341
 6583TIP3   OH241163   4.479   0.297  15.212  0.2345 -0.0199 -0.1728
 6583TIP3    H141164   4.516   0.378  15.247  0.2013  0.6362 -1.6211
 6583TIP3    H241165   4.534   0.276  15.137 -0.6082 -0.5735 -0.6373
 6584TIP3   OH241166   6.246   2.080  10.427 -0.0156  0.1614 -0.3370
 6584TIP3    H141167   6.219   2.132  10.502 -0.5244 -0.8212  0.1645
 6584TIP3    H241168   6.305   2.138  10.378  0.6411  0.6621  1.0188
 6585TIP3   OH241169   6.395   4.110  15.884  0.0492 -0.3228 -0.1180
 6585TIP3    H141170   6.379   4.151  15.799 -0.5074 -1.0206 -0.3539
 6585TIP3    H241171   6.411   4.183  15.944  1.4948  0.1301 -1.0340
 6586TIP3   OH241172   4.658   6.153   0.720  0.1446  0.2763  0.5677
 6586TIP3    H141173   4.661   6.248   0.708 -1.7580  0.3157  0.3100
 6586TIP3    H241174   4.565   6.131   0.715  0.3731 -1.3205  2.8405
 6587TIP3   OH241175   3.344   5.381  10.538 -0.0657 -0.0572  0.3701
 6587TIP3    H141176   3.266   5.434  10.551 -0.0226 -0.3005  1.6522
 6587TIP3    H241177   3.312   5.292  10.529 -0.0045 -0.0357 -0.0788
 6588TIP3   OH241178   6.095   0.723  12.419 -0.5476 -0.1093 -0.4239
 6588TIP3    H141179   6.028   0.790  12.429 -0.2982  0.0761  0.0448
 6588TIP3    H241180   6.114   0.721  12.325 -0.4284  0.6048 -0.4178
 6589TIP3   OH241181   0.015   5.873   1.528  0.0260 -0.3511 -0.3076
 6589TIP3    H141182  -0.007   5.817   1.602  1.0147 -0.1063  0.1958
 6589TIP3    H241183   0.012   5.962   1.564  0.0462 -0.1996 -0.6782
 6590TIP3   OH241184   2.190   1.208  13.249 -0.2495  0.6801 -0.4351
 6590TIP3    H141185   2.218   1.217  13.341 -2.9579 -1.8455  0.6974
 6590TIP3    H241186   2.106   1.255  13.245 -0.4861  0.1735 -1.4683
 6591TIP3   OH241187   1.434   6.560   2.419 -0.6071 -1.2199 -0.1079
 6591TIP3    H141188   1.416   6.483   2.365 -0.4505 -1.5411  0.2958
 6591TIP3    H241189   1.391   6.540   2.502 -2.3342  0.0071 -0.6652
 6592TIP3   OH241190   5.405   3.082   4.622 -0.3067 -0.0386 -0.4428
 6592TIP3    H141191   5.472   3.038   4.570 -0.2790  0.1480 -0.5644
 6592TIP3    H241192   5.452   3.154   4.665 -0.3329 -0.1790 -0.1747
 6593TIP3   OH241193   4.199   2.994   0.151 -0.0815 -0.2523  0.0191
 6593TIP3    H141194   4.198   2.947   0.235 -1.3053  1.0014  0.7404
 6593TIP3    H241195   4.246   3.075   0.170 -0.0125 -0.1448 -0.6166
 6594TIP3   OH241196   3.957   5.157  11.141 -0.1747  0.8108  0.0118
 6594TIP3    H141197   3.902   5.139  11.217  0.2675 -0.7966 -0.0299
 6594TIP3    H241198   3.905   5.128  11.066  0.2119  0.4327 -0.1187
 6595TIP3   OH241199   1.884   0.947  14.885  0.6606 -0.2941 -0.2748
 6595TIP3    H141200   1.977   0.930  14.903  0.8647  0.4136 -0.6466
 6595TIP3    H241201   1.862   0.888  14.813  0.6087 -1.0283  0.3281
 6596TIP3   OH241202   1.420   2.016  12.680  0.7663 -0.2565 -0.0515
 6596TIP3    H141203   1.443   2.075  12.751 -2.7181  0.9351  0.1748
 6596TIP3    H241204   1.393   1.935  12.723 -1.8592  0.6451  0.0749
 6597TIP3   OH241205   6.591   0.997  16.788  0.1779 -0.9179  0.2642
 6597TIP3    H141206   6.639   0.984  16.706 -1.5121  0.1477 -0.9578
 6597TIP3    H241207   6.658   1.011  16.854  1.5516 -0.2910 -1.2368
 6598TIP3   OH241208   5.716   0.125  12.801 -0.0145 -0.3887 -0.1215
 6598TIP3    H141209   5.804   0.121  12.839 -0.9532 -3.0285  1.9294
 6598TIP3    H241210   5.669   0.185  12.857 -0.2517 -1.0983  0.4528
 6599TIP3   OH241211   2.729   2.153  14.728 -0.1343  0.6015  0.4455
 6599TIP3    H141212   2.706   2.100  14.652 -0.4789  0.0639  0.9255
 6599TIP3    H241213   2.738   2.242  14.693 -3.0608  0.8665  0.2498
 6600TIP3   OH241214   1.420   1.632   0.222  0.0319  0.0166 -0.0589
 6600TIP3    H141215   1.478   1.681   0.163  0.1123  1.3139  1.0844
 6600TIP3    H241216   1.333   1.671   0.208 -0.1387 -0.3556 -0.0492
 6601TIP3   OH241217   4.199   3.098  16.493  0.1201  0.0244  0.3422
 6601TIP3    H141218   4.274   3.045  16.466  1.2575  1.5247  0.5057
 6601TIP3    H241219   4.222   3.129  16.580  0.3622  2.4297 -0.5479
 6602TIP3   OH241220   0.291   0.456   2.867  0.4212  0.3908  0.1058
 6602TIP3    H141221   0.349   0.393   2.823 -0.3578  0.5597 -1.1760
 6602TIP3    H241222   0.226   0.479   2.801 -0.0476  1.5876  0.9764
 6603TIP3   OH241223   2.911   1.860  14.585  0.3110 -0.3138  0.8195
 6603TIP3    H141224   2.857   1.917  14.530  0.8778 -0.2939  0.2722
 6603TIP3    H241225   2.878   1.873  14.674  0.2972  0.7091  0.6679
 6604TIP3   OH241226   5.210   2.618   3.723 -0.6512  0.7399  0.3200
 6604TIP3    H141227   5.288   2.564   3.715  0.8611  2.6533  1.7290
 6604TIP3    H241228   5.229   2.695   3.669 -1.3538  1.4485  1.0773
 6605TIP3   OH241229   2.151   1.744   1.574 -0.6463 -0.2225 -0.3449
 6605TIP3    H141230   2.161   1.738   1.479 -2.2130  0.8950 -0.6063
 6605TIP3    H241231   2.063   1.709   1.591 -1.0793  1.2328  0.4902
 6606TIP3   OH241232   6.564   1.944  10.501  0.1931  0.2400  0.2632
 6606TIP3    H141233   6.474   1.968  10.520 -0.5299 -0.2576 -2.3242
 6606TIP3    H241234   6.605   2.026  10.472 -0.1612 -0.0292 -1.0508
 6607TIP3   OH241235   2.185   1.225   1.180  0.2749  0.0138 -0.1153
 6607TIP3    H141236   2.107   1.266   1.142 -0.0837 -0.7744 -0.2437
 6607TIP3    H241237   2.154   1.187   1.262  0.1365 -1.7485 -0.9676
 6608TIP3   OH241238   1.493   2.600  15.441 -0.3965  0.3372 -0.0759
 6608TIP3    H141239   1.397   2.606  15.446 -0.3257 -0.5271  3.2229
 6608TIP3    H241240   1.524   2.689  15.452 -0.8001  0.6379 -1.2846
 6609TIP3   OH241241   3.538   3.196  17.031  0.4103  0.0402  0.1792
 6609TIP3    H141242   3.504   3.185  16.942  1.8227 -0.8182 -0.2835
 6609TIP3    H241243   3.626   3.232  17.018  0.9479 -0.8612  1.1767
 6610TIP3   OH241244   4.879   5.459  13.341  0.4043  0.4995 -0.4742
 6610TIP3    H141245   4.870   5.548  13.309  0.6853  1.1804  1.3178
 6610TIP3    H241246   4.800   5.414  13.311 -1.2075  2.1493  1.2257
 6611TIP3   OH241247   1.803   5.734  13.304 -0.4733  0.0345 -0.3544
 6611TIP3    H141248   1.813   5.726  13.398 -1.1144  0.1197 -0.2744
 6611TIP3    H241249   1.709   5.724  13.289 -0.4012  0.2379 -0.9607
 6612TIP3   OH241250   0.128   1.199   3.988 -0.2261  0.3735 -0.2579
 6612TIP3    H141251   0.124   1.214   4.083 -1.4655 -2.3545  0.1654
 6612TIP3    H241252   0.198   1.134   3.977 -0.2058  0.5448 -1.2014
 6613TIP3   OH241253   1.717   4.268   1.077 -0.1015  0.3408 -0.6904
 6613TIP3    H141254   1.738   4.327   1.004 -0.2115  0.2316 -0.8097
 6613TIP3    H241255   1.651   4.317   1.128  0.8044  0.8962 -0.0385
 6614TIP3   OH241256   2.676   3.054   5.381 -0.5457  0.1930  0.3770
 6614TIP3    H141257   2.730   2.995   5.433 -1.5309 -0.4226  0.7357
 6614TIP3    H241258   2.680   3.019   5.292 -0.9512 -0.2870  0.5474
 6615TIP3   OH241259   4.142   1.270   2.994  0.0234 -0.1245 -0.1017
 6615TIP3    H141260   4.228   1.245   3.027 -0.0493  0.3147  0.4385
 6615TIP3    H241261   4.158   1.301   2.905  0.0586 -2.3899 -0.9087
 6616TIP3   OH241262   5.943   3.652  15.617 -0.4408 -0.1064  0.1678
 6616TIP3    H141263   5.966   3.668  15.708 -1.8122 -0.5911  0.6089
 6616TIP3    H241264   5.995   3.576  15.591 -1.5586 -1.2209  1.1651
 6617TIP3   OH241265   0.841   5.919   0.077 -0.1328  0.0066 -0.1136
 6617TIP3    H141266   0.766   5.924   0.137  0.0893 -0.9872  0.2518
 6617TIP3    H241267   0.887   6.003   0.089 -0.5104  0.1210  0.5419
 6618TIP3   OH241268   3.036   3.800  13.535  0.6374 -0.1111  0.2369
 6618TIP3    H141269   3.008   3.709  13.526  0.5754 -0.1012  0.3284
 6618TIP3    H241270   2.985   3.834  13.609  2.7784 -0.8248  2.0870
 6619TIP3   OH241271   2.645   5.196   6.339  0.5027 -0.4045 -0.3005
 6619TIP3    H141272   2.682   5.113   6.370 -1.8407 -1.4093 -0.1381
 6619TIP3    H241273   2.681   5.206   6.250  2.8781 -0.2435  0.6359
 6620TIP3   OH241274   6.343   2.370   4.846  0.4491 -0.6555 -0.2871
 6620TIP3    H141275   6.380   2.459   4.846 -2.0152  0.4026 -0.6278
 6620TIP3    H241276   6.378   2.329   4.767  0.2974  0.5928 -1.0189
 6621TIP3   OH241277   2.762   1.397   5.651  0.1216 -0.0210 -0.5851
 6621TIP3    H141278   2.856   1.382   5.665 -0.2783 -0.6904  1.5504
 6621TIP3    H241279   2.752   1.492   5.658  0.2882 -0.1428  1.7202
 6622TIP3   OH241280   3.384   6.494  12.441 -0.0900  0.5622  0.0001
 6622TIP3    H141281   3.443   6.567  12.460  0.3205  0.2528 -0.0803
 6622TIP3    H241282   3.335   6.523  12.364  1.8965 -0.2822 -1.6246
 6623TIP3   OH241283   2.964   1.927   0.547  0.2530 -0.5345  0.0159
 6623TIP3    H141284   3.048   1.941   0.504  0.3554  0.8419  0.6417
 6623TIP3    H241285   2.979   1.851   0.604  0.5846 -1.3215 -1.0995
 6624TIP3   OH241286   5.148   2.568  15.401  0.3763 -0.1868  0.5730
 6624TIP3    H141287   5.175   2.486  15.443 -0.8441 -0.6075  0.5555
 6624TIP3    H241288   5.097   2.540  15.325 -0.7224  0.5880  1.0068
 6625TIP3   OH241289   3.332   3.616   5.654  0.3600  0.0760  0.0830
 6625TIP3    H141290   3.411   3.619   5.600  0.1985 -0.1828 -0.1690
 6625TIP3    H241291   3.289   3.701   5.640  1.2665  0.7326  1.2366
 6626TIP3   OH241292   3.948   3.337   0.810  0.1733 -0.3358  0.2738
 6626TIP3    H141293   3.964   3.289   0.729 -2.6182 -2.3509  0.8391
 6626TIP3    H241294   4.030   3.331   0.859  1.3012 -0.6028 -1.6390
 6627TIP3   OH241295   5.199   4.966  12.537 -0.0379  0.0871  0.4092
 6627TIP3    H141296   5.106   4.987  12.529 -0.3152 -0.6241  1.6911
 6627TIP3    H241297   5.210   4.889  12.481 -0.4287 -0.4318  1.0456
 6628TIP3   OH241298   1.023   3.142  16.075 -0.1331 -0.5107 -0.2618
 6628TIP3    H141299   0.993   3.148  16.166  0.3578  0.9349 -0.1773
 6628TIP3    H241300   1.070   3.224  16.060  1.3510 -1.5145 -1.2593
 6629TIP3   OH241301   5.423   1.332   2.961  0.2876 -0.3789  0.7086
 6629TIP3    H141302   5.481   1.312   2.887  1.0162  1.1061  0.8588
 6629TIP3    H241303   5.458   1.280   3.033  1.5891  0.6635  0.8524
 6630TIP3   OH241304   1.479   0.034   5.226  0.3485  0.0079 -0.0301
 6630TIP3    H141305   1.496   0.125   5.201 -1.1549  0.6031  1.0452
 6630TIP3    H241306   1.502  -0.016   5.148 -0.1299  1.4438 -1.1323
 6631TIP3   OH241307   0.253   1.169   6.091 -0.1159  0.3574 -0.2745
 6631TIP3    H141308   0.175   1.194   6.141 -1.4322 -0.7941 -1.6838
 6631TIP3    H241309   0.326   1.197   6.145 -1.5023  2.9844  0.3439
 6632TIP3   OH241310   3.425   5.534   1.635  0.9053 -0.1560  0.1961
 6632TIP3    H141311   3.361   5.479   1.591 -0.3770  1.4359  0.0380
 6632TIP3    H241312   3.399   5.624   1.614  1.1714  0.6107  2.8948
 6633TIP3   OH241313   4.209   6.769   0.157 -0.2944 -0.6362 -0.4245
 6633TIP3    H141314   4.201   6.676   0.176  0.4861 -0.3457  1.4056
 6633TIP3    H241315   4.303   6.786   0.157 -0.3771 -0.1010 -2.0837
 6634TIP3   OH241316   3.692   1.013  17.053  0.3303 -0.3213 -0.1657
 6634TIP3    H141317   3.770   0.994  17.000 -0.2461 -1.1900 -0.7171
 6634TIP3    H241318   3.704   0.961  17.133 -0.7331 -2.2523 -1.2140
 6635TIP3   OH241319   0.896   2.511  11.973  0.7328  0.3126  0.2634
 6635TIP3    H141320   0.934   2.455  12.041  0.0542  0.0053  0.3940
 6635TIP3    H241321   0.870   2.591  12.020  3.2011  1.4330 -0.2105
 6636TIP3   OH241322   3.046   6.298   3.245 -0.2346 -0.1631 -0.2098
 6636TIP3    H141323   3.019   6.206   3.239  2.5448 -1.0492  0.3960
 6636TIP3    H241324   3.096   6.303   3.326  0.1595  1.7609 -0.5536
 6637TIP3   OH241325   6.683   6.652   4.641  0.0365 -0.2944 -0.5160
 6637TIP3    H141326   6.762   6.632   4.590  1.1021  2.7358 -0.1207
 6637TIP3    H241327   6.623   6.690   4.577  1.0921  2.7985  0.2299
 6638TIP3   OH241328   4.513   3.941   1.551 -0.2136 -0.3361 -0.0239
 6638TIP3    H141329   4.606   3.921   1.543 -0.1147 -0.1446  0.6397
 6638TIP3    H241330   4.489   3.979   1.467  0.4654  0.2320  0.0341
 6639TIP3   OH241331   3.642   1.060   0.472  0.2089  0.1995  0.2950
 6639TIP3    H141332   3.644   1.105   0.388 -1.3351  0.3733  0.3231
 6639TIP3    H241333   3.556   1.018   0.474  0.4198 -0.1993  1.5808
 6640TIP3   OH241334   1.301   4.826  11.776  0.4968  0.4746 -0.1803
 6640TIP3    H141335   1.265   4.753  11.725 -0.7862  0.2841  0.9683
 6640TIP3    H241336   1.348   4.784  11.848 -0.1451  0.7744  0.4190
 6641TIP3   OH241337   0.777   4.646   4.675  0.1372 -0.1973 -0.0087
 6641TIP3    H141338   0.812   4.577   4.731  1.4733 -1.0219 -1.8494
 6641TIP3    H241339   0.847   4.666   4.613 -1.3574  0.6207 -1.4838
 6642TIP3   OH241340   5.833   0.540  15.062 -0.1375 -0.5155 -0.4844
 6642TIP3    H141341   5.809   0.606  15.127  0.6641 -0.2229 -0.4788
 6642TIP3    H241342   5.835   0.457  15.110  0.2321 -0.3328 -0.1872
 6643TIP3   OH241343   5.339   4.353  11.076 -0.3361  0.3182  0.2154
 6643TIP3    H141344   5.403   4.282  11.080  0.7573  1.2638 -0.3153
 6643TIP3    H241345   5.330   4.372  10.983 -1.0907  0.4734  0.3178
 6644TIP3   OH241346   6.238   4.487  11.553 -0.0995 -0.1053 -0.0929
 6644TIP3    H141347   6.290   4.415  11.588 -0.4633 -1.4870 -2.2916
 6644TIP3    H241348   6.280   4.509  11.470  0.4035  2.7113  0.8364
 6645TIP3   OH241349   2.664   2.265  13.872  0.3708  0.5294  0.2756
 6645TIP3    H141350   2.593   2.214  13.833 -0.5229  1.4344  0.7018
 6645TIP3    H241351   2.722   2.200  13.911 -0.3665 -0.2067  0.1483
 6646TIP3   OH241352   5.787   5.938  15.712 -0.2765  0.0407 -0.2432
 6646TIP3    H141353   5.834   5.965  15.634  0.9013 -1.1891  0.0322
 6646TIP3    H241354   5.828   5.986  15.784 -0.3333 -0.0204 -0.1691
 6647TIP3   OH241355   0.593   3.821   3.970  0.2518 -0.0934 -0.1456
 6647TIP3    H141356   0.512   3.825   3.920 -0.5516  1.9504  1.2341
 6647TIP3    H241357   0.565   3.806   4.060  1.4772 -0.6073  0.1668
 6648TIP3   OH241358   0.365   3.887   5.741 -0.0646 -0.1892  0.4340
 6648TIP3    H141359   0.347   3.978   5.766  0.8164  0.0556  0.1775
 6648TIP3    H241360   0.311   3.835   5.800  0.3368  0.4638  1.3822
 6649TIP3   OH241361   5.197   6.746   5.157  0.1055  0.7625 -0.1605
 6649TIP3    H141362   5.133   6.749   5.086 -0.2609 -0.9809  0.0833
 6649TIP3    H241363   5.257   6.677   5.132  1.0512  1.4012  0.3377
 6650TIP3   OH241364   0.131   2.822   1.240  0.2595 -0.2714 -0.4097
 6650TIP3    H141365   0.156   2.731   1.222 -0.2153 -0.2642 -1.1517
 6650TIP3    H241366   0.116   2.860   1.153  0.8361  0.6320 -0.1258
 6651TIP3   OH241367   0.771   2.942   3.113  0.1219  0.5112 -0.1108
 6651TIP3    H141368   0.760   2.879   3.042  1.1673 -0.9583  0.9960
 6651TIP3    H241369   0.722   2.904   3.186  1.1568  0.7428  0.7135
 6652TIP3   OH241370   0.644   4.439  11.769 -0.1089  0.3359 -0.2626
 6652TIP3    H141371   0.676   4.372  11.709 -0.8193  1.1324 -1.5580
 6652TIP3    H241372   0.705   4.512  11.759 -0.7683  0.8310 -0.7296
 6653TIP3   OH241373   0.648   5.489   4.915  0.1988 -0.2540 -0.0834
 6653TIP3    H141374   0.626   5.550   4.844  2.1473  0.4885 -0.0970
 6653TIP3    H241375   0.651   5.544   4.994  0.7977 -0.5484  0.1029
 6654TIP3   OH241376   1.465   4.541   6.122  0.0021  0.1839 -0.2126
 6654TIP3    H141377   1.509   4.465   6.161  3.1517  0.1395 -3.6000
 6654TIP3    H241378   1.491   4.615   6.179 -0.5868 -0.7862  1.3427
 6655TIP3   OH241379   5.755   3.898  11.174 -0.2843 -0.2792  0.4228
 6655TIP3    H141380   5.744   3.976  11.229 -0.6150  0.7102 -1.0083
 6655TIP3    H241381   5.668   3.858  11.172 -1.2271  1.7318 -2.3352
 6656TIP3   OH241382   6.217   3.128  11.569 -0.4549  0.0394  0.1044
 6656TIP3    H141383   6.165   3.203  11.597 -3.1482 -0.8058 -2.4709
 6656TIP3    H241384   6.155   3.057  11.559  1.4298 -1.4701 -1.4011
 6657TIP3   OH241385   0.395   2.920  12.177 -0.2189  0.2528  0.5229
 6657TIP3    H141386   0.312   2.965  12.191  0.5847  2.4521 -1.5408
 6657TIP3    H241387   0.379   2.859  12.105 -0.1183  0.5370  0.2569
 6658TIP3   OH241388   1.543   1.270   1.362 -0.2777  0.5879  0.0323
 6658TIP3    H141389   1.534   1.237   1.451  0.3416  1.7888  0.5533
 6658TIP3    H241390   1.456   1.260   1.324 -1.2786  2.6010  1.6827
 6659TIP3   OH241391   6.781   1.258  11.717  0.5538 -0.2923 -0.4134
 6659TIP3    H141392   6.830   1.256  11.799 -2.5568 -2.3473  1.5119
 6659TIP3    H241393   6.823   1.327  11.666  3.3197  0.2546  2.4145
 6660TIP3   OH241394   3.659   1.529  14.634 -0.5067  0.4675 -0.0722
 6660TIP3    H141395   3.612   1.560  14.711 -0.5379 -1.4712  0.7211
 6660TIP3    H241396   3.751   1.547  14.654 -0.5799  0.6793  0.0772
 6661TIP3   OH241397   5.463   2.317  14.564 -0.1971 -0.0033  0.1384
 6661TIP3    H141398   5.428   2.331  14.652 -0.9032 -1.8552  0.1787
 6661TIP3    H241399   5.386   2.293  14.512  0.0207  2.2408 -1.2750
 6662TIP3   OH241400   3.523   3.514  13.149 -0.7576 -0.3118 -0.2856
 6662TIP3    H141401   3.469   3.564  13.209  0.5054  1.0707 -0.2719
 6662TIP3    H241402   3.581   3.578  13.109  0.9512 -1.7533 -0.2193
 6663TIP3   OH241403   1.247   2.990   3.376 -0.3507  0.3041  0.4386
 6663TIP3    H141404   1.316   3.032   3.324 -0.2605  0.1326  0.4183
 6663TIP3    H241405   1.166   3.010   3.329 -0.5935  2.4927  1.7246
 6664TIP3   OH241406   0.789   1.997   5.694 -0.6957 -0.6710 -0.0449
 6664TIP3    H141407   0.856   1.928   5.689  1.1961  1.0067  1.6919
 6664TIP3    H241408   0.765   2.002   5.786 -1.6539  0.2597 -0.3243
 6665TIP3   OH241409   0.468   5.644  10.847 -0.2501  0.6571 -0.3645
 6665TIP3    H141410   0.420   5.592  10.782 -0.0361  1.5174 -1.2380
 6665TIP3    H241411   0.519   5.581  10.897  1.3651  0.1613 -2.5584
 6666TIP3   OH241412   4.474   2.125  15.819 -0.2647  0.1160  0.1724
 6666TIP3    H141413   4.401   2.135  15.880  0.6128  0.3928  1.1966
 6666TIP3    H241414   4.483   2.210  15.777  0.6420  0.6554  1.4104
 6667TIP3   OH241415   4.139   1.953   0.872  0.6166 -0.0331  0.0378
 6667TIP3    H141416   4.090   1.926   0.794  0.2615 -0.9651  0.5861
 6667TIP3    H241417   4.214   1.895   0.874  0.6689  0.0469  0.3522
 6668TIP3   OH241418   1.803   5.216  10.619 -0.1286  0.5081  0.2188
 6668TIP3    H141419   1.869   5.256  10.562 -0.0114  0.2934  0.2036
 6668TIP3    H241420   1.795   5.276  10.693 -0.5635  0.9915 -0.2075
 6669TIP3   OH241421   5.564   0.777   1.194  0.3055 -0.4413  0.5186
 6669TIP3    H141422   5.610   0.772   1.111  1.0964 -1.1240  0.9875
 6669TIP3    H241423   5.482   0.822   1.174  0.1697 -1.2453 -0.7687
 6670TIP3   OH241424   6.672   5.065  15.456  0.2618  0.3989  0.4671
 6670TIP3    H141425   6.728   4.990  15.436  1.1829  1.2329 -0.1306
 6670TIP3    H241426   6.607   5.031  15.517  0.5603 -0.9288  0.0558
 6671TIP3   OH241427   5.351   0.745   1.392  0.6537  0.4548 -0.1982
 6671TIP3    H141428   5.388   0.795   1.465 -0.7924  2.7219 -0.9766
 6671TIP3    H241429   5.426   0.726   1.336  1.4666  0.4010  0.8881
 6672TIP3   OH241430   5.073   6.017  11.957  0.0942 -0.3787 -0.2246
 6672TIP3    H141431   5.005   6.029  11.891  0.0655 -3.0414 -0.7412
 6672TIP3    H241432   5.084   5.922  11.963  1.6588 -0.1013  2.0115
 6673TIP3   OH241433   3.735   0.140   1.290 -0.4523  0.1182 -0.2405
 6673TIP3    H141434   3.771   0.187   1.366  0.8980 -0.4638 -0.5136
 6673TIP3    H241435   3.791   0.165   1.217  1.1827 -2.9914 -0.1185
 6674TIP3   OH241436   3.928   1.479  13.121  0.6317 -0.3215 -0.2577
 6674TIP3    H141437   3.994   1.499  13.054  1.2761 -1.8272 -0.1051
 6674TIP3    H241438   3.977   1.480  13.203  0.1849 -0.1351  0.0065
 6675TIP3   OH241439   0.347   4.123   0.231  0.5472 -0.4616 -0.5415
 6675TIP3    H141440   0.391   4.090   0.310  0.6791 -0.3755 -0.5791
 6675TIP3    H241441   0.386   4.208   0.216  1.3799 -0.9899 -1.3910
 6676TIP3   OH241442   4.478   0.558   3.306  0.9088  0.4331  0.3045
 6676TIP3    H141443   4.558   0.534   3.260 -0.7229 -1.0672 -1.8466
 6676TIP3    H241444   4.437   0.475   3.330 -0.2406  1.1654  0.9639
 6677TIP3   OH241445   6.753   5.528  13.357 -0.0273 -0.2740 -0.7120
 6677TIP3    H141446   6.674   5.581  13.351  0.0946 -0.2810 -2.6180
 6677TIP3    H241447   6.815   5.583  13.406 -0.5731  0.4962 -0.8745
 6678TIP3   OH241448   0.956   3.170   1.231  0.1691 -0.3754 -0.0727
 6678TIP3    H141449   0.913   3.136   1.153 -0.2415  1.5803 -0.7252
 6678TIP3    H241450   0.898   3.239   1.263  1.7663  0.8618  0.2469
 6679TIP3   OH241451   1.796   3.199   4.487 -0.4893  0.2425 -0.1809
 6679TIP3    H141452   1.762   3.160   4.567  0.5202 -0.4750 -0.0997
 6679TIP3    H241453   1.884   3.163   4.477 -1.1458 -0.8649 -2.4003
 6680TIP3   OH241454   4.957   6.481  13.291  0.3064  0.2386  0.1652
 6680TIP3    H141455   4.873   6.460  13.251  1.5434 -0.9387 -1.8555
 6680TIP3    H241456   5.016   6.411  13.263  1.8211  0.7095  2.0647
 6681TIP3   OH241457   1.696   0.629   1.423 -0.0419 -0.1241 -0.0735
 6681TIP3    H141458   1.733   0.583   1.499  1.4393 -0.9169 -1.2499
 6681TIP3    H241459   1.694   0.721   1.449  1.0053 -0.3144  0.7147
 6682TIP3   OH241460   5.900   6.217   0.180 -1.1230  0.5956 -0.6760
 6682TIP3    H141461   5.929   6.127   0.193 -1.5717  0.5835  0.3238
 6682TIP3    H241462   5.817   6.209   0.132 -1.1127  0.4765 -0.6752
 6683TIP3   OH241463   3.858   2.585   2.403  0.7397  0.3249  0.0860
 6683TIP3    H141464   3.844   2.605   2.496  1.4083  0.2523  0.2041
 6683TIP3    H241465   3.770   2.570   2.369  0.3783  1.5793  0.4229
 6684TIP3   OH241466   1.921   6.569   4.096  0.4758 -0.4832  0.8706
 6684TIP3    H141467   2.011   6.576   4.063  0.8965  0.1235  2.1320
 6684TIP3    H241468   1.931   6.545   4.188 -0.6852 -1.5480  0.7268
 6685TIP3   OH241469   6.124   2.021   2.014  0.4541 -0.5714 -0.7119
 6685TIP3    H141470   6.082   2.026   2.100  1.0112 -0.7772 -0.4173
 6685TIP3    H241471   6.187   2.093   2.014 -0.6273  0.3807 -1.5584
 6686TIP3   OH241472   4.565   1.994   6.014  0.0717  0.0682  0.3261
 6686TIP3    H141473   4.566   2.036   5.927 -1.6721  0.1293  0.3252
 6686TIP3    H241474   4.574   2.067   6.075 -1.7418  0.3631  0.2807
 6687TIP3   OH241475   2.825   5.493   3.399 -0.2638 -0.0746  0.0666
 6687TIP3    H141476   2.757   5.508   3.464 -0.1933 -1.5232  0.4979
 6687TIP3    H241477   2.904   5.475   3.451  0.2041  0.5714 -0.4219
 6688TIP3   OH241478   0.608   6.515   0.879 -0.1622  0.3279 -0.1283
 6688TIP3    H141479   0.608   6.420   0.866  1.8814  0.4260 -0.9731
 6688TIP3    H241480   0.631   6.552   0.794 -2.5469  1.6825 -0.2356
 6689TIP3   OH241481   2.745   5.157   5.093  0.0431 -0.0267 -0.4765
 6689TIP3    H141482   2.685   5.137   5.166  0.3995  1.6497  0.3021
 6689TIP3    H241483   2.795   5.077   5.081  0.1767 -0.2407  1.3258
 6690TIP3   OH241484   1.633   2.894  12.777  0.1639 -0.2727 -0.4532
 6690TIP3    H141485   1.651   2.807  12.812 -2.2360 -1.2463 -1.5761
 6690TIP3    H241486   1.659   2.954  12.848  3.5208 -1.7685 -0.3548
 6691TIP3   OH241487   0.552   3.833   2.505 -0.0071  0.2114 -0.9820
 6691TIP3    H141488   0.506   3.763   2.460 -1.3578  1.3852 -1.4699
 6691TIP3    H241489   0.615   3.788   2.561 -2.1605 -1.4594  0.1720
 6692TIP3   OH241490   2.951   2.564  12.793  0.3471  0.0449 -0.4418
 6692TIP3    H141491   2.865   2.561  12.835  1.0232 -2.2248  0.8604
 6692TIP3    H241492   2.932   2.577  12.700 -1.2528  2.6822  0.2068
 6693TIP3   OH241493   1.310   0.180  12.155 -0.2937  0.2054 -0.5265
 6693TIP3    H141494   1.389   0.127  12.164 -0.4756 -0.6102 -3.1096
 6693TIP3    H241495   1.283   0.200  12.244  1.4670 -1.5474  0.4291
 6694TIP3   OH241496   3.779   0.486  14.783 -0.9435  0.1027  0.3366
 6694TIP3    H141497   3.707   0.480  14.720 -0.8323 -1.9064  0.3733
 6694TIP3    H241498   3.757   0.561  14.837 -1.0125  1.9323 -2.1156
 6695TIP3   OH241499   4.412   4.470  15.207  0.0029 -0.6060 -0.0553
 6695TIP3    H141500   4.445   4.472  15.117 -1.9373 -2.3791 -0.8359
 6695TIP3    H241501   4.454   4.394  15.247  0.6171 -0.0028  0.4823
 6696TIP3   OH241502   3.924   1.898   0.699 -0.2224  0.1708 -0.1120
 6696TIP3    H141503   3.932   1.878   0.605 -0.4958  1.9391 -0.5357
 6696TIP3    H241504   3.874   1.979   0.701 -1.2782 -0.5105  1.6445
 6697TIP3   OH241505   3.950   3.493  12.006  0.1419 -0.1965 -0.1464
 6697TIP3    H141506   3.914   3.498  12.095 -0.2640 -3.8706 -0.0179
 6697TIP3    H241507   4.037   3.455  12.019  0.5246  0.3222 -1.2202
 6698TIP3   OH241508   2.494   2.943   6.190  0.1623 -0.1403  0.5077
 6698TIP3    H141509   2.502   2.994   6.270  1.3416 -0.2057  0.4392
 6698TIP3    H241510   2.529   2.857   6.213  0.1966 -0.2606  0.0123
 6699TIP3   OH241511   5.093   5.298   1.175 -0.1701 -0.1340 -0.2734
 6699TIP3    H141512   5.127   5.322   1.089  0.6126 -3.5905 -1.0114
 6699TIP3    H241513   5.012   5.249   1.156  1.0275 -2.6246  0.7697
 6700TIP3   OH241514   0.151   5.584  10.792  0.1095  1.0052 -0.9348
 6700TIP3    H141515   0.171   5.666  10.746  2.7859  0.3886 -0.9665
 6700TIP3    H241516   0.146   5.519  10.722 -0.6710  0.9047 -0.7852
 6701TIP3   OH241517   5.218   0.651   4.535  0.5288  0.0385  0.6266
 6701TIP3    H141518   5.239   0.603   4.615 -1.2365 -1.0749  0.4381
 6701TIP3    H241519   5.236   0.589   4.464  0.3032  0.3822  0.2631
 6702TIP3   OH241520   0.325   3.235  12.683 -0.4899  0.2441 -0.1342
 6702TIP3    H141521   0.271   3.161  12.654  0.3681  0.2800 -1.8937
 6702TIP3    H241522   0.366   3.205  12.764 -0.6787 -0.9566 -0.4682
 6703TIP3   OH241523   0.537   4.507  15.821  0.1539  0.1431  0.0013
 6703TIP3    H141524   0.515   4.523  15.729  0.6641 -1.6750 -0.4733
 6703TIP3    H241525   0.457   4.525  15.869  0.2015  2.2040 -0.6762
 6704TIP3   OH241526   2.433   6.616   2.598 -0.6020  0.8065 -0.4357
 6704TIP3    H141527   2.348   6.572   2.596  0.5725 -1.6391  1.2841
 6704TIP3    H241528   2.420   6.691   2.657 -1.5725  0.5261 -0.2855
 6705TIP3   OH241529   5.874   1.878   2.179  0.2018  1.1866  0.1422
 6705TIP3    H141530   5.842   1.794   2.145 -0.8367  1.2793  0.8629
 6705TIP3    H241531   5.904   1.858   2.268 -2.7607  2.1332  1.3972
 6706TIP3   OH241532   2.639   5.551  15.027 -0.4590 -0.7872  0.5310
 6706TIP3    H141533   2.572   5.483  15.036 -2.3150  1.1094  1.1755
 6706TIP3    H241534   2.679   5.534  14.942 -1.9397 -1.7571  0.0106
 6707TIP3   OH241535   2.687   2.908   3.871 -0.7138 -0.2837  0.6659
 6707TIP3    H141536   2.640   2.991   3.882  0.5261  0.2709  1.7663
 6707TIP3    H241537   2.631   2.844   3.914 -1.1892  0.1287  0.6762
 6708TIP3   OH241538   5.167   3.556   3.824 -0.0146  0.6536 -0.0557
 6708TIP3    H141539   5.145   3.541   3.732 -3.1149  2.0537  0.3996
 6708TIP3    H241540   5.142   3.474   3.868  0.0200  0.5425 -0.2424
 6709TIP3   OH241541   2.928   3.957   1.911 -0.1322  0.0920  0.2084
 6709TIP3    H141542   2.866   3.981   1.980  0.0828 -0.1401  0.4800
 6709TIP3    H241543   2.936   3.862   1.918 -0.8537 -0.0490 -0.7617
 6710TIP3   OH241544   0.577   4.561   4.221 -0.2126  0.0197  0.3541
 6710TIP3    H141545   0.552   4.643   4.263 -1.2558 -0.1838  0.1457
 6710TIP3    H241546   0.559   4.494   4.287 -1.5056 -0.2626 -0.2648
 6711TIP3   OH241547   1.722   1.784  10.836 -0.5606  0.2347 -0.2926
 6711TIP3    H141548   1.640   1.735  10.821 -1.1052  0.6169  1.3430
 6711TIP3    H241549   1.790   1.727  10.801 -1.2004 -1.6314  1.4210
 6712TIP3   OH241550   1.257   3.231   6.260  0.2911  0.4412  0.3843
 6712TIP3    H141551   1.237   3.319   6.292 -3.6664 -0.2784  0.1062
 6712TIP3    H241552   1.252   3.239   6.165 -0.2791 -0.1141  0.3652
 6713TIP3   OH241553   5.347   6.627   4.868  0.6408  0.7532 -0.0867
 6713TIP3    H141554   5.362   6.606   4.775 -0.5449 -1.0954  0.1050
 6713TIP3    H241555   5.329   6.721   4.869  0.9445  0.8443 -1.6952
 6714TIP3   OH241556   0.670   0.083  15.370 -0.8127 -0.3323 -0.7412
 6714TIP3    H141557   0.668   0.164  15.422 -2.7731 -1.7537  1.4756
 6714TIP3    H241558   0.748   0.093  15.314 -0.7408  2.8580 -0.2016
 6715TIP3   OH241559   0.729   5.342   1.402  0.6960 -0.0012 -0.0094
 6715TIP3    H141560   0.744   5.417   1.460  1.2538  0.0636 -0.2371
 6715TIP3    H241561   0.792   5.354   1.331  0.7967 -0.6919 -0.0391
 6716TIP3   OH241562   2.782   6.150  16.054 -0.3195  0.3738  0.3602
 6716TIP3    H141563   2.835   6.176  15.979 -0.2335  0.3050  0.3979
 6716TIP3    H241564   2.748   6.064  16.031 -1.0204  0.7368  0.0157
 6717TIP3   OH241565   0.353   2.856   4.452  0.1625  0.3142 -0.3527
 6717TIP3    H141566   0.348   2.788   4.519 -3.5155 -0.4908 -1.3265
 6717TIP3    H241567   0.372   2.808   4.371 -0.9191  0.6031 -0.7875
 6718TIP3   OH241568   4.257   3.537  11.713 -0.2639 -0.1060  0.2617
 6718TIP3    H141569   4.184   3.593  11.738  0.7371  1.1405  0.4622
 6718TIP3    H241570   4.244   3.457  11.763 -1.4179  0.1616  0.4016
 6719TIP3   OH241571   6.330   0.219   5.012 -0.4043 -0.8891 -0.1148
 6719TIP3    H141572   6.303   0.152   4.949 -1.4577 -1.3117  0.7529
 6719TIP3    H241573   6.262   0.286   5.006 -0.4496 -0.8745  0.4610
 6720TIP3   OH241574   1.497   6.747   3.328 -0.3765  0.0819 -0.1235
 6720TIP3    H141575   1.460   6.681   3.386  5.0521 -0.7477  2.7274
 6720TIP3    H241576   1.485   6.830   3.375 -0.9889  0.1614 -0.4252
 6721TIP3   OH241577   5.883   5.321  12.358  0.0392  0.4368  0.0055
 6721TIP3    H141578   5.853   5.296  12.271 -0.9566 -0.5340  0.6126
 6721TIP3    H241579   5.903   5.237  12.401 -1.3694  0.7930  1.3858
 6722TIP3   OH241580   5.365   2.661   5.340 -0.0840  0.3608 -0.1823
 6722TIP3    H141581   5.390   2.735   5.285  0.7289 -0.8181 -1.4054
 6722TIP3    H241582   5.307   2.608   5.285 -1.6116  0.6689  1.0779
 6723TIP3   OH241583   3.784   3.926   5.369  0.0478 -0.3413 -0.4013
 6723TIP3    H141584   3.781   3.831   5.384 -0.3559 -0.3692 -0.6313
 6723TIP3    H241585   3.693   3.949   5.348 -0.3169  0.4918  1.9952
 6724TIP3   OH241586   5.952   6.521   4.403  0.4941  0.2135 -0.0889
 6724TIP3    H141587   5.872   6.554   4.360  2.0730  1.8526 -1.8576
 6724TIP3    H241588   5.931   6.430   4.425 -1.9028  0.6350 -0.4250
 6725TIP3   OH241589   0.732   4.003   1.168 -0.3520  0.4533 -0.2909
 6725TIP3    H141590   0.672   3.940   1.129  0.4672 -0.0557 -0.7322
 6725TIP3    H241591   0.796   4.021   1.100  1.8772 -1.4596  1.2040
 6726TIP3   OH241592   6.591   1.346   3.256  0.1466  0.0632 -0.5867
 6726TIP3    H141593   6.664   1.381   3.206 -0.7592  0.1875 -1.8441
 6726TIP3    H241594   6.541   1.294   3.193 -0.8174 -0.0577  0.2667
 6727TIP3   OH241595   6.022   6.383  10.212 -0.4817 -0.1536  0.4494
 6727TIP3    H141596   6.017   6.394  10.306 -1.5760 -1.8761  0.6159
 6727TIP3    H241597   6.026   6.288  10.199 -1.0155  0.0372 -1.2538
 6728TIP3   OH241598   1.155   2.490  13.543  0.1827  0.0993  0.1150
 6728TIP3    H141599   1.199   2.460  13.464 -0.2646  0.9315 -0.4703
 6728TIP3    H241600   1.177   2.583  13.548  1.0097 -0.1738  1.5167
 6729TIP3   OH241601   4.605   5.381  13.295 -0.3870  0.1935 -0.4644
 6729TIP3    H141602   4.559   5.334  13.365  1.0152  2.1497  1.8260
 6729TIP3    H241603   4.562   5.467  13.293 -1.6764 -0.4604 -3.3450
 6730TIP3   OH241604   3.968   1.720  15.027  0.4092  0.0262  0.2929
 6730TIP3    H141605   3.944   1.653  14.963  0.5822 -0.3235  0.5947
 6730TIP3    H241606   4.027   1.676  15.087 -0.0915  0.2341  0.9423
 6731TIP3   OH241607   3.420   0.987  13.657  0.3441  0.1746 -0.0789
 6731TIP3    H141608   3.466   1.064  13.691 -0.2371  0.6874 -0.4574
 6731TIP3    H241609   3.485   0.916  13.663  1.8860  1.3207 -2.4886
 6732TIP3   OH241610   3.770   3.734  12.865  0.3397  0.8684  0.3623
 6732TIP3    H141611   3.842   3.784  12.827  1.4730 -0.5815  0.5562
 6732TIP3    H241612   3.761   3.768  12.954  1.5998  0.2270  0.7445
 6733TIP3   OH241613   0.745   2.623   1.621  0.1759  0.1267  0.5419
 6733TIP3    H141614   0.787   2.679   1.685 -0.5501  0.4703  0.7281
 6733TIP3    H241615   0.757   2.534   1.654  0.8306  0.2172  0.5411
 6734TIP3   OH241616   5.322   2.182  15.656  0.4791 -0.3609 -0.4218
 6734TIP3    H141617   5.358   2.270  15.653 -0.2967 -0.0470 -0.4778
 6734TIP3    H241618   5.228   2.194  15.669  0.5632 -1.1996  1.1594
 6735TIP3   OH241619   4.402   6.074   2.743 -1.0805  0.5107  0.1954
 6735TIP3    H141620   4.318   6.097   2.783 -0.2764  2.0823  1.0101
 6735TIP3    H241621   4.467   6.123   2.793  0.5312 -2.1389  0.7815
 6736TIP3   OH241622   6.017   1.286  14.613 -0.2326 -0.1942 -0.1863
 6736TIP3    H141623   6.075   1.311  14.684 -1.4172  0.7484  0.4757
 6736TIP3    H241624   5.988   1.198  14.635 -3.5955  1.4625  2.5778
 6737TIP3   OH241625   5.169   3.799   2.504  0.6999  0.0361  0.1943
 6737TIP3    H141626   5.191   3.706   2.510 -0.8175 -0.4551 -1.3612
 6737TIP3    H241627   5.094   3.810   2.562  0.1569  0.0420 -0.5085
 6738TIP3   OH241628   0.591   6.179   2.070  0.2561 -0.1308 -0.4907
 6738TIP3    H141629   0.507   6.169   2.116  1.9182 -0.1252  2.6180
 6738TIP3    H241630   0.574   6.141   1.983 -2.8251 -0.5449  0.2125
 6739TIP3   OH241631   2.935   4.991   2.493  0.4529 -0.5805  0.8281
 6739TIP3    H141632   3.019   5.018   2.532  1.3589 -2.8869  0.5386
 6739TIP3    H241633   2.925   4.899   2.519 -1.8919 -0.3920  0.6706
 6740TIP3   OH241634   1.240   3.667   1.112 -0.3898 -0.2961 -0.3999
 6740TIP3    H141635   1.204   3.734   1.171 -1.6001 -1.2644 -0.0031
 6740TIP3    H241636   1.335   3.676   1.121 -0.5026  1.8878 -0.9707
 6741TIP3   OH241637   0.348   5.265  12.307  0.7924  0.1203  0.5534
 6741TIP3    H141638   0.339   5.171  12.322 -1.4125  0.0319 -1.2119
 6741TIP3    H241639   0.372   5.300  12.393  2.3411 -2.1088  1.0729
 6742TIP3   OH241640   6.677   4.235  16.057  0.5273 -0.1019 -0.3484
 6742TIP3    H141641   6.609   4.302  16.046  0.0646 -0.5973 -0.5249
 6742TIP3    H241642   6.752   4.269  16.008  0.6026  0.7226  0.3282
 6743TIP3   OH241643   6.573   5.007   5.990  0.0291 -0.6279 -0.4453
 6743TIP3    H141644   6.644   4.954   6.028  0.1122 -0.7435 -0.7562
 6743TIP3    H241645   6.493   4.961   6.015  0.2001 -2.1890 -2.6369
 6744TIP3   OH241646   4.499   3.101  15.234  0.4037  0.3325 -0.4068
 6744TIP3    H141647   4.525   3.175  15.180  0.9766 -0.1023 -0.7375
 6744TIP3    H241648   4.581   3.053  15.249  0.3415  0.7277  1.2769
 6745TIP3   OH241649   3.225   6.576  14.013  0.6068 -0.0315 -0.3332
 6745TIP3    H141650   3.149   6.565  13.957  1.8673 -0.5830 -1.9636
 6745TIP3    H241651   3.206   6.655  14.064 -1.4066 -0.6417 -0.1070
 6746TIP3   OH241652   2.050   5.472   0.157 -0.0984 -0.5560 -0.2037
 6746TIP3    H141653   2.006   5.410   0.099  1.4278 -0.9586 -0.9409
 6746TIP3    H241654   2.088   5.418   0.226 -0.4750 -0.2371  0.2627
 6747TIP3   OH241655   1.759   5.413  16.252  0.0684  0.0038  0.4037
 6747TIP3    H141656   1.767   5.323  16.282  0.6905  0.0821  0.4894
 6747TIP3    H241657   1.671   5.419  16.215  0.7246 -1.1874 -1.3922
 6748TIP3   OH241658   3.547   0.154  15.932 -0.0633 -0.1546  0.1908
 6748TIP3    H141659   3.454   0.149  15.909  0.5041 -0.6619 -2.1230
 6748TIP3    H241660   3.556   0.237  15.977 -1.4490  0.4359 -0.5816
 6749TIP3   OH241661   3.144   2.764  15.024  0.7425  0.3602 -0.4572
 6749TIP3    H141662   3.160   2.669  15.026  1.0916  0.4359  1.4173
 6749TIP3    H241663   3.075   2.775  14.958  1.3721 -1.0884 -1.3803
 6750TIP3   OH241664   0.017   1.256   3.745 -0.5103 -0.0051 -0.4228
 6750TIP3    H141665   0.061   1.222   3.823  0.5092  1.0528 -0.5307
 6750TIP3    H241666   0.020   1.351   3.755 -3.0650  0.0917 -0.2795
 6751TIP3   OH241667   0.891   2.715  10.492 -0.2385 -0.2048  0.0352
 6751TIP3    H141668   0.881   2.679  10.580 -2.4742 -0.8551 -0.4440
 6751TIP3    H241669   0.940   2.648  10.444  1.9016  0.6082  1.0255
 6752TIP3   OH241670   0.065   0.678   3.299  0.6426  0.1813  0.0220
 6752TIP3    H141671   0.044   0.766   3.268  0.5232 -0.1211 -0.7696
 6752TIP3    H241672   0.157   0.682   3.325  0.7348  0.4417 -0.3561
 6753TIP3   OH241673   1.387   2.283   1.292 -0.2854  0.1439 -0.4920
 6753TIP3    H141674   1.452   2.213   1.288 -0.9777 -0.4137 -3.0675
 6753TIP3    H241675   1.328   2.257   1.362  1.2000 -0.2935  0.6163
 6754TIP3   OH241676   4.659   1.157  15.707  0.3308 -0.9851  0.2482
 6754TIP3    H141677   4.575   1.150  15.752  0.6144 -1.9577  0.6361
 6754TIP3    H241678   4.636   1.161  15.614 -0.0849 -2.7782  0.2584
 6755TIP3   OH241679   2.863   6.079   0.836 -0.2480  0.2004 -0.4241
 6755TIP3    H141680   2.928   6.020   0.875  0.7575  0.1282 -2.2017
 6755TIP3    H241681   2.867   6.158   0.890  0.2711 -0.3433  0.3502
 6756TIP3   OH241682   4.171   1.576   3.348 -0.3743  0.1248  0.6844
 6756TIP3    H141683   4.180   1.600   3.440  1.1576 -1.8381  1.0905
 6756TIP3    H241684   4.086   1.533   3.342 -0.1241 -0.4968  1.3977
 6757TIP3   OH241685   2.507   4.249  11.427 -0.1701 -0.4868 -0.7306
 6757TIP3    H141686   2.596   4.285  11.434  0.1958 -1.5669  0.3358
 6757TIP3    H241687   2.509   4.197  11.347 -0.4724  1.1920 -1.8540
 6758TIP3   OH241688   2.622   0.129  14.840 -0.6325 -0.4617 -0.1011
 6758TIP3    H141689   2.627   0.183  14.919 -0.7174 -2.0117  0.9747
 6758TIP3    H241690   2.569   0.054  14.865 -1.0284 -0.7721 -1.7692
 6759TIP3   OH241691   2.478   5.048   0.513 -0.5003 -0.2864 -0.1588
 6759TIP3    H141692   2.468   5.116   0.447  0.0430 -0.1437 -0.1028
 6759TIP3    H241693   2.409   5.066   0.577  0.2988  0.8868  0.4204
 6760TIP3   OH241694   6.509   1.191  12.186 -0.1459  0.5188  0.1733
 6760TIP3    H141695   6.489   1.246  12.263  1.9005  0.4555  0.7679
 6760TIP3    H241696   6.603   1.200  12.174 -0.1427 -1.0707 -1.1245
 6761TIP3   OH241697   5.250   1.237  12.447  0.5399 -0.4417 -0.4583
 6761TIP3    H141698   5.179   1.282  12.492  1.1557 -1.1409  1.2420
 6761TIP3    H241699   5.248   1.148  12.482  1.8239 -0.6522 -0.8941
 6762TIP3   OH241700   0.553   3.542  15.319  0.2127 -0.0243  0.1793
 6762TIP3    H141701   0.510   3.488  15.253  0.7545  0.6246 -0.7188
 6762TIP3    H241702   0.551   3.631  15.283  1.0620  0.2385  0.7557
 6763TIP3   OH241703   6.545   3.353   4.930 -0.6967 -0.3990  0.1670
 6763TIP3    H141704   6.558   3.267   4.891  1.5607  0.7583 -1.8022
 6763TIP3    H241705   6.463   3.384   4.892 -0.2207 -0.6653 -1.1269
 6764TIP3   OH241706   1.534   3.786  14.174 -0.1726 -0.4162 -0.4772
 6764TIP3    H141707   1.525   3.870  14.218 -1.0845 -0.6822 -0.1677
 6764TIP3    H241708   1.453   3.775  14.125  0.2744 -0.7470 -1.1572
 6765TIP3   OH241709   5.050   6.019  17.120  0.2440  0.3660  0.4205
 6765TIP3    H141710   5.141   5.990  17.129  0.7478  1.6367 -0.3221
 6765TIP3    H241711   5.000   5.939  17.104  1.3999 -0.2344 -0.2954
 6766TIP3   OH241712   5.984   3.167   4.588  0.7090 -0.0805  0.1506
 6766TIP3    H141713   5.951   3.167   4.678  0.8534  0.9756  0.2049
 6766TIP3    H241714   6.032   3.249   4.580  0.1086  0.1629 -1.1112
 6767TIP3   OH241715   5.481   1.188   2.730 -0.1922  0.3783  0.3018
 6767TIP3    H141716   5.441   1.135   2.661 -2.6899  0.3453  1.7062
 6767TIP3    H241717   5.574   1.166   2.727 -0.4971 -0.7518 -2.0363
 6768TIP3   OH241718   0.938   6.736  16.790 -0.3304 -0.1354  0.1734
 6768TIP3    H141719   1.020   6.777  16.816  1.1379 -2.6933 -0.2523
 6768TIP3    H241720   0.883   6.741  16.869 -1.0246  4.4370 -0.4730
 6769TIP3   OH241721   4.054   2.337   2.387 -0.3835 -0.0417  0.1025
 6769TIP3    H141722   4.111   2.260   2.390 -1.7813 -1.0563  2.8788
 6769TIP3    H241723   4.113   2.411   2.376  1.0158 -1.4532 -2.3503
 6770TIP3   OH241724   5.009   4.046   5.811 -0.1392  0.3418 -0.7435
 6770TIP3    H141725   4.956   3.969   5.792  0.7651 -0.9517  1.7868
 6770TIP3    H241726   5.087   4.036   5.755  0.7829 -1.5219  0.7924
 6771TIP3   OH241727   1.766   2.827  13.499  0.2726 -0.3185  0.6317
 6771TIP3    H141728   1.825   2.765  13.542 -0.2051 -0.1921  1.4856
 6771TIP3    H241729   1.809   2.912  13.511  0.4812 -0.3654  0.2429
 6772TIP3   OH241730   4.886   2.136  14.481  0.5672 -0.5599  0.0639
 6772TIP3    H141731   4.931   2.053  14.491 -1.1528 -1.2584  2.3903
 6772TIP3    H241732   4.838   2.148  14.562 -2.0540  0.9984 -1.6311
 6773TIP3   OH241733   1.481   5.935   3.227  0.1169 -1.1186  0.3515
 6773TIP3    H141734   1.441   5.873   3.167  0.3160 -1.9120  1.0344
 6773TIP3    H241735   1.413   5.951   3.293 -0.3788  0.3323 -0.4806
 6774TIP3   OH241736   5.850   1.572  12.702 -0.5704  0.1962  0.7883
 6774TIP3    H141737   5.900   1.626  12.764  1.3162 -0.5860 -0.0047
 6774TIP3    H241738   5.780   1.629  12.671 -0.1398  1.3508  1.8760
 6775TIP3   OH241739   0.466   1.353   3.335 -0.0963  0.4202  0.0446
 6775TIP3    H141740   0.517   1.288   3.286 -0.6488  1.3543 -1.7736
 6775TIP3    H241741   0.444   1.420   3.271 -2.5227  0.6760  1.1042
 6776TIP3   OH241742   1.194   1.336   1.002 -0.3005 -0.0570 -0.1999
 6776TIP3    H141743   1.216   1.274   0.932 -1.0878 -0.0238 -0.4792
 6776TIP3    H241744   1.193   1.422   0.958  0.6431  0.1442  0.1557
 6777TIP3   OH241745   3.431   2.955   1.756 -0.2995 -0.0026  0.0375
 6777TIP3    H141746   3.470   3.019   1.696 -0.4342  1.1607  1.1878
 6777TIP3    H241747   3.490   2.879   1.751  1.1514  1.0732  0.4087
 6778TIP3   OH241748   3.495   2.659  11.844  0.3359 -0.3562 -0.0624
 6778TIP3    H141749   3.488   2.679  11.751 -0.2811  0.4177  0.1418
 6778TIP3    H241750   3.416   2.608  11.864 -1.9970  3.4676  1.0135
 6779TIP3   OH241751   6.740   2.651  13.361 -0.0342 -0.8784  0.4127
 6779TIP3    H141752   6.691   2.697  13.428  0.5411  0.5290 -0.1026
 6779TIP3    H241753   6.698   2.566  13.354 -0.4927 -0.7988  2.0929
 6780TIP3   OH241754   1.220   6.412   4.220 -0.6362 -0.1556 -0.1953
 6780TIP3    H141755   1.228   6.339   4.281 -1.0461 -0.1477 -0.1306
 6780TIP3    H241756   1.255   6.379   4.137  0.6689  0.0911  0.2447
 6781TIP3   OH241757   4.021   2.598  16.912  0.1900  0.5427 -0.5787
 6781TIP3    H141758   3.987   2.509  16.904 -0.4157  0.6134  1.0612
 6781TIP3    H241759   4.003   2.639  16.827 -4.2072  0.6989  0.3251
 6782TIP3   OH241760   1.217   1.617   0.918 -0.3463  0.5227  1.0248
 6782TIP3    H141761   1.272   1.658   0.850  0.4070 -1.3185  0.5015
 6782TIP3    H241762   1.237   1.666   0.998  2.8620 -0.7760  1.0697
 6783TIP3   OH241763   0.193   3.379  13.904 -0.8685 -0.3958  0.0422
 6783TIP3    H141764   0.128   3.348  13.841  0.4578 -1.3551 -0.8669
 6783TIP3    H241765   0.277   3.374  13.857 -0.2025  1.3985  0.9951
 6784TIP3   OH241766   5.017   6.749   4.872  0.0746 -0.0332 -0.1489
 6784TIP3    H141767   5.045   6.705   4.792 -1.4665 -1.3741  0.0247
 6784TIP3    H241768   5.051   6.838   4.864  2.6500 -1.0221 -0.8281
 6785TIP3   OH241769   2.031   4.111  15.857 -0.2550  0.0326  0.0674
 6785TIP3    H141770   2.103   4.143  15.803 -1.7101  1.4776 -1.0744
 6785TIP3    H241771   1.962   4.090  15.795 -0.6810 -1.7436  1.1104
 6786TIP3   OH241772   2.148   2.385   5.160 -0.0976  0.5062  0.3005
 6786TIP3    H141773   2.212   2.393   5.231  1.3302 -0.4786 -0.8547
 6786TIP3    H241774   2.157   2.294   5.130 -1.1275  0.7350 -0.7216
 6787TIP3   OH241775   6.172   4.171   6.008  0.3132  0.7109  0.8055
 6787TIP3    H141776   6.109   4.193   6.077  1.3691  0.5919  1.8295
 6787TIP3    H241777   6.126   4.190   5.926 -1.4592 -0.4540  1.4997
 6788TIP3   OH241778   2.428   0.940   5.320 -0.3529  0.7825  0.2515
 6788TIP3    H141779   2.341   0.900   5.326 -0.2172  0.0898 -1.8631
 6788TIP3    H241780   2.419   1.008   5.254  1.1204 -0.5082 -1.3390
 6789TIP3   OH241781   4.898   2.424   4.810  0.1804 -0.2422  0.1905
 6789TIP3    H141782   4.843   2.455   4.738 -0.5399 -0.9380  0.4440
 6789TIP3    H241783   4.889   2.491   4.878 -1.5184 -1.0720  0.8085
 6790TIP3   OH241784   5.516   1.111  15.240 -0.3592 -0.2040  0.5033
 6790TIP3    H141785   5.438   1.154  15.205 -0.8864  0.2674  2.2003
 6790TIP3    H241786   5.578   1.109  15.166 -2.3154 -1.5087 -1.1549
 6791TIP3   OH241787   0.949   1.886  11.412  0.1808  0.2685  0.1088
 6791TIP3    H141788   0.941   1.851  11.500 -1.7161  0.6406  0.0979
 6791TIP3    H241789   0.886   1.958  11.409  0.6540  0.6336 -1.3581
 6792TIP3   OH241790   5.822   6.712   3.680  0.4891 -0.1251 -0.4959
 6792TIP3    H141791   5.731   6.742   3.670  0.3515 -1.3280 -3.3071
 6792TIP3    H241792   5.870   6.790   3.707 -1.2928  0.6477  0.5151
 6793TIP3   OH241793   4.179   5.186  12.374 -0.0196  0.4265 -0.0183
 6793TIP3    H141794   4.195   5.272  12.414  1.7395  0.2893 -0.3661
 6793TIP3    H241795   4.219   5.193  12.288 -0.9561 -0.3506 -0.5233
 6794TIP3   OH241796   3.131   6.003  13.693 -0.1239 -0.1465  0.3389
 6794TIP3    H141797   3.151   6.076  13.634  0.0841 -1.8165 -1.7454
 6794TIP3    H241798   3.061   5.955  13.648  0.2557 -1.6403  1.3009
 6795TIP3   OH241799   4.162   4.199   1.432  0.1736 -0.1820  0.3401
 6795TIP3    H141800   4.117   4.171   1.512  2.3840 -2.6877  0.7879
 6795TIP3    H241801   4.212   4.276   1.458 -0.5155  0.0615  0.9383
 6796TIP3   OH241802   1.844   2.209  14.595  0.9896  0.6176 -0.0445
 6796TIP3    H141803   1.771   2.258  14.557  0.2063  1.4283  2.4437
 6796TIP3    H241804   1.870   2.148  14.526 -0.4218  1.9999 -1.8525
 6797TIP3   OH241805   6.475   5.617  12.581 -0.8495  0.2325  0.5647
 6797TIP3    H141806   6.407   5.569  12.534  0.3249 -1.8887  0.9637
 6797TIP3    H241807   6.459   5.597  12.673  0.1820 -0.1051  0.6747
 6798TIP3   OH241808   5.082   1.286  14.914  0.4778  0.2575 -0.8540
 6798TIP3    H141809   5.115   1.361  14.866 -1.2552  0.6725 -1.4120
 6798TIP3    H241810   5.128   1.211  14.876  0.0722  0.7197 -2.2752
 6799TIP3   OH241811   3.792   6.367  11.588  0.2327 -0.3077 -1.0763
 6799TIP3    H141812   3.810   6.371  11.682  0.0259 -0.2547 -1.0384
 6799TIP3    H241813   3.768   6.276  11.572 -0.3071 -0.1840 -0.9717
 6800TIP3   OH241814   2.234   0.784   0.945  0.0524  0.6070  0.5573
 6800TIP3    H141815   2.323   0.768   0.913 -0.1364 -0.7054  0.6654
 6800TIP3    H241816   2.225   0.728   1.022 -1.5479 -0.8300 -0.6291
 6801TIP3   OH241817   3.268   1.811  11.510  0.0804 -0.0569 -0.0569
 6801TIP3    H141818   3.315   1.882  11.466  0.4738 -0.9187 -1.0688
 6801TIP3    H241819   3.195   1.854  11.554  0.7051  1.0567 -0.0748
 6802TIP3   OH241820   1.632   2.176   2.873  0.0573  0.2218  0.3528
 6802TIP3    H141821   1.727   2.173   2.884  0.0047 -0.6441  0.6299
 6802TIP3    H241822   1.619   2.157   2.780  0.1521  0.3773  0.3063
 6803TIP3   OH241823   0.429   3.316  12.197  0.6547  0.5091 -0.6016
 6803TIP3    H141824   0.483   3.252  12.242 -2.3157 -2.4308 -0.9885
 6803TIP3    H241825   0.376   3.356  12.266 -0.1693 -0.2318 -0.7857
 6804TIP3   OH241826   4.077   5.397   1.056  1.1923  0.1743 -0.0950
 6804TIP3    H141827   3.997   5.411   1.005  2.0605 -1.1231 -1.8536
 6804TIP3    H241828   4.124   5.480   1.052  0.9299  0.2874 -0.8257
 6805TIP3   OH241829   5.589   1.985   3.394  0.4366 -0.1106  0.4063
 6805TIP3    H141830   5.665   1.955   3.345 -0.2713 -0.6460 -0.3718
 6805TIP3    H241831   5.557   1.907   3.440  0.0365 -0.0176  0.2932
 6806TIP3   OH241832   6.716   3.402  15.880 -0.0641 -0.4564 -0.1148
 6806TIP3    H141833   6.741   3.436  15.794 -1.2875  1.4918  0.2692
 6806TIP3    H241834   6.696   3.310  15.865 -2.4656  0.3891 -2.3716
 6807TIP3   OH241835   0.144   4.426   0.323  0.1579  0.0878  0.0711
 6807TIP3    H141836   0.238   4.421   0.307  0.1398  1.3853 -0.5158
 6807TIP3    H241837   0.111   4.480   0.251 -0.7827  1.0500  1.1996
 6808TIP3   OH241838   3.491   4.344   0.006 -0.3739  0.0450  0.1785
 6808TIP3    H141839   3.519   4.327   0.096 -0.4179  1.6015  0.5015
 6808TIP3    H241840   3.410   4.394   0.015 -0.2543  0.4134 -0.7270
 6809TIP3   OH241841   2.839   1.952   4.539  0.1326  0.2889 -0.0493
 6809TIP3    H141842   2.800   1.927   4.622 -0.7410 -0.2742 -0.6260
 6809TIP3    H241843   2.859   1.869   4.495 -0.1201  0.5848 -0.7358
 6810TIP3   OH241844   1.660   6.505   5.235  0.5278  0.3971 -0.2973
 6810TIP3    H141845   1.640   6.573   5.299  2.0332  0.9834 -0.4165
 6810TIP3    H241846   1.659   6.551   5.151  0.0672 -0.0424 -0.5289
 6811TIP3   OH241847   0.794   3.425  12.150  0.3677 -0.3433  0.1746
 6811TIP3    H141848   0.709   3.459  12.119 -1.2277 -2.5586  1.9505
 6811TIP3    H241849   0.854   3.498  12.138 -1.7436  1.2279 -1.3415
 6812TIP3   OH241850   3.743   5.783   0.822  0.1442  0.4443  0.3657
 6812TIP3    H141851   3.680   5.851   0.846  0.7898  1.3456 -0.4841
 6812TIP3    H241852   3.756   5.795   0.728  1.4088  0.1068  0.4997
 6813TIP3   OH241853   2.012   1.414   4.815 -0.2726 -0.0619  0.5390
 6813TIP3    H141854   2.096   1.372   4.795  0.1747  0.6600  0.8992
 6813TIP3    H241855   1.975   1.359   4.884  0.1901 -0.0296  0.8209
 6814TIP3   OH241856   5.143   6.281  14.740 -0.3465 -0.1553 -0.4835
 6814TIP3    H141857   5.099   6.199  14.762  1.6259 -1.2104 -0.3673
 6814TIP3    H241858   5.072   6.344  14.727 -1.8313 -1.4226  1.2319
 6815TIP3   OH241859   2.604   1.376   0.983  0.3698  0.8936 -0.5693
 6815TIP3    H141860   2.692   1.340   0.973  0.5143  1.5072 -1.5285
 6815TIP3    H241861   2.613   1.441   1.053  0.3498 -0.1186  0.3803
 6816TIP3   OH241862   2.741   6.131   0.455 -0.5481 -0.1337  0.1860
 6816TIP3    H141863   2.745   6.140   0.360 -2.2578  0.7102  0.1777
 6816TIP3    H241864   2.800   6.199   0.488 -0.7577  0.2631 -0.2503
 6817TIP3   OH241865   4.768   3.597  12.663  0.1329 -0.1111 -0.2920
 6817TIP3    H141866   4.786   3.596  12.569  0.2999 -0.8522 -0.2502
 6817TIP3    H241867   4.676   3.620  12.669  0.3878  1.0751 -0.5919
 6818TIP3   OH241868   6.755   3.984   2.480  0.3408  0.3687  0.3219
 6818TIP3    H141869   6.747   3.937   2.563 -1.5937  2.2876  1.2825
 6818TIP3    H241870   6.838   4.031   2.486 -0.0986  1.0187  1.4645
 6819TIP3   OH241871   3.741   6.507  15.220  0.6864 -0.1022 -0.6170
 6819TIP3    H141872   3.732   6.547  15.306  2.2940 -0.2930 -0.3445
 6819TIP3    H241873   3.743   6.581  15.158  2.0730  0.1779 -0.2548
 6820TIP3   OH241874   4.642   2.619   4.372 -0.1630  0.0379 -0.0433
 6820TIP3    H141875   4.703   2.603   4.300 -0.5864 -0.4803 -0.2867
 6820TIP3    H241876   4.590   2.693   4.342 -0.3346 -0.1738 -0.2660
 6821TIP3   OH241877   5.889   5.672  17.149 -0.2274 -0.4139  0.0210
 6821TIP3    H141878   5.939   5.618  17.088  0.4384  0.1187  0.0936
 6821TIP3    H241879   5.860   5.747  17.096  0.2060 -0.0384  0.3143
 6822TIP3   OH241880   5.783   6.123   1.531 -0.2051  0.4192  0.2716
 6822TIP3    H141881   5.764   6.147   1.440 -1.1459  0.5340  0.4986
 6822TIP3    H241882   5.765   6.202   1.582  0.9056  0.5333  0.4885
 6823TIP3   OH241883   6.529   1.402  11.417  0.2312  0.0957 -0.0481
 6823TIP3    H141884   6.554   1.366  11.332  1.0212 -1.1371  0.7084
 6823TIP3    H241885   6.436   1.379  11.426 -0.1802  1.2603 -1.0888
 6824TIP3   OH241886   3.965   6.782   6.785  0.3053 -0.1397  0.3056
 6824TIP3    H141887   4.003   6.761   6.870 -0.0294  1.4282  0.8523
 6824TIP3    H241888   4.031   6.837   6.742 -0.5763  1.1453  0.5673
 6825TIP3   OH241889   6.597   0.454   2.724 -0.3708  0.2669 -0.0447
 6825TIP3    H141890   6.519   0.508   2.716 -0.8156 -0.3906 -0.1976
 6825TIP3    H241891   6.663   0.498   2.671 -0.9367  0.2835 -0.7386
 6826TIP3   OH241892   6.010   3.845   1.737  0.2548  0.2219  0.3813
 6826TIP3    H141893   6.076   3.830   1.804 -0.6753  0.1430  1.2856
 6826TIP3    H241894   5.951   3.771   1.744  0.0134  0.3323 -0.3782
 6827TIP3   OH241895   1.665   5.457  12.491  0.1114 -0.0198 -0.1169
 6827TIP3    H141896   1.580   5.422  12.519  0.3551 -0.0578  0.5931
 6827TIP3    H241897   1.658   5.551  12.505  1.3264 -0.3365  3.1550
 6828TIP3   OH241898   0.257   0.664   3.040 -0.1901  0.9245 -0.2874
 6828TIP3    H141899   0.260   0.592   2.977 -1.2539  1.3367 -0.8276
 6828TIP3    H241900   0.346   0.671   3.073 -0.2080 -1.0830  0.2757
 6829TIP3   OH241901   0.383   3.634   2.431  0.1665  0.6132 -1.0194
 6829TIP3    H141902   0.301   3.604   2.470  1.5830 -1.5065  0.4469
 6829TIP3    H241903   0.400   3.573   2.360 -0.1116  1.7656 -2.0873
 6830TIP3   OH241904   6.415   2.749  14.633 -0.0346 -0.1643  0.1512
 6830TIP3    H141905   6.479   2.789  14.693  0.2487  0.0110 -0.2663
 6830TIP3    H241906   6.463   2.740  14.550 -0.2627 -0.8836  0.0955
 6831TIP3   OH241907   0.849   1.320   2.149 -0.6660  0.4122  0.5525
 6831TIP3    H141908   0.782   1.388   2.150 -2.4601 -1.3305  2.4158
 6831TIP3    H241909   0.885   1.323   2.060 -1.7352  2.7676  0.1619
 6832TIP3   OH241910   6.034   2.498   4.094 -0.5430  0.4605  0.3245
 6832TIP3    H141911   6.038   2.491   3.999 -1.8891 -0.8550  0.3452
 6832TIP3    H241912   6.004   2.588   4.110  1.1967  1.2015 -0.4254
 6833TIP3   OH241913   6.549   3.148   4.750  0.0335 -0.1481 -0.7225
 6833TIP3    H141914   6.492   3.211   4.706 -0.6033 -0.7646 -0.7926
 6833TIP3    H241915   6.601   3.109   4.679 -0.9239 -1.0719 -0.9304
 6834TIP3   OH241916   5.394   6.048   1.228  0.6884 -0.4865  0.0318
 6834TIP3    H141917   5.356   5.962   1.249  1.6457 -0.9556 -0.1609
 6834TIP3    H241918   5.404   6.091   1.312  1.3335 -1.0305  0.2303
 6835TIP3   OH241919   3.678   4.195  11.627  0.3071  0.2865  0.0366
 6835TIP3    H141920   3.694   4.287  11.650  2.0720  0.3085 -1.1789
 6835TIP3    H241921   3.590   4.195  11.589  0.1222  1.4026  0.4476
 6836TIP3   OH241922   4.015   5.576  12.133 -0.2659  0.3774  0.2014
 6836TIP3    H141923   3.947   5.636  12.162  0.7370  1.3204  0.6435
 6836TIP3    H241924   4.081   5.633  12.092  1.1944 -0.2894  1.5874
 6837TIP3   OH241925   3.659   3.055   4.538 -0.2628  0.3288 -0.1479
 6837TIP3    H141926   3.620   2.993   4.477 -1.0835  1.3495 -0.6823
 6837TIP3    H241927   3.665   3.137   4.488 -0.1676  0.9509  0.8751
 6838TIP3   OH241928   2.150   1.312   6.220 -0.3065  0.3315  0.4624
 6838TIP3    H141929   2.098   1.251   6.167  0.4549 -0.2631  0.4002
 6838TIP3    H241930   2.127   1.291   6.310  1.3299 -1.3089  0.5255
 6839TIP3   OH241931   0.242   4.816   3.720  0.7055  0.4496 -0.4179
 6839TIP3    H141932   0.246   4.722   3.707 -0.3929  0.7285 -3.1668
 6839TIP3    H241933   0.155   4.832   3.757 -0.2012  0.6252 -2.5775
 6840TIP3   OH241934   6.390   1.364  15.555  0.2724  0.5293 -0.7015
 6840TIP3    H141935   6.327   1.432  15.532  0.4050  0.4038 -1.4486
 6840TIP3    H241936   6.361   1.287  15.506 -0.2623 -0.1514  0.6456
 6841TIP3   OH241937   4.214   2.052  13.472 -0.4867 -0.0469  0.2591
 6841TIP3    H141938   4.179   2.083  13.555 -1.1228 -1.6482  0.6170
 6841TIP3    H241939   4.195   2.122  13.410  0.5965  1.4456  1.5836
 6842TIP3   OH241940   3.372   0.993  14.726 -0.6575  0.5429  0.0418
 6842TIP3    H141941   3.386   0.933  14.798  0.4514 -0.1993 -0.7804
 6842TIP3    H241942   3.399   0.945  14.648  0.0840  2.0263 -0.6494
 6843TIP3   OH241943   6.724   2.575   5.888 -0.1439 -0.6226  0.2006
 6843TIP3    H141944   6.802   2.628   5.873 -1.7039  1.1792 -1.7936
 6843TIP3    H241945   6.676   2.623   5.955 -0.5697 -0.5948 -0.1255
 6844TIP3   OH241946   4.414   5.471   3.290 -0.2529 -0.1906  0.3666
 6844TIP3    H141947   4.424   5.562   3.317 -1.0125 -0.1639  0.5817
 6844TIP3    H241948   4.467   5.421   3.351 -0.5604  0.0303  0.8227
 6845TIP3   OH241949   4.703   3.873   0.559 -0.2162  0.8595  0.2068
 6845TIP3    H141950   4.720   3.787   0.597 -0.3222  0.1783 -1.2536
 6845TIP3    H241951   4.743   3.869   0.472 -1.8717  1.6180 -0.6045
 6846TIP3   OH241952   1.701   0.803  17.042  1.0134 -0.7851  0.5250
 6846TIP3    H141953   1.795   0.792  17.056  1.2945  1.8933  0.9837
 6846TIP3    H241954   1.692   0.893  17.009 -1.2339 -1.5812 -1.1178
 6847TIP3   OH241955   5.809   2.615  14.696 -0.4031  0.3054 -0.0695
 6847TIP3    H141956   5.827   2.709  14.702  0.8774  0.0766 -0.3067
 6847TIP3    H241957   5.726   2.610  14.649  0.1719  1.2799 -1.2201
 6848TIP3   OH241958   0.150   6.084  14.182 -0.2999  0.0475 -0.4231
 6848TIP3    H141959   0.189   6.165  14.151 -1.9813  0.7147 -0.8304
 6848TIP3    H241960   0.060   6.107  14.204 -0.3703 -1.3781  0.8727
 6849TIP3   OH241961   3.204   6.529   2.869  0.0304  0.0999  0.4089
 6849TIP3    H141962   3.278   6.501   2.816 -1.1416 -0.0950 -1.1299
 6849TIP3    H241963   3.152   6.450   2.883  0.3627  0.1223  1.9484
 6850TIP3   OH241964   2.327   5.370   2.725 -0.0753  0.0978 -0.0799
 6850TIP3    H141965   2.302   5.293   2.777 -2.1330  0.0937 -1.0080
 6850TIP3    H241966   2.402   5.341   2.673 -0.8730 -1.3429 -0.4725
 6851TIP3   OH241967   4.110   6.190  14.030  0.2392  0.6013 -0.9317
 6851TIP3    H141968   4.055   6.267  14.011 -2.5547 -1.1714 -0.3783
 6851TIP3    H241969   4.181   6.224  14.084 -2.5370  2.3424  1.8035
 6852TIP3   OH241970   2.418   1.542   5.861 -0.1291  0.6514  0.0077
 6852TIP3    H141971   2.384   1.549   5.771 -0.7139 -0.7253  0.1059
 6852TIP3    H241972   2.414   1.631   5.895  0.1309  1.2060 -1.3414
 6853TIP3   OH241973   5.275   4.778  15.673 -0.1696  0.1055 -0.0361
 6853TIP3    H141974   5.184   4.748  15.679 -0.2147  0.2884  0.1937
 6853TIP3    H241975   5.273   4.849  15.609  0.1320 -1.1348 -1.4702
 6854TIP3   OH241976   2.718   4.184   1.826  0.2894  0.4908 -0.1865
 6854TIP3    H141977   2.684   4.154   1.741 -0.3106  0.5884  0.0141
 6854TIP3    H241978   2.686   4.119   1.888  1.4072 -0.0224 -0.1440
 6855TIP3   OH241979   6.440   2.808   5.574  0.1022 -0.7269  0.1778
 6855TIP3    H141980   6.411   2.718   5.587  1.0308 -0.8475  1.4590
 6855TIP3    H241981   6.464   2.838   5.661  2.5195 -0.1751 -0.6608
 6856TIP3   OH241982   5.499   6.562   1.715 -1.6716  0.5318  0.2617
 6856TIP3    H141983   5.406   6.575   1.695 -2.0588  1.8624  2.6301
 6856TIP3    H241984   5.506   6.584   1.808  0.7206 -1.1900  0.5297
 6857TIP3   OH241985   4.130   1.176   4.685  0.5069  0.2517 -0.0241
 6857TIP3    H141986   4.201   1.152   4.626 -0.4142  0.8213 -1.3839
 6857TIP3    H241987   4.060   1.208   4.627 -0.0856  1.6337  1.4239
 6858TIP3   OH241988   3.534   4.792  11.033 -0.0269  0.2920 -0.1805
 6858TIP3    H141989   3.453   4.820  10.990 -1.0676  0.2384  1.6926
 6858TIP3    H241990   3.603   4.821  10.974 -1.3897  0.8205 -1.5570
 6859TIP3   OH241991   4.874   3.043  12.919  0.1167 -0.4857  0.6628
 6859TIP3    H141992   4.793   2.993  12.929 -0.5064  0.4443  0.3307
 6859TIP3    H241993   4.888   3.083  13.005 -0.4188  0.3129  0.3781
 6860TIP3   OH241994   5.317   2.893   4.884 -0.3245  0.1382 -0.0439
 6860TIP3    H141995   5.268   2.826   4.930  2.3380 -1.2225  0.9050
 6860TIP3    H241996   5.379   2.844   4.829  0.3435  1.7944 -0.8133
 6861TIP3   OH241997   0.541   5.669   3.852  0.1142  0.0050 -1.3528
 6861TIP3    H141998   0.546   5.579   3.887 -0.2541  0.2749 -0.5841
 6861TIP3    H241999   0.623   5.710   3.882 -0.7534  0.6036  0.2757
 6862TIP3   OH242000   2.101   1.702   4.471  0.0987  0.2356  0.0753
 6862TIP3    H142001   2.178   1.757   4.488  0.5927 -0.4145 -0.0751
 6862TIP3    H242002   2.122   1.656   4.389 -0.9152  0.9050 -0.5718
 6863TIP3   OH242003   3.258   5.567   6.240 -0.6771 -0.1021 -0.2388
 6863TIP3    H142004   3.174   5.557   6.195 -1.7078  2.3358  1.0297
 6863TIP3    H242005   3.242   5.535   6.329 -0.8077  1.9677  0.5201
 6864TIP3   OH242006   3.507   6.780   1.457  0.7497 -0.6056 -0.3380
 6864TIP3    H142007   3.467   6.851   1.407 -1.5847 -0.9065  1.0421
 6864TIP3    H242008   3.507   6.706   1.397  0.8346 -0.1276 -0.9320
 6865TIP3   OH242009   4.138   3.984  13.126 -0.5392  0.4203  0.3912
 6865TIP3    H142010   4.200   3.986  13.199 -0.4223  0.6784  0.2876
 6865TIP3    H242011   4.109   3.893  13.121  0.0858  0.2277  0.2236
 6866TIP3   OH242012   2.831   2.904  16.250 -0.1699 -0.2499  0.9512
 6866TIP3    H142013   2.845   2.856  16.168  0.4837  2.2268 -0.4625
 6866TIP3    H242014   2.737   2.922  16.252 -0.0351  0.5730  0.2056
 6867TIP3   OH242015   3.871   1.972  11.042  0.2876 -0.2067 -0.4612
 6867TIP3    H142016   3.831   1.887  11.022  1.3180 -0.9063  0.3649
 6867TIP3    H242017   3.875   2.017  10.958 -1.1456 -0.5940 -0.7474
 6868TIP3   OH242018   4.933   4.423  12.603  0.0017  0.5245 -0.0380
 6868TIP3    H142019   4.923   4.333  12.572 -2.5183  0.7483  0.0430
 6868TIP3    H242020   5.014   4.422  12.654 -0.8046 -2.0755  1.2665
 6869TIP3   OH242021   1.770   4.837   4.546 -0.3059  0.0581  0.1587
 6869TIP3    H142022   1.684   4.870   4.524 -0.5921  0.0325  1.2068
 6869TIP3    H242023   1.821   4.914   4.569  0.6562  0.3201 -2.7327
 6870TIP3   OH242024   6.463   2.017   4.576 -0.3230 -0.1243  0.0292
 6870TIP3    H142025   6.486   1.993   4.486 -0.0561 -0.7386  0.2617
 6870TIP3    H242026   6.541   1.997   4.627 -1.5316 -2.8062  0.9291
 6871TIP3   OH242027   4.523   5.669  16.723  0.4680 -0.2486 -0.0808
 6871TIP3    H142028   4.611   5.708  16.716  0.5381 -0.0748  1.6870
 6871TIP3    H242029   4.464   5.744  16.731  0.3678 -0.4322  0.8957
 6872TIP3   OH242030   5.087   0.215   2.369  0.0705 -0.2454 -0.0881
 6872TIP3    H142031   5.043   0.216   2.454  0.2281 -0.9298  0.0026
 6872TIP3    H242032   5.090   0.307   2.343 -2.4184 -0.2691 -0.6187
 6873TIP3   OH242033   5.648   0.889  14.672 -0.3480  0.3182  0.2742
 6873TIP3    H142034   5.628   0.853  14.758  2.0329  0.8750  1.0859
 6873TIP3    H242035   5.595   0.837  14.612 -0.7205 -1.2440  1.8991
 6874TIP3   OH242036   4.787   1.698   3.847  0.6304  0.0044 -0.3435
 6874TIP3    H142037   4.750   1.738   3.768  0.1161 -1.3347 -0.7969
 6874TIP3    H242038   4.719   1.710   3.914  0.0260 -1.0346 -0.7576
 6875TIP3   OH242039   2.572   1.492   4.237  0.2435 -0.2086 -0.1293
 6875TIP3    H142040   2.564   1.401   4.211  0.6290 -0.5049  0.7645
 6875TIP3    H242041   2.642   1.527   4.182  1.1558 -0.8676  0.6095
 6876TIP3   OH242042   6.657   1.335  13.195  0.1668  0.1076  0.2546
 6876TIP3    H142043   6.679   1.419  13.154  2.4672 -0.1963  0.7582
 6876TIP3    H242044   6.632   1.278  13.123 -0.0755  0.8476 -0.2438
 6877TIP3   OH242045   5.930   5.574  16.510 -0.2196  0.3643  0.3529
 6877TIP3    H142046   5.962   5.647  16.457 -0.1907 -0.7674 -1.2469
 6877TIP3    H242047   6.005   5.547  16.562  0.3494  0.1848 -0.5477
 6878TIP3   OH242048   0.917   1.250   6.337 -0.4671 -0.0027  0.0323
 6878TIP3    H142049   0.836   1.239   6.287 -0.9140 -0.2415  0.8024
 6878TIP3    H242050   0.897   1.320   6.400  0.6242  1.4861 -1.2238
 6879TIP3   OH242051   0.386   2.535  11.197 -0.0501  0.0766 -0.4971
 6879TIP3    H142052   0.372   2.621  11.157 -0.7669 -0.2200 -0.8947
 6879TIP3    H242053   0.319   2.479  11.158 -2.0781  0.2264  2.5705
 6880TIP3   OH242054   6.186   4.837  13.716  0.2143 -0.1107 -0.5063
 6880TIP3    H142055   6.167   4.880  13.800  0.5925 -0.5493 -0.1937
 6880TIP3    H242056   6.146   4.893  13.651  0.4506  0.5602 -0.0751
 6881TIP3   OH242057   5.151   0.124  13.406 -1.0160  0.3983 -0.3107
 6881TIP3    H142058   5.213   0.181  13.360  0.4948  0.1437  1.3590
 6881TIP3    H242059   5.173   0.036  13.376 -0.7804  0.3383  0.0384
 6882TIP3   OH242060   5.560   6.562   4.046 -0.3551  0.2964  0.1532
 6882TIP3    H142061   5.507   6.601   3.977 -0.6029 -0.0523  0.1423
 6882TIP3    H242062   5.499   6.551   4.119 -0.1361  0.5003  0.3660
 6883TIP3   OH242063   1.689   4.399   5.127  0.3088 -0.1648 -0.3265
 6883TIP3    H142064   1.599   4.374   5.106  0.7672 -2.3151  0.1651
 6883TIP3    H242065   1.741   4.364   5.055  0.7285  1.4311 -0.8231
 6884TIP3   OH242066   4.917   1.838   2.606 -0.2121  0.1127  0.5203
 6884TIP3    H142067   4.978   1.838   2.680 -1.9755 -0.8987  1.9953
 6884TIP3    H242068   4.854   1.907   2.627 -1.3448 -0.9060  0.4650
 6885TIP3   OH242069   5.824   0.263  12.234 -0.1195 -0.2616  0.4949
 6885TIP3    H142070   5.898   0.258  12.174 -0.6500 -1.7889 -0.0399
 6885TIP3    H242071   5.757   0.310  12.184  0.2320  0.4954  0.7264
 6886TIP3   OH242072   3.477   1.816  13.876  0.3115 -0.5378  0.1211
 6886TIP3    H142073   3.529   1.751  13.829 -0.2062 -0.3180 -0.7751
 6886TIP3    H242074   3.532   1.894  13.877  0.5540 -0.7139  0.3741
 6887TIP3   OH242075   2.334   0.551   6.632 -0.2874 -0.0605 -0.0723
 6887TIP3    H142076   2.291   0.467   6.616  0.4051 -0.5480  0.5559
 6887TIP3    H242077   2.332   0.561   6.727  1.4373 -0.3520  0.0239
 6888TIP3   OH242078   0.208   2.113   3.628 -0.1789 -0.6873 -0.2330
 6888TIP3    H142079   0.132   2.093   3.573 -1.4921  0.8349  0.9852
 6888TIP3    H242080   0.257   2.031   3.631 -1.8605 -1.7441 -0.8953
 6889TIP3   OH242081   2.133   6.041  12.205  0.0507  0.5138 -0.4847
 6889TIP3    H142082   2.143   6.066  12.297  0.3535  0.2883 -0.4557
 6889TIP3    H242083   2.221   6.047  12.169  0.3134 -1.4234 -0.2324
 6890TIP3   OH242084   0.480   0.048   5.288 -0.0565 -0.9172  0.2698
 6890TIP3    H142085   0.548   0.008   5.343  0.8145  0.2237  0.0346
 6890TIP3    H242086   0.436  -0.027   5.247  1.6332 -1.6660 -0.2529
 6891TIP3   OH242087   1.135   5.776  12.889 -0.4605 -0.0699 -0.3220
 6891TIP3    H142088   1.052   5.820  12.872  0.4614  0.4878 -3.8201
 6891TIP3    H242089   1.114   5.707  12.951 -3.7573 -0.6071 -1.9525
 6892TIP3   OH242090   6.265   3.428   0.859 -0.4937 -0.8010  0.5517
 6892TIP3    H142091   6.197   3.411   0.923  0.4506 -0.2952  1.6973
 6892TIP3    H242092   6.288   3.520   0.872 -1.0937 -0.3658 -1.2837
 6893TIP3   OH242093   3.548   3.740   3.356 -1.0364  0.2095 -0.3692
 6893TIP3    H142094   3.525   3.678   3.425 -0.9152  1.3899  0.7437
 6893TIP3    H242095   3.487   3.812   3.368 -1.7419 -0.0664 -2.1996
 6894TIP3   OH242096   1.805   0.056  13.267 -0.7034  0.1416  0.0872
 6894TIP3    H142097   1.810   0.149  13.289 -1.3280  0.0861  0.4511
 6894TIP3    H242098   1.789   0.012  13.350 -0.8699 -0.2586 -0.1559
 6895TIP3   OH242099   1.425   2.670  17.063 -0.2180  0.4353  0.5096
 6895TIP3    H142100   1.510   2.712  17.049  1.0362 -2.3335 -0.3638
 6895TIP3    H242101   1.393   2.650  16.975  0.2091 -2.3445  0.9462
 6896TIP3   OH242102   1.990   1.943  16.158  0.2559 -0.4748 -0.6024
 6896TIP3    H142103   2.079   1.951  16.124  0.4200 -0.2824 -0.1323
 6896TIP3    H242104   1.999   1.885  16.234 -0.1057 -0.9038 -0.8896
 6897TIP3   OH242105   4.112   5.337   4.237  0.2691  0.0494 -0.1931
 6897TIP3    H142106   4.086   5.306   4.324  1.0542  1.0580  0.4185
 6897TIP3    H242107   4.207   5.325   4.235  0.2352 -0.1313 -0.9878
 6898TIP3   OH242108   6.193   6.758   4.899 -0.1010 -0.6622  0.1121
 6898TIP3    H142109   6.258   6.690   4.914 -0.9891 -1.6363 -0.3804
 6898TIP3    H242110   6.116   6.728   4.948  0.2702  1.2167  1.9480
 6899TIP3   OH242111   6.098   6.494   0.730 -0.4505 -0.1473 -0.2056
 6899TIP3    H142112   6.033   6.427   0.708 -1.4628  1.4876 -2.5436
 6899TIP3    H242113   6.050   6.577   0.721  1.0781  0.9472  1.4348
 6900TIP3   OH242114   6.512   0.113   1.109 -0.7003 -0.1331 -0.2177
 6900TIP3    H142115   6.540   0.086   1.021  1.1932  0.1070  0.3004
 6900TIP3    H242116   6.545   0.045   1.167 -0.2287  0.7202  0.5292
 6901TIP3   OH242117   6.308   1.977   3.513 -0.1267  0.0030  0.1399
 6901TIP3    H142118   6.238   2.033   3.546  0.3545  1.6149 -1.5266
 6901TIP3    H242119   6.266   1.923   3.445  0.0237  0.2822 -0.1765
 6902TIP3   OH242120   2.066   0.160   1.843 -0.0842 -0.3574 -0.0334
 6902TIP3    H142121   2.095   0.240   1.887  0.2236 -1.3625  1.6119
 6902TIP3    H242122   2.089   0.090   1.903 -2.2738 -1.5283 -0.5100
 6903TIP3   OH242123   0.094   3.566   4.087  0.2323 -0.3486  0.3102
 6903TIP3    H142124   0.125   3.583   3.998 -1.2656  0.6579 -0.0333
 6903TIP3    H242125   0.174   3.550   4.137  1.1645  0.1588 -0.9829
 6904TIP3   OH242126   3.910   0.712   5.896 -0.7901 -0.4474  0.4743
 6904TIP3    H142127   3.979   0.745   5.953 -0.8001 -0.7260  0.6493
 6904TIP3    H242128   3.954   0.697   5.812 -1.1803  1.7480 -0.1553
 6905TIP3   OH242129   2.710   1.515   1.229  0.7670 -0.4216  0.0792
 6905TIP3    H142130   2.761   1.458   1.287 -0.3369 -0.1653  1.3148
 6905TIP3    H242131   2.752   1.601   1.237 -0.2399 -0.0452  1.6340
 6906TIP3   OH242132   3.842   3.663   4.988 -0.2823 -0.0662 -0.0657
 6906TIP3    H142133   3.864   3.570   4.990 -1.3777 -0.3323  0.0104
 6906TIP3    H242134   3.765   3.669   4.931 -1.4358  0.5042  1.4917
 6907TIP3   OH242135   0.293   6.146  13.422  0.1838 -0.1854  0.0531
 6907TIP3    H142136   0.259   6.142  13.512 -0.8618 -2.2503 -0.4016
 6907TIP3    H242137   0.327   6.235  13.414 -3.4423  1.4184  1.1571
 6908TIP3   OH242138   6.168   3.972   4.299  0.6567  0.2567  0.6035
 6908TIP3    H142139   6.257   4.002   4.279  0.8818  0.1180  1.4004
 6908TIP3    H242140   6.142   4.022   4.376  0.9257 -1.3902  1.7808
 6909TIP3   OH242141   0.925   6.174   4.460 -0.9785  0.3133 -0.1349
 6909TIP3    H142142   0.918   6.110   4.390  0.1761  0.6482 -0.5662
 6909TIP3    H242143   0.994   6.233   4.432 -0.5524  0.4959  1.2490
 6910TIP3   OH242144   2.617   5.200  14.030 -0.3448  0.9331 -0.3415
 6910TIP3    H142145   2.591   5.152  14.109 -0.6620  1.9035  0.1467
 6910TIP3    H242146   2.561   5.277  14.029  0.7924  1.7710 -0.6290
 6911TIP3   OH242147   2.842   0.402  16.282 -0.1319  0.2367  0.0847
 6911TIP3    H142148   2.859   0.442  16.367 -2.3323  0.1465  0.6191
 6911TIP3    H242149   2.824   0.476  16.224 -0.3929  0.2236  0.1452
 6912TIP3   OH242150   0.715   4.893   6.214  0.0476 -0.5276 -0.1869
 6912TIP3    H142151   0.752   4.850   6.291 -1.3224  1.5085  1.7101
 6912TIP3    H242152   0.790   4.911   6.157  1.1542 -1.6421  0.8948
 6913TIP3   OH242153   2.514   1.713   0.252 -0.4526  0.1774 -0.0900
 6913TIP3    H142154   2.457   1.654   0.301 -0.9526  0.7096 -0.0146
 6913TIP3    H242155   2.564   1.656   0.194  1.0609 -0.5914  1.9244
 6914TIP3   OH242156   6.285   0.685  16.664  0.3962  0.3230  0.5837
 6914TIP3    H142157   6.368   0.655  16.628  1.2091  0.1239  2.5250
 6914TIP3    H242158   6.227   0.694  16.589  1.9803 -0.1894 -0.7171
 6915TIP3   OH242159   5.422   2.639  11.122  0.1986  0.1883 -0.3488
 6915TIP3    H142160   5.344   2.681  11.086 -1.9627 -1.0102  2.6560
 6915TIP3    H242161   5.482   2.711  11.142 -1.1753  1.3626 -0.4129
 6916TIP3   OH242162   6.736   3.185   5.173  0.4792  0.8846 -0.3465
 6916TIP3    H142163   6.702   3.096   5.181 -1.2356  1.5033 -0.6333
 6916TIP3    H242164   6.789   3.183   5.094  0.2715  0.1735 -0.4710
 6917TIP3   OH242165   3.163   1.887   3.860  0.0794  0.4193  0.3767
 6917TIP3    H142166   3.091   1.824   3.861  0.7046 -0.2982  0.7499
 6917TIP3    H242167   3.130   1.961   3.911  0.0460 -0.4102  1.5836
 6918TIP3   OH242168   4.667   3.046  16.691 -0.0413  0.2462 -0.0043
 6918TIP3    H142169   4.665   3.124  16.747  1.7293  0.4689 -0.2240
 6918TIP3    H242170   4.697   3.078  16.606  2.9783 -1.0283  0.5364
 6919TIP3   OH242171   1.115   4.689  15.235  0.5888 -0.0471  0.4436
 6919TIP3    H142172   1.096   4.600  15.204  1.4856 -0.2163  0.3555
 6919TIP3    H242173   1.188   4.677  15.296  0.0398  0.5058  1.2150
 6920TIP3   OH242174   2.362   6.371   2.910 -0.3991  0.2731 -0.0207
 6920TIP3    H142175   2.414   6.445   2.938 -1.1132  2.0656 -3.2028
 6920TIP3    H242176   2.406   6.339   2.831  0.4998 -3.4186  1.8371
 6921TIP3   OH242177   2.894   4.668   0.453  0.1897  0.9207  0.0369
 6921TIP3    H142178   2.886   4.596   0.390  0.7055 -0.8691  1.9820
 6921TIP3    H242179   2.886   4.627   0.539  0.7758  3.1493  1.2018
 6922TIP3   OH242180   5.539   5.674   3.109 -0.0238 -0.4645 -0.6582
 6922TIP3    H142181   5.474   5.637   3.169  0.6964 -0.9385 -0.1716
 6922TIP3    H242182   5.574   5.598   3.062  1.6806 -0.4514  0.5596
 6923TIP3   OH242183   1.897   1.378   2.058  0.1216  0.1039  0.1448
 6923TIP3    H142184   1.801   1.383   2.063  0.1762  1.7583 -0.3312
 6923TIP3    H242185   1.925   1.467   2.039  1.7254 -0.5079 -0.4624
 6924TIP3   OH242186   5.754   5.933  11.058 -0.0704 -0.7553  0.6470
 6924TIP3    H142187   5.693   5.859  11.051 -0.2093 -0.6829  1.0176
 6924TIP3    H242188   5.795   5.940  10.973  1.3572 -2.4716  1.1866
 6925TIP3   OH242189   3.457   4.191   3.206 -0.1173  0.3761  0.3805
 6925TIP3    H142190   3.408   4.274   3.210 -0.9236 -0.1227  0.9698
 6925TIP3    H242191   3.512   4.193   3.284  0.4850  0.7293 -0.0449
 6926TIP3   OH242192   5.948   4.925   4.921  0.2099 -0.1599  0.1012
 6926TIP3    H142193   6.043   4.916   4.922  0.3715  0.9814 -2.4505
 6926TIP3    H242194   5.916   4.837   4.939  1.7529 -1.0343 -1.2968
 6927TIP3   OH242195   0.021   1.936   4.112  0.6075  0.3509  0.1216
 6927TIP3    H142196  -0.038   1.864   4.091  0.2534  0.3111  1.2530
 6927TIP3    H242197   0.045   1.972   4.026 -2.3716  1.4624 -0.2898
 6928TIP3   OH242198   1.266   2.305   2.822 -0.2546  0.1499 -0.3739
 6928TIP3    H142199   1.226   2.224   2.854  0.9265 -0.6555 -0.8749
 6928TIP3    H242200   1.283   2.288   2.729 -1.0829  1.4186 -0.7664
 6929TIP3   OH242201   0.339   6.601   5.703 -0.1007  0.5176  0.4017
 6929TIP3    H142202   0.417   6.588   5.758  0.4985 -1.6931 -0.9409
 6929TIP3    H242203   0.356   6.682   5.656  1.2436  0.2347  0.3861
 6930TIP3   OH242204   3.084   5.916  14.445  0.2055  0.6350 -0.2347
 6930TIP3    H142205   3.095   5.987  14.382  1.2019 -0.0366 -0.8209
 6930TIP3    H242206   3.079   5.961  14.530  1.4151  1.3673 -0.5440
 6931TIP3   OH242207   1.869   2.757   5.033  0.0743 -0.0244  0.8168
 6931TIP3    H142208   1.953   2.799   5.015 -0.4634  0.1946 -1.3998
 6931TIP3    H242209   1.877   2.669   4.995 -0.0999 -0.6112  2.1269
 6932TIP3   OH242210   1.832   0.787  10.903 -0.2755  0.0114 -0.4411
 6932TIP3    H142211   1.742   0.817  10.913 -0.1788  0.4939 -0.9633
 6932TIP3    H242212   1.863   0.831  10.824  0.1119 -0.9093 -0.8036
 6933TIP3   OH242213   3.665   2.675  16.776 -0.0923  0.3671 -0.3197
 6933TIP3    H142214   3.574   2.690  16.752 -0.4093 -0.7072  0.1951
 6933TIP3    H242215   3.709   2.758  16.755 -1.3921  1.2745  0.4766
 6934TIP3   OH242216   4.998   6.562  14.250 -0.2018  0.0361  0.8892
 6934TIP3    H142217   4.970   6.587  14.339 -0.4962 -1.2245  1.1602
 6934TIP3    H242218   4.917   6.537  14.206  0.1221 -0.6957  0.7059
 6935TIP3   OH242219   6.178   1.348   0.070 -0.3436  0.0765 -0.0329
 6935TIP3    H142220   6.156   1.317  -0.018 -0.8438 -1.0237  0.4677
 6935TIP3    H242221   6.261   1.394   0.059  0.0188 -0.7733 -0.9467
 6936TIP3   OH242222   1.698   6.100   0.448 -0.4290 -0.0211 -0.1078
 6936TIP3    H142223   1.739   6.023   0.409  0.4382 -0.3061  1.3121
 6936TIP3    H242224   1.684   6.160   0.375  2.7559  0.1742 -0.6266
 6937TIP3   OH242225   4.275   2.503   1.230 -0.2965 -0.4176  0.4337
 6937TIP3    H142226   4.307   2.430   1.177 -0.3316 -0.2829  0.2303
 6937TIP3    H242227   4.351   2.530   1.282 -0.8883 -2.2220  2.3530
 6938TIP3   OH242228   3.627   0.842  15.641  0.1387 -0.3742 -0.1860
 6938TIP3    H142229   3.617   0.919  15.585 -2.6541 -0.3909  0.1987
 6938TIP3    H242230   3.632   0.878  15.730  0.2107 -0.5643 -0.1126
 6939TIP3   OH242231   4.854   4.846  13.112 -0.3076  0.2871 -0.0518
 6939TIP3    H142232   4.784   4.805  13.163  1.9920 -0.8434  2.2747
 6939TIP3    H242233   4.827   4.833  13.021 -2.5383 -1.1856  0.7645
 6940TIP3   OH242234   3.921   2.784  12.178 -0.4790 -0.1176  0.4275
 6940TIP3    H142235   3.927   2.830  12.262  0.1371 -0.8981  0.8198
 6940TIP3    H242236   3.844   2.727  12.188 -1.5185  1.1620 -0.2283
 6941TIP3   OH242237   3.121   3.327  14.180  0.1806  0.0532  0.1179
 6941TIP3    H142238   3.126   3.269  14.256 -1.0600  1.5091  1.3455
 6941TIP3    H242239   3.180   3.400  14.201  0.2356  0.2026 -0.5352
 6942TIP3   OH242240   3.890   5.581  13.922  0.4245  0.4237 -0.1726
 6942TIP3    H142241   3.945   5.505  13.941  0.6631  0.9157  1.1454
 6942TIP3    H242242   3.939   5.656  13.956 -0.6326  0.9764  0.1678
 6943TIP3   OH242243   0.446   0.372   0.061 -0.4264  0.8347  0.4489
 6943TIP3    H142244   0.495   0.431   0.119 -3.2358  2.9112  0.8172
 6943TIP3    H242245   0.408   0.307   0.120  0.5343  0.1864  0.3590
 6944TIP3   OH242246   3.890   3.436   5.709 -1.0012 -0.9397  0.5548
 6944TIP3    H142247   3.812   3.477   5.746 -1.4279 -0.1872 -1.1466
 6944TIP3    H242248   3.861   3.347   5.686 -1.7604 -0.2123 -1.3647
 6945TIP3   OH242249   2.968   0.965  16.166 -0.1131  0.3748 -0.0371
 6945TIP3    H142250   2.962   0.895  16.100 -2.3483 -0.2011  0.7406
 6945TIP3    H242251   3.039   1.021  16.134  1.1753 -1.7774 -1.1132
 6946TIP3   OH242252   4.848   2.576   5.417  0.0394 -0.1217 -0.1365
 6946TIP3    H142253   4.852   2.619   5.332  0.9920  0.4948  0.2160
 6946TIP3    H242254   4.930   2.600   5.460  0.2391 -1.6501  0.3659
 6947TIP3   OH242255   5.605   6.634  16.997 -0.0923 -0.4040  0.0685
 6947TIP3    H142256   5.599   6.589  17.082  0.0945  1.9929  1.3975
 6947TIP3    H242257   5.516   6.628  16.961 -0.7751  0.5911  1.5272
 6948TIP3   OH242258   2.191   2.864   5.798 -0.1385  0.2055  0.7352
 6948TIP3    H142259   2.107   2.866   5.845 -0.1713  0.1260  0.6813
 6948TIP3    H242260   2.183   2.788   5.741  0.3293 -0.3563  1.4065
 6949TIP3   OH242261   5.727   4.084  12.654 -0.2426  0.5198  0.1414
 6949TIP3    H142262   5.779   4.162  12.637  0.2536  0.6114  2.0354
 6949TIP3    H242263   5.784   4.011  12.631 -0.1598  0.6762 -0.1497
 6950TIP3   OH242264   3.955   5.011   6.455  0.0507  0.2341  0.1588
 6950TIP3    H142265   3.918   5.097   6.436  0.8730  0.2306 -1.6214
 6950TIP3    H242266   4.050   5.024   6.449  0.1821 -0.8108 -0.2424
 6951TIP3   OH242267   0.976   1.612   3.670  0.1414 -0.0809 -0.6997
 6951TIP3    H142268   1.061   1.588   3.633 -0.5027  0.3156 -2.4988
 6951TIP3    H242269   0.937   1.670   3.604 -1.6744 -0.5678 -0.0727
 6952TIP3   OH242270   5.132   1.426  13.926  0.2845  0.2718  0.4853
 6952TIP3    H142271   5.079   1.357  13.967  0.4727  0.7989  1.6161
 6952TIP3    H242272   5.072   1.469  13.865  0.5170 -1.7430 -1.2240
 6953TIP3   OH242273   6.719   0.641  10.650 -0.1849 -0.6274  0.8672
 6953TIP3    H142274   6.739   0.574  10.585 -1.2263 -0.5117  0.4151
 6953TIP3    H242275   6.696   0.718  10.599  0.9989  0.0831  1.3908
 6954TIP3   OH242276   5.460   3.181   2.139 -0.2158  0.3996 -0.1423
 6954TIP3    H142277   5.392   3.224   2.086 -0.4291 -1.2338 -1.2385
 6954TIP3    H242278   5.471   3.095   2.098  1.6650  0.1918  0.7646
 6955TIP3   OH242279   6.597   2.000  16.883  0.2631  0.2107  0.4378
 6955TIP3    H142280   6.559   2.072  16.834 -1.0113 -1.0509 -0.4685
 6955TIP3    H242281   6.678   1.978  16.836 -0.6701 -0.6252 -0.8020
 6956TIP3   OH242282   3.252   4.804   2.505  0.2537  0.0911  0.1642
 6956TIP3    H142283   3.322   4.848   2.456 -1.3857  0.6270 -1.7927
 6956TIP3    H242284   3.209   4.748   2.440 -2.6424  1.5886  0.6978
 6957TIP3   OH242285   2.118   4.426  13.079 -0.4341  0.2311  0.2735
 6957TIP3    H142286   2.066   4.490  13.030 -0.8079  0.6503  1.2031
 6957TIP3    H242287   2.075   4.342  13.061 -1.5853  0.6071  1.2289
 6958TIP3   OH242288   6.767   1.807  14.637 -0.2414 -0.1489  0.3722
 6958TIP3    H142289   6.810   1.891  14.624  0.3408 -0.2779  1.4017
 6958TIP3    H242290   6.744   1.806  14.730 -0.7494 -0.8950  0.2463
 6959TIP3   OH242291   6.022   0.222   3.370 -0.1340 -0.0813  0.1183
 6959TIP3    H142292   6.077   0.297   3.394 -0.8805 -0.1467  2.1484
 6959TIP3    H242293   5.933   0.257   3.372 -0.3360 -0.5380 -0.9005
 6960TIP3   OH242294   1.454   0.976  13.266  0.2538 -0.0738  0.4232
 6960TIP3    H142295   1.446   0.883  13.283  2.0560 -0.0982  1.3189
 6960TIP3    H242296   1.510   1.009  13.337  0.1335  1.5652 -0.2052
 6961TIP3   OH242297   0.950   2.373   4.232 -0.5581  0.4509 -0.3282
 6961TIP3    H142298   0.955   2.438   4.302 -0.2134  2.8884 -2.5575
 6961TIP3    H242299   1.034   2.379   4.186 -0.4619 -1.6859 -0.5115
 6962TIP3   OH242300   3.977   1.904  15.927 -0.1506  0.0526  0.2702
 6962TIP3    H142301   4.008   1.830  15.875  0.7999  0.4203  0.3076
 6962TIP3    H242302   3.935   1.863  16.003 -1.2509 -0.4729 -0.6113
 6963TIP3   OH242303   2.431   4.212   4.095  0.3792  0.0433  0.3148
 6963TIP3    H142304   2.474   4.297   4.108  3.2863 -1.1638 -0.9289
 6963TIP3    H242305   2.438   4.195   4.001 -4.3927  0.5005 -0.2434
 6964TIP3   OH242306   2.407   2.652   0.960 -0.3475 -0.1743 -0.1555
 6964TIP3    H142307   2.382   2.737   0.994  0.2862  0.4521 -1.2326
 6964TIP3    H242308   2.469   2.618   1.025 -1.1197 -0.1194  0.6176
 6965TIP3   OH242309   1.864   0.129   3.680  0.0751 -0.1456 -0.1307
 6965TIP3    H142310   1.954   0.141   3.710 -0.2061 -1.6002  1.3429
 6965TIP3    H242311   1.832   0.053   3.729 -1.3649 -0.7677 -1.9774
 6966TIP3   OH242312   1.431   6.006  10.801 -0.4466 -0.5654  0.7754
 6966TIP3    H142313   1.395   6.078  10.853 -0.2130  0.2965 -0.2401
 6966TIP3    H242314   1.436   6.041  10.712  0.6561 -1.4768  0.4687
 6967TIP3   OH242315   0.595   0.152   6.133  0.0536 -0.0373 -0.2313
 6967TIP3    H142316   0.628   0.063   6.129  0.4827 -0.0213  2.4125
 6967TIP3    H242317   0.673   0.207   6.122  0.2220 -0.0071  1.0242
 6968TIP3   OH242318   2.125   6.329  14.127  0.6865 -0.5579 -0.4014
 6968TIP3    H142319   2.132   6.249  14.074  0.4294  0.2035 -1.6006
 6968TIP3    H242320   2.153   6.302  14.215 -0.6192 -2.2888 -0.4767
 6969TIP3   OH242321   6.640   0.935  12.154  0.3954  0.3088 -0.9524
 6969TIP3    H142322   6.562   0.976  12.117 -0.2365  0.2421  0.2858
 6969TIP3    H242323   6.664   0.990  12.229 -1.5490 -2.4858  1.8870
 6970TIP3   OH242324   4.769   1.174   4.622  0.0064  0.3425  0.1619
 6970TIP3    H142325   4.749   1.176   4.715  1.1895  1.0054  0.4129
 6970TIP3    H242326   4.748   1.085   4.595  0.4349 -0.0935  1.2432
 6971TIP3   OH242327   0.645   3.111  14.876  0.3254 -0.6509  0.2555
 6971TIP3    H142328   0.612   3.052  14.945 -0.1754 -0.4538  0.1846
 6971TIP3    H242329   0.739   3.095  14.875  0.4436 -0.1005  1.5153
 6972TIP3   OH242330   5.050   5.528   5.538 -0.5532 -0.4214 -0.4085
 6972TIP3    H142331   5.023   5.491   5.454  1.0618 -0.7646 -0.8037
 6972TIP3    H242332   5.143   5.506   5.544  0.0564  2.1558  0.1155
 6973TIP3   OH242333   0.594   6.182  12.831 -0.1372 -0.1705  0.2035
 6973TIP3    H142334   0.519   6.131  12.800 -0.8838  0.2974  1.2293
 6973TIP3    H242335   0.570   6.273  12.814  0.9117 -0.1022 -1.0077
 6974TIP3   OH242336   1.325   5.044   2.504 -0.1086 -0.3029  0.1031
 6974TIP3    H142337   1.351   5.048   2.412 -1.2161 -0.4229 -0.2244
 6974TIP3    H242338   1.232   5.067   2.504  0.4773  2.2459  1.4988
 6975TIP3   OH242339   2.945   5.377   5.660  0.6194  0.0033  0.3437
 6975TIP3    H142340   3.019   5.438   5.659  1.8743 -1.4659  2.3364
 6975TIP3    H242341   2.973   5.306   5.717 -2.4848 -0.4072  1.4034
 6976TIP3   OH242342   4.401   2.661   1.829  0.0790  0.5713  0.2562
 6976TIP3    H142343   4.408   2.645   1.923  2.5567 -0.3783 -0.0336
 6976TIP3    H242344   4.307   2.670   1.812 -0.4590 -0.3060  2.6445
 6977TIP3   OH242345   5.279   3.797   3.579 -0.0102 -0.6928 -0.2615
 6977TIP3    H142346   5.353   3.776   3.522 -0.4320 -1.0169 -0.6897
 6977TIP3    H242347   5.233   3.714   3.590 -0.4686 -0.4363 -0.2223
 6978TIP3   OH242348   1.764   5.387  15.218 -1.0153  0.5271 -0.4782
 6978TIP3    H142349   1.725   5.474  15.215 -0.3097  0.8374 -0.7781
 6978TIP3    H242350   1.735   5.350  15.301 -0.7120  1.3402  0.0005
 6979TIP3   OH242351   0.711   3.951   3.165 -0.1209  0.0882 -0.2397
 6979TIP3    H142352   0.637   3.898   3.137  1.4069 -1.6658 -1.0475
 6979TIP3    H242353   0.788   3.898   3.145  1.3495  1.7078  0.9333
 6980TIP3   OH242354   6.168   5.861   5.530 -0.0583 -0.3767 -0.2961
 6980TIP3    H142355   6.183   5.769   5.506 -1.5449 -0.5916 -0.4748
 6980TIP3    H242356   6.086   5.884   5.485 -0.2941  0.6916  0.6645
 6981TIP3   OH242357   5.198   3.105  13.433 -0.4194  0.4558 -0.1757
 6981TIP3    H142358   5.191   3.017  13.397  1.5377  0.4686 -0.6551
 6981TIP3    H242359   5.258   3.096  13.507  0.3351  1.5125 -0.6572
 6982TIP3   OH242360   1.776   4.406  16.462 -0.3470 -0.0401  0.2101
 6982TIP3    H142361   1.860   4.362  16.474 -0.3251  0.2814  1.2713
 6982TIP3    H242362   1.792   4.467  16.390  0.3614  0.0922  0.4656
 6983TIP3   OH242363   4.882   1.260  12.102 -0.3409 -0.1354 -0.0964
 6983TIP3    H142364   4.801   1.236  12.146 -1.0452  0.3338 -1.1258
 6983TIP3    H242365   4.858   1.267  12.010  1.0221 -0.7056 -0.5099
 6984TIP3   OH242366   5.123   2.477  13.745 -0.6688 -0.1876  0.1868
 6984TIP3    H142367   5.185   2.518  13.806 -0.7732 -0.8599  0.7545
 6984TIP3    H242368   5.055   2.543  13.731  0.0258  0.4458 -0.2088
 6985TIP3   OH242369   4.604   6.654   5.089  0.2449  0.5084  0.2274
 6985TIP3    H142370   4.596   6.610   5.004 -0.5007  0.3487  0.3723
 6985TIP3    H242371   4.685   6.619   5.127 -0.4491 -0.9283  0.4412
 6986TIP3   OH242372   4.624   0.297   4.415  0.1040  0.1247  0.3695
 6986TIP3    H142373   4.674   0.233   4.465  0.4322  0.2399  0.1854
 6986TIP3    H242374   4.686   0.333   4.352 -0.2797  0.0552 -0.0570
 6987TIP3   OH242375   3.288   6.061   6.369  0.1742  0.1986 -0.6399
 6987TIP3    H142376   3.349   5.991   6.394  2.0622  2.0509  0.0708
 6987TIP3    H242377   3.203   6.030   6.399  1.3234 -0.8110  1.6763
 6988TIP3   OH242378   0.766   5.464   5.625 -0.0560 -0.1056 -0.1864
 6988TIP3    H142379   0.737   5.543   5.671 -0.2943  1.2612 -2.5657
 6988TIP3    H242380   0.814   5.414   5.690 -0.7170  1.5620  1.6302
 6989TIP3   OH242381   1.277   6.624   0.078  0.1064 -0.0124  0.0997
 6989TIP3    H142382   1.223   6.691   0.120  1.6437  0.9049  0.6525
 6989TIP3    H242383   1.344   6.674   0.031 -0.5903 -1.0801 -2.0788
 6990TIP3   OH242384   5.176   4.511  14.077  0.1016  0.1742 -0.3865
 6990TIP3    H142385   5.143   4.577  14.015  1.2400  0.0893 -1.0958
 6990TIP3    H242386   5.205   4.562  14.153 -0.2680  0.3788 -0.3830
 6991TIP3   OH242387   0.050   6.529   4.201  0.2677 -0.7001 -0.5733
 6991TIP3    H142388   0.017   6.573   4.122 -0.2543 -1.3800 -0.7329
 6991TIP3    H242389  -0.029   6.499   4.246  0.5037  0.7319  0.8152
 6992TIP3   OH242390   1.229   1.932  15.370  0.3530 -0.5416  0.1413
 6992TIP3    H142391   1.244   1.962  15.280 -0.5100  1.5681  0.6565
 6992TIP3    H242392   1.184   1.849  15.361  2.0229 -1.3321 -1.3765
 6993TIP3   OH242393   2.964   0.451   0.108 -0.5239  0.0156 -0.0823
 6993TIP3    H142394   2.959   0.360   0.137  0.6121  0.5470  1.9202
 6993TIP3    H242395   2.988   0.446   0.016  0.4204 -1.7178  0.2301
 6994TIP3   OH242396   6.553   2.016  14.866  0.2981 -0.4954  0.3051
 6994TIP3    H142397   6.600   2.074  14.926 -1.1428  0.6630  0.3366
 6994TIP3    H242398   6.598   1.932  14.874  2.2528  0.5506  0.4466
 6995TIP3   OH242399   5.870   0.262  12.508 -0.5525  0.3589 -0.0918
 6995TIP3    H142400   5.842   0.296  12.423 -2.3855  0.8969  0.7069
 6995TIP3    H242401   5.949   0.212  12.489 -0.9672  0.4447 -2.1123
 6996TIP3   OH242402   6.592   5.664  11.157  0.5195  0.7530 -0.0518
 6996TIP3    H142403   6.585   5.709  11.073  0.9155  0.5014 -0.2186
 6996TIP3    H242404   6.552   5.578  11.142 -0.9163  1.3103  0.4711
 6997TIP3   OH242405   3.981   3.485  12.834 -0.4211 -0.0316 -0.4889
 6997TIP3    H142406   4.047   3.514  12.898 -0.5891  0.8799 -0.7155
 6997TIP3    H242407   3.955   3.566  12.789 -1.7797 -0.3762 -0.3229
 6998TIP3   OH242408   2.022   2.044  16.727  0.1718  0.3887 -0.1931
 6998TIP3    H142409   2.051   2.117  16.782  2.1117 -0.6982  0.2689
 6998TIP3    H242410   1.929   2.035  16.746  0.6196  0.6107  2.2424
 6999TIP3   OH242411   3.566   2.215  13.584  0.2913 -0.9275 -0.4296
 6999TIP3    H142412   3.602   2.207  13.672  0.3529 -2.0515 -0.5510
 6999TIP3    H242413   3.505   2.290  13.589  0.0002 -1.2331  0.6600
 7000TIP3   OH242414   5.282   2.348  16.167  0.3616 -0.0826 -0.0756
 7000TIP3    H142415   5.188   2.337  16.176  0.5986 -0.7033  1.8099
 7000TIP3    H242416   5.292   2.426  16.113 -1.2653  2.9778  3.7761
 7001TIP3   OH242417   5.546   2.580  14.564  0.2165 -0.7554 -0.1087
 7001TIP3    H142418   5.539   2.485  14.568 -1.4516 -0.6086  0.6930
 7001TIP3    H242419   5.460   2.610  14.535  0.1044  0.6023  1.5158
 7002TIP3   OH242420   6.738   3.613   4.464  0.4509 -0.2732  0.5568
 7002TIP3    H142421   6.711   3.630   4.374  2.5305  2.2376  0.3390
 7002TIP3    H242422   6.764   3.521   4.465  1.7242  0.0326 -1.7624
 7003TIP3   OH242423   0.492   1.107   0.054 -0.2477  0.7369 -0.2870
 7003TIP3    H142424   0.418   1.046   0.043 -1.6341  2.1073  1.1739
 7003TIP3    H242425   0.470   1.157   0.132  1.0218  2.9238 -1.2978
 7004TIP3   OH242426   2.299   6.374   6.374 -0.1906  0.8481  0.4903
 7004TIP3    H142427   2.375   6.395   6.319 -0.6313 -1.1201 -0.9392
 7004TIP3    H242428   2.232   6.436   6.348 -0.1490  0.4170 -0.6775
 7005TIP3   OH242429   3.637   1.627   3.931  0.1708 -0.1039 -0.8052
 7005TIP3    H142430   3.564   1.686   3.910  0.1599 -0.5751 -2.1679
 7005TIP3    H242431   3.712   1.665   3.885  1.1513  1.1923  1.7686
 7006TIP3   OH242432   1.199   4.866   6.039  0.4723  0.3928 -0.1339
 7006TIP3    H142433   1.141   4.823   6.101  0.7395 -0.9497 -0.8079
 7006TIP3    H242434   1.154   4.948   6.017  0.0342  0.5379  1.2564
 7007TIP3   OH242435   4.027   3.059   1.330  0.3241  0.5374  0.1904
 7007TIP3    H142436   3.938   3.069   1.363  0.5328  0.4569  0.7706
 7007TIP3    H242437   4.027   3.106   1.247  0.4777  2.8647  1.4742
 7008TIP3   OH242438   3.117   5.134   0.992  0.0094  0.8596  0.5469
 7008TIP3    H142439   3.060   5.063   0.964  0.0589  1.2531 -0.5831
 7008TIP3    H242440   3.202   5.092   1.008  0.1916  0.7423 -0.6761
 7009TIP3   OH242441   0.897   1.334  12.882 -0.0428  0.5961 -0.6756
 7009TIP3    H142442   0.898   1.265  12.948  0.9784  0.7746 -0.4984
 7009TIP3    H242443   0.823   1.312  12.825 -2.6255  1.8431  2.0396
 7010TIP3   OH242444   5.673   1.452   5.358 -0.1928  0.3632 -0.3150
 7010TIP3    H142445   5.745   1.389   5.364 -1.1647 -0.6789  0.4997
 7010TIP3    H242446   5.706   1.531   5.401  0.3508 -0.2016  0.3039
 7011TIP3   OH242447   3.128   3.284   4.309 -0.3205 -0.0978  0.3927
 7011TIP3    H142448   3.072   3.281   4.232 -0.4395  0.6546  0.4468
 7011TIP3    H242449   3.078   3.240   4.378 -0.3500 -0.4786  0.1282
 7012TIP3   OH242450   1.148   4.970   0.988 -0.3155 -0.1970 -0.1274
 7012TIP3    H142451   1.058   5.003   0.995 -0.0503  0.2461  1.2214
 7012TIP3    H242452   1.165   4.927   1.071  0.0748 -1.9628 -1.0911
 7013TIP3   OH242453   2.646   3.965  14.584  0.1715 -0.3247  0.1705
 7013TIP3    H142454   2.702   3.998  14.654  0.2454 -1.3141  0.5826
 7013TIP3    H242455   2.583   3.909  14.628  0.2393 -0.9852 -0.5623
 7014TIP3   OH242456   0.206   4.500  16.706  0.4239 -0.2487  0.2945
 7014TIP3    H142457   0.126   4.476  16.658 -0.3263  0.5553  1.1215
 7014TIP3    H242458   0.195   4.457  16.791  0.6836  0.2013  0.5524
 7015TIP3   OH242459   3.598   2.594  11.344  0.2545  0.2814 -0.6361
 7015TIP3    H142460   3.669   2.572  11.284  0.4665 -0.6515 -0.0613
 7015TIP3    H242461   3.624   2.554  11.427 -1.7164 -1.4908 -0.8414
 7016TIP3   OH242462   5.770   3.970  16.694  0.0705 -0.1393  0.0499
 7016TIP3    H142463   5.689   4.015  16.671  1.3699  0.8629 -2.8662
 7016TIP3    H242464   5.767   3.888  16.645 -0.8029 -1.8143  2.8055
 7017TIP3   OH242465   6.041   2.504  14.855  0.7843 -0.5282 -0.1641
 7017TIP3    H142466   6.079   2.545  14.778 -0.0251  2.6431  1.0489
 7017TIP3    H242467   5.947   2.521  14.848  0.6527 -0.5736  1.2755
 7018TIP3   OH242468   6.134   3.440  12.932  0.0091  0.8071 -0.1133
 7018TIP3    H142469   6.230   3.437  12.940 -0.1328 -2.2609  1.6827
 7018TIP3    H242470   6.117   3.433  12.838  1.5836 -3.0390 -0.2260
 7019TIP3   OH242471   5.912   1.406  12.500  0.0431 -0.1701  0.2717
 7019TIP3    H142472   5.848   1.350  12.456 -0.0118  0.7660 -0.8588
 7019TIP3    H242473   5.861   1.457  12.563 -0.1069 -0.4450  0.3724
 7020TIP3   OH242474   4.664   2.191  11.778  0.2429  0.1815  0.1852
 7020TIP3    H142475   4.580   2.145  11.785  0.0632  0.6958  1.5400
 7020TIP3    H242476   4.729   2.122  11.771 -0.2225 -0.2325 -0.1268
 7021TIP3   OH242477   0.582   0.549   5.251  0.1392 -0.2053 -0.3203
 7021TIP3    H142478   0.541   0.528   5.334  1.4716 -1.2727  0.0987
 7021TIP3    H242479   0.626   0.633   5.266  1.8035 -1.2072  0.6067
 7022TIP3   OH242480   2.746   0.389   0.828  0.1919  0.4695  0.0738
 7022TIP3    H142481   2.786   0.308   0.859  1.3240  0.5387 -1.1715
 7022TIP3    H242482   2.652   0.373   0.833  0.3969 -0.5836  0.6867
 7023TIP3   OH242483   1.506   3.167  16.071 -0.2923  0.1147  0.2904
 7023TIP3    H142484   1.438   3.234  16.082 -1.1725 -0.3940 -1.7368
 7023TIP3    H242485   1.457   3.084  16.073  0.5497 -0.3674  0.9496
 7024TIP3   OH242486   0.225   2.209   4.509 -0.0529  0.3592  0.2747
 7024TIP3    H142487   0.134   2.208   4.540 -0.4355  1.6830 -0.7794
 7024TIP3    H242488   0.263   2.129   4.546 -2.1039 -1.1110 -0.6631
 7025TIP3   OH242489   2.089   5.609  17.097  0.3158 -0.0037  0.1135
 7025TIP3    H142490   2.066   5.562  17.017 -2.5754 -1.1291  1.5413
 7025TIP3    H242491   2.178   5.579  17.118 -0.2635 -2.4209 -0.7512
 7026TIP3   OH242492   5.479   5.303   4.341  0.0566  0.0510  0.3865
 7026TIP3    H142493   5.483   5.209   4.359  0.9248 -0.1021 -0.6079
 7026TIP3    H242494   5.548   5.319   4.277 -1.3570  1.0254 -0.9555
 7027TIP3   OH242495   6.774   5.176   2.404  0.5021  0.1174 -0.6819
 7027TIP3    H142496   6.830   5.130   2.466  0.1514 -1.4818 -1.4981
 7027TIP3    H242497   6.801   5.144   2.318 -1.8503 -0.9796 -1.0751
 7028TIP3   OH242498   4.953   1.989   4.410  0.0633 -0.2042  0.0630
 7028TIP3    H142499   4.945   2.038   4.329  1.5228  0.9223  0.5780
 7028TIP3    H242500   4.872   1.938   4.416 -0.1632 -0.1089 -1.9623
 7029TIP3   OH242501   3.757   3.374   4.135 -0.1341 -0.7273  0.2559
 7029TIP3    H142502   3.851   3.370   4.117 -0.0336 -0.3869  0.7032
 7029TIP3    H242503   3.734   3.466   4.124 -0.0598 -0.4910  1.9014
 7030TIP3   OH242504   5.513   3.325   4.346 -0.0958  0.1161 -0.0779
 7030TIP3    H142505   5.444   3.346   4.408  0.1215 -1.3758  0.6886
 7030TIP3    H242506   5.477   3.256   4.291  0.6412 -0.4384  0.1130
 7031TIP3   OH242507   4.932   1.199  15.124 -0.0263  0.4319 -0.4596
 7031TIP3    H142508   4.989   1.237  15.056  0.7595 -1.1110 -0.6827
 7031TIP3    H242509   4.924   1.107  15.100 -2.1124  0.4868 -0.0557
 7032TIP3   OH242510   1.790   2.624  11.691  0.2939 -0.3070  0.0442
 7032TIP3    H142511   1.852   2.579  11.749 -1.3043 -1.6950  0.7201
 7032TIP3    H242512   1.794   2.574  11.609  0.8513  0.2582 -0.2774
 7033TIP3   OH242513   4.746   4.105  16.956  0.0402  0.0660  0.5159
 7033TIP3    H142514   4.779   4.180  16.907  0.7320  0.2815  1.2980
 7033TIP3    H242515   4.663   4.083  16.914  1.2946 -0.6618 -1.6651
 7034TIP3   OH242516   1.374   2.368   5.258  0.0187  0.2865  0.0045
 7034TIP3    H142517   1.293   2.405   5.224  0.8889  0.1237 -2.3417
 7034TIP3    H242518   1.440   2.390   5.193  1.7494 -0.1401  1.5604
 7035TIP3   OH242519   5.675   3.700  16.789  0.3017  0.7713  0.6453
 7035TIP3    H142520   5.671   3.795  16.777  0.4290  0.6681 -0.2734
 7035TIP3    H242521   5.593   3.678  16.834 -1.3729  0.9150 -2.1829
 7036TIP3   OH242522   0.804   4.614   3.165 -0.0169 -0.1066  0.3689
 7036TIP3    H142523   0.825   4.664   3.244  0.8908 -0.9234  0.6549
 7036TIP3    H242524   0.733   4.663   3.123  1.0914  1.6089  0.4615
 7037TIP3   OH242525   5.795   5.204  14.778 -0.4292 -0.4542  0.1944
 7037TIP3    H142526   5.727   5.236  14.718 -0.0034  0.6522  0.2731
 7037TIP3    H242527   5.832   5.284  14.816  1.1271 -1.0347 -0.0844
 7038TIP3   OH242528   1.231   4.385  15.477 -0.0227 -0.5996  0.0013
 7038TIP3    H142529   1.254   4.300  15.440  0.9647 -0.5724  0.5457
 7038TIP3    H242530   1.145   4.405  15.440  1.1166 -0.3856 -2.6342
 7039TIP3   OH242531   5.097   4.139  12.717 -0.1940  0.4283 -0.0153
 7039TIP3    H142532   5.105   4.071  12.650  0.0128  2.1181 -1.7539
 7039TIP3    H242533   5.007   4.131  12.748 -0.4060 -0.1400 -0.7498
 7040TIP3   OH242534   3.703   2.599   2.038  0.4201 -0.1021 -0.2266
 7040TIP3    H142535   3.651   2.539   1.984 -1.6773  0.3530  1.2282
 7040TIP3    H242536   3.673   2.583   2.127  0.5868  2.3488  0.3118
 7041TIP3   OH242537   0.446   4.710  11.861  0.3581 -0.2656 -0.1129
 7041TIP3    H142538   0.463   4.616  11.860 -1.7175 -0.6883 -2.8372
 7041TIP3    H242539   0.424   4.731  11.771 -1.5033  2.3895  0.9008
 7042TIP3   OH242540   1.651   3.569  14.735 -0.3768  0.1615 -0.1298
 7042TIP3    H142541   1.581   3.504  14.725 -0.8239  0.4569  0.9775
 7042TIP3    H242542   1.614   3.650  14.700 -0.8351  0.4724  1.0529
 7043TIP3   OH242543   6.309   0.598   4.807  0.1309 -0.5887 -0.4444
 7043TIP3    H142544   6.332   0.683   4.769  1.5384 -0.6036  0.3631
 7043TIP3    H242545   6.383   0.575   4.862 -1.1796 -1.3349  1.0603
 7044TIP3   OH242546   5.398   5.935   3.732 -0.3862  0.6320  0.1732
 7044TIP3    H142547   5.427   5.951   3.642 -1.0106  2.0195  0.1984
 7044TIP3    H242548   5.309   5.901   3.723  0.0050 -0.4237  0.2266
 7045TIP3   OH242549   0.339   3.102  13.332 -0.0814  0.1389  0.1759
 7045TIP3    H142550   0.277   3.069  13.266 -0.1584  1.4278 -0.4058
 7045TIP3    H242551   0.291   3.172  13.376  0.7885  0.7897  0.0796
 7046TIP3   OH242552   6.157   6.184  14.321 -0.1837 -0.2653 -0.5011
 7046TIP3    H142553   6.094   6.217  14.385 -0.2073 -1.5669  0.1674
 7046TIP3    H242554   6.138   6.232  14.240 -1.2749  0.1707  0.0147
 7047TIP3   OH242555   6.485   5.240   5.911  0.4468  0.2927 -0.7004
 7047TIP3    H142556   6.399   5.224   5.951  0.3504 -1.6347 -1.6010
 7047TIP3    H242557   6.539   5.168   5.943  1.5090  1.0469 -0.7878
 7048TIP3   OH242558   2.346   6.073  17.043  0.1323  0.3904  0.3776
 7048TIP3    H142559   2.312   6.011  16.979 -1.0675 -0.4720  1.8143
 7048TIP3    H242560   2.271   6.130  17.063  0.9480  1.6774 -0.1796
 7049TIP3   OH242561   0.739   1.451  12.306  0.1226 -0.1134 -0.0064
 7049TIP3    H142562   0.698   1.396  12.239 -0.1375 -0.5599  0.5218
 7049TIP3    H242563   0.763   1.391  12.375 -0.6363  0.5055  0.8099
 7050TIP3   OH242564   2.467   3.112   3.619  0.8685 -0.3270  0.0518
 7050TIP3    H142565   2.482   3.132   3.712  0.6130  0.9683 -0.1753
 7050TIP3    H242566   2.539   3.055   3.595  2.1236  1.0115  0.5145
 7051TIP3   OH242567   1.490   2.695  11.759 -0.1842  0.5209 -0.1339
 7051TIP3    H142568   1.573   2.675  11.716  0.1630  1.1666  0.2329
 7051TIP3    H242569   1.430   2.626  11.729  0.5431 -0.0831 -0.2128
 7052TIP3   OH242570   2.113   4.404   0.882  0.2319 -0.6147 -1.0598
 7052TIP3    H142571   2.197   4.446   0.867 -0.1549  1.3878  1.8213
 7052TIP3    H242572   2.136   4.314   0.909  1.7504  0.9280  3.2330
 7053TIP3   OH242573   6.460   0.993   1.320  0.2524  0.0858 -0.0222
 7053TIP3    H142574   6.468   1.032   1.233  3.9529 -0.9223 -0.2051
 7053TIP3    H242575   6.429   1.065   1.376  1.4580  1.7357 -1.4460
 7054TIP3   OH242576   2.933   3.518   4.104 -0.4592 -0.2135 -0.4146
 7054TIP3    H142577   2.897   3.518   4.193  1.8252  0.9846  0.5478
 7054TIP3    H242578   3.016   3.564   4.112  0.0927 -0.6856 -3.0654
 7055TIP3   OH242579   4.127   6.649  12.522  0.5033  0.4415 -0.0441
 7055TIP3    H142580   4.186   6.691  12.584 -1.0497  1.4235  0.8077
 7055TIP3    H242581   4.051   6.624  12.574  0.0819 -0.6595 -1.1478
 7056TIP3   OH242582   1.714   3.930   3.552  0.3018  0.0001  0.5991
 7056TIP3    H142583   1.785   3.948   3.490 -0.3163 -2.4793 -0.8846
 7056TIP3    H242584   1.732   3.988   3.626  2.3577  1.3443 -0.9002
 7057TIP3   OH242585   2.792   0.569  15.473 -0.5222 -0.0440 -0.4183
 7057TIP3    H142586   2.843   0.542  15.549 -0.0233  0.7403 -0.4618
 7057TIP3    H242587   2.728   0.631  15.508 -0.0229  0.6376 -0.6851
 7058TIP3   OH242588   5.734   5.132   0.962 -0.3010  0.4711  0.1075
 7058TIP3    H142589   5.821   5.157   0.995 -0.1305 -0.0740  0.0788
 7058TIP3    H242590   5.744   5.041   0.935 -0.8867  0.4045  0.1067
 7059TIP3   OH242591   6.553   4.943  12.616  0.0619 -0.7591  0.5689
 7059TIP3    H142592   6.532   4.951  12.709 -0.3644 -1.3535  0.5216
 7059TIP3    H242593   6.604   5.022  12.596 -0.4673 -0.2743  1.1344
 7060TIP3   OH242594   3.765   1.726  11.750  0.4437  0.2300 -0.0767
 7060TIP3    H142595   3.829   1.656  11.736 -0.3801 -0.5989  0.2237
 7060TIP3    H242596   3.680   1.681  11.747 -0.0238  0.9583  1.6534
 7061TIP3   OH242597   2.511   4.290   2.465 -0.0411  0.0026 -0.4747
 7061TIP3    H142598   2.434   4.305   2.518 -0.7099 -1.4166 -1.0169
 7061TIP3    H242599   2.585   4.306   2.524 -0.7732 -2.7142  1.2206
 7062TIP3   OH242600   4.369   3.210   2.736  0.0354  0.5175  0.0496
 7062TIP3    H142601   4.329   3.130   2.770 -0.5579  0.7126 -0.1727
 7062TIP3    H242602   4.423   3.242   2.808 -1.6542  1.2283  1.0462
 7063TIP3   OH242603   1.146   2.909   5.712 -0.1336 -0.1014 -0.0258
 7063TIP3    H142604   1.091   2.948   5.644 -1.0429 -0.4962  0.4705
 7063TIP3    H242605   1.231   2.953   5.703 -0.1357 -0.3827 -1.6283
 7064TIP3   OH242606   4.533   1.577  14.837 -0.3290 -0.3127  0.7817
 7064TIP3    H142607   4.532   1.501  14.778  0.0307  0.6064 -0.4246
 7064TIP3    H242608   4.450   1.621  14.819 -1.0419 -0.9829  2.2688
 7065TIP3   OH242609   3.314   4.992  11.816  0.8505 -0.0488 -0.4437
 7065TIP3    H142610   3.271   5.006  11.732 -0.7173  0.0474  0.3535
 7065TIP3    H242611   3.339   4.899  11.816  1.0741  0.0139 -1.1134
 7066TIP3   OH242612   4.398   0.257  15.646  0.2523 -0.1897 -0.3381
 7066TIP3    H142613   4.473   0.221  15.694  0.1661  1.7687  1.3376
 7066TIP3    H242614   4.435   0.289  15.564  1.2591  0.7979  0.4986
 7067TIP3   OH242615   2.083   5.146  14.212 -0.5651 -0.6686 -0.2596
 7067TIP3    H142616   1.996   5.120  14.239  0.3243 -1.9892  1.4384
 7067TIP3    H242617   2.139   5.073  14.236  1.1173  0.4262 -0.7208
 7068TIP3   OH242618   1.380   2.418   6.337  0.1124 -0.3193  0.1244
 7068TIP3    H142619   1.387   2.504   6.379  0.1174 -0.2116 -0.0940
 7068TIP3    H242620   1.379   2.355   6.410  0.1375 -0.1363  0.2828
 7069TIP3   OH242621   5.384   4.108  16.978 -0.1737  0.1413  0.0467
 7069TIP3    H142622   5.290   4.125  16.987 -0.6937 -1.6503 -1.7625
 7069TIP3    H242623   5.408   4.065  17.060 -1.3937 -1.2505 -0.3031
 7070TIP3   OH242624   4.175   0.772  13.431 -0.4307 -0.2530 -0.6139
 7070TIP3    H142625   4.086   0.749  13.458 -0.4080 -0.8380 -1.0370
 7070TIP3    H242626   4.164   0.843  13.368 -0.4669  1.4625  1.2530
 7071TIP3   OH242627   1.665   2.571  16.320 -0.2871 -0.0197  0.3448
 7071TIP3    H142628   1.602   2.612  16.260 -0.6848  0.0980  0.8488
 7071TIP3    H242629   1.700   2.644  16.372  1.1811  0.1032 -0.7613
 7072TIP3   OH242630   0.750   5.617   4.110  0.0632  0.1526  0.6094
 7072TIP3    H142631   0.743   5.701   4.065  2.1978 -0.0668 -0.1774
 7072TIP3    H242632   0.797   5.637   4.191  0.2995 -0.2369  0.5699
 7073TIP3   OH242633   4.146   4.109  13.563 -0.5242 -0.2038  0.3046
 7073TIP3    H142634   4.192   4.182  13.605  2.8978 -1.5999 -0.8632
 7073TIP3    H242635   4.184   4.103  13.475 -3.2084 -1.2445 -0.8561
 7074TIP3   OH242636   6.536   4.017   1.398  0.0791 -0.2751  0.4913
 7074TIP3    H142637   6.513   3.924   1.404  1.1120 -0.6567 -1.1005
 7074TIP3    H242638   6.513   4.041   1.308 -2.6001  1.7152  1.6529
 7075TIP3   OH242639   4.138   6.473   4.684 -0.4662  0.4170  0.2742
 7075TIP3    H142640   4.121   6.460   4.777 -0.5275  1.2282  0.3801
 7075TIP3    H242641   4.068   6.425   4.639 -0.8090  0.5622  0.6543
 7076TIP3   OH242642   2.036   5.690   0.333 -0.0762  0.2965 -0.4058
 7076TIP3    H142643   2.109   5.632   0.357 -0.5513  0.1814  0.7641
 7076TIP3    H242644   2.038   5.759   0.399 -1.3685  0.0003 -0.0605
 7077TIP3   OH242645   4.399   1.641  13.305  0.1543 -0.5309 -0.3050
 7077TIP3    H142646   4.436   1.559  13.337  1.2402  0.4792  1.0856
 7077TIP3    H242647   4.304   1.626  13.302  0.3362 -1.7580  0.1175
 7078TIP3   OH242648   6.256   0.511  13.619 -0.4007 -0.2691 -0.3821
 7078TIP3    H142649   6.188   0.500  13.685 -2.0803 -0.4342 -2.1278
 7078TIP3    H242650   6.211   0.545  13.542  1.4280 -0.6467 -1.6649
 7079TIP3   OH242651   3.220   5.090   0.553  0.0355 -0.2423 -0.9984
 7079TIP3    H142652   3.291   5.040   0.513  0.3859  0.0827 -0.7811
 7079TIP3    H242653   3.167   5.024   0.599  2.2875 -0.0476  2.0147
 7080TIP3   OH242654   2.132   2.172  10.832  0.4072 -0.3255 -0.2050
 7080TIP3    H142655   2.114   2.249  10.779  3.2173 -0.0773 -0.8773
 7080TIP3    H242656   2.181   2.114  10.774  1.1024 -1.2404  1.2766
 7081TIP3   OH242657   3.350   5.558  12.045  0.1023  0.1117  0.2155
 7081TIP3    H142658   3.362   5.470  12.010 -1.4576 -0.0262 -0.0024
 7081TIP3    H242659   3.360   5.548  12.140  0.1074 -0.2592  0.1764
 7082TIP3   OH242660   5.409   5.864  14.810  0.1300  0.3915  0.6876
 7082TIP3    H142661   5.348   5.792  14.823 -0.6904  1.0085  0.2495
 7082TIP3    H242662   5.450   5.845  14.726 -0.3873  0.6604  0.3763
 7083TIP3   OH242663   4.434   4.285  13.878  0.1730 -0.2206  0.2735
 7083TIP3    H142664   4.487   4.217  13.837 -1.4105 -0.7544 -0.9122
 7083TIP3    H242665   4.343   4.257  13.865 -0.4884  1.7937  0.3005
 7084TIP3   OH242666   5.940   1.194   1.121 -0.4414  0.0479  0.3570
 7084TIP3    H142667   5.883   1.129   1.162  0.4255 -0.4445  0.7751
 7084TIP3    H242668   6.003   1.218   1.189 -0.3169  0.8061 -0.0139
 7085TIP3   OH242669   0.571   0.496  12.749 -0.6537  1.1526  0.7414
 7085TIP3    H142670   0.495   0.485  12.807 -1.7565 -0.8496 -1.0093
 7085TIP3    H242671   0.535   0.484  12.661  1.4660  1.4972 -0.1845
 7086TIP3   OH242672   1.455   1.524  15.353  0.3452  0.7563  0.4452
 7086TIP3    H142673   1.488   1.453  15.299  0.8301  0.6031  0.9440
 7086TIP3    H242674   1.511   1.599  15.331 -0.0364  0.9373  0.0708
 7087TIP3   OH242675   5.429   4.369  15.032 -0.2668 -0.2564  0.0968
 7087TIP3    H142676   5.429   4.277  15.009 -0.1573  0.4734 -3.0545
 7087TIP3    H242677   5.337   4.395  15.029 -0.2208 -0.0748  0.2088
 7088TIP3   OH242678   2.311   1.617  11.547  0.5471 -0.0300 -0.9466
 7088TIP3    H142679   2.308   1.591  11.639  0.4037  1.9512 -0.3790
 7088TIP3    H242680   2.260   1.550  11.502 -0.3784 -0.3679  0.5684
 7089TIP3   OH242681   1.062   4.938  15.346  0.0895  0.2376  0.0846
 7089TIP3    H142682   1.092   4.865  15.292 -0.1620  0.3257 -0.1817
 7089TIP3    H242683   1.045   4.900  15.432 -2.2670 -0.5077 -0.6776
 7090TIP3   OH242684   6.605   6.773   3.427 -0.1581  0.2625 -0.0781
 7090TIP3    H142685   6.530   6.803   3.477  0.4524  0.0291  0.9866
 7090TIP3    H242686   6.679   6.824   3.459 -0.0921  1.5029 -2.1142
 7091TIP3   OH242687   4.224   1.040   2.749  0.3987 -0.6517 -0.0075
 7091TIP3    H142688   4.161   1.037   2.677 -0.2295  1.0831  0.4412
 7091TIP3    H242689   4.308   1.017   2.709 -0.0684 -0.4525 -1.1293
 7092TIP3   OH242690   0.170   4.974  12.517 -0.1629 -0.5794  0.1067
 7092TIP3    H142691   0.093   5.031  12.517 -0.5389 -1.0630  1.5283
 7092TIP3    H242692   0.241   5.031  12.546 -0.1719 -0.3776 -0.2589
 7093TIP3   OH242693   3.172   0.511  12.168 -0.1945 -0.4252  0.5474
 7093TIP3    H142694   3.156   0.419  12.189 -2.4343 -0.9445 -3.1022
 7093TIP3    H242695   3.256   0.510  12.121 -0.1222 -0.5365  0.6761
 7094TIP3   OH242696   3.787   5.794  13.793 -0.0533  0.2313 -0.4825
 7094TIP3    H142697   3.866   5.833  13.757 -0.0402  0.4969 -0.1712
 7094TIP3    H242698   3.815   5.710  13.829 -0.2719 -0.5399 -2.0656
 7095TIP3   OH242699   0.268   6.701  16.183  0.5631  0.4066  0.3742
 7095TIP3    H142700   0.203   6.727  16.248  1.0501 -0.3340  1.1786
 7095TIP3    H242701   0.344   6.675  16.235  0.2581 -2.1462 -0.3615
 7096TIP3   OH242702   4.628   2.320  15.291 -0.4725 -0.6601 -0.1692
 7096TIP3    H142703   4.539   2.326  15.256 -0.9861 -1.4874  0.9597
 7096TIP3    H242704   4.629   2.383  15.363 -0.9936 -2.5859  1.5497
 7097TIP3   OH242705   1.145   1.741  13.834 -0.7130  0.0694 -0.1776
 7097TIP3    H142706   1.167   1.674  13.771 -0.8494 -0.2545  0.1168
 7097TIP3    H242707   1.229   1.773  13.867 -0.6414  0.2716 -0.5553
 7098TIP3   OH242708   2.376   5.106   2.492  0.8195  0.4763  0.7272
 7098TIP3    H142709   2.402   5.014   2.498 -0.9737  0.0172  1.8181
 7098TIP3    H242710   2.371   5.123   2.398  0.4125 -0.7600  0.5085
 7099TIP3   OH242711   1.487   0.122  12.661  0.0079 -0.0449  1.2354
 7099TIP3    H142712   1.515   0.135  12.752 -0.3730 -0.3048  1.3944
 7099TIP3    H242713   1.392   0.137  12.664 -0.1773 -1.1453  1.1006
 7100TIP3   OH242714   1.031   3.552  14.429 -0.0504 -0.3632  0.0072
 7100TIP3    H142715   1.065   3.476  14.381 -0.5879  0.7511 -2.2060
 7100TIP3    H242716   0.948   3.571  14.387  0.5046  2.0177 -0.0904
 7101TIP3   OH242717   5.950   1.464   1.888 -0.7132 -0.3824 -0.3327
 7101TIP3    H142718   5.871   1.424   1.925 -0.2353 -0.6556  0.3948
 7101TIP3    H242719   5.920   1.547   1.851 -1.4648 -0.7939 -0.6585
 7102TIP3   OH242720   0.144   1.848   2.462 -0.2752 -0.3672  0.6600
 7102TIP3    H142721   0.217   1.811   2.412  0.4916  0.6119  1.0441
 7102TIP3    H242722   0.173   1.936   2.485 -1.1953 -0.3142  1.6400
 7103TIP3   OH242723   4.773   0.395  12.498  0.1098  0.0647  0.0643
 7103TIP3    H142724   4.767   0.301  12.481  2.0173 -0.3738  1.6570
 7103TIP3    H242725   4.848   0.424  12.444  2.0530 -0.1142  2.5837
 7104TIP3   OH242726   0.740   6.396  10.464 -0.2051  0.1043 -0.1373
 7104TIP3    H142727   0.646   6.404  10.481 -0.0472  3.5053 -0.4299
 7104TIP3    H242728   0.751   6.428  10.374  1.0442 -1.8817 -0.7297
 7105TIP3   OH242729   5.130   1.615   4.072  0.1677  0.1503 -0.0041
 7105TIP3    H142730   5.170   1.669   4.140 -0.6659  0.5383  0.1804
 7105TIP3    H242731   5.169   1.646   3.990  0.5281  0.2673  0.2114
 7106TIP3   OH242732   2.327   2.188   0.163 -0.1523 -0.1219  0.2408
 7106TIP3    H142733   2.414   2.153   0.144  0.0869  1.1524 -1.1027
 7106TIP3    H242734   2.273   2.111   0.179  0.6819 -1.0497 -1.3127
 7107TIP3   OH242735   2.585   1.195  15.280  0.5749 -0.3698 -0.4115
 7107TIP3    H142736   2.606   1.230  15.366 -1.4599  3.0095 -1.1732
 7107TIP3    H242737   2.617   1.262  15.219 -3.2084  0.1321 -1.9776
 7108TIP3   OH242738   0.771   4.474  13.907  0.4753 -0.5545  0.4621
 7108TIP3    H142739   0.743   4.510  13.823  1.9175  0.1458  0.2612
 7108TIP3    H242740   0.694   4.429  13.941  0.0322 -1.3074 -1.4739
 7109TIP3   OH242741   1.331   4.576  16.634 -0.1324  0.2772 -0.6673
 7109TIP3    H142742   1.362   4.658  16.595 -0.4169  0.8320  0.2610
 7109TIP3    H242743   1.323   4.516  16.560  1.0399  0.7888 -1.2189
 7110TIP3   OH242744   1.176   6.260   5.310  0.1110  0.8939  0.3359
 7110TIP3    H142745   1.173   6.290   5.219  2.6983 -1.9647 -0.7915
 7110TIP3    H242746   1.267   6.271   5.337 -0.0689 -0.6776  1.6969
 7111TIP3   OH242747   2.459   4.079   3.868 -0.2374 -0.6402  0.2359
 7111TIP3    H142748   2.427   3.992   3.892 -0.0399 -0.4223  1.3017
 7111TIP3    H242749   2.454   4.081   3.772  3.0505 -3.1093 -0.0427
 7112TIP3   OH242750   0.255   5.871  11.619  0.0991 -0.2149 -0.6547
 7112TIP3    H142751   0.250   5.900  11.528 -0.8038  1.4186 -0.0977
 7112TIP3    H242752   0.292   5.945  11.666  0.5435 -1.0504  0.3285
 7113TIP3   OH242753   4.983   3.952  17.202 -0.6848 -0.1305  0.5348
 7113TIP3    H142754   4.993   4.044  17.176 -1.4882 -0.7773 -2.2630
 7113TIP3    H242755   5.073   3.920  17.208 -0.4174  0.6567  0.8595
 7114TIP3   OH242756   1.387   2.921   4.922  0.4414 -0.1399 -0.7713
 7114TIP3    H142757   1.478   2.893   4.933  0.3692 -0.6190 -1.4238
 7114TIP3    H242758   1.345   2.849   4.876 -0.6028 -0.5068  0.7218
 7115TIP3   OH242759   1.995   5.186  15.483  0.0914  0.0827 -0.2818
 7115TIP3    H142760   2.034   5.136  15.412 -0.3707 -0.2292 -0.3213
 7115TIP3    H242761   2.007   5.132  15.561  2.0852  1.1672  0.2045
 7116TIP3   OH242762   1.814   2.648   1.515  0.7940 -0.5625  0.2184
 7116TIP3    H142763   1.789   2.718   1.577  0.5784 -1.9476  1.7308
 7116TIP3    H242764   1.757   2.662   1.439 -1.5480 -1.0178  1.8228
 7117TIP3   OH242765   1.539   3.302   1.810  0.4361 -0.1681 -0.0004
 7117TIP3    H142766   1.537   3.349   1.726  0.3923  1.3224  0.8131
 7117TIP3    H242767   1.521   3.370   1.876 -0.0308 -1.4121  1.1802
 7118TIP3   OH242768   1.524   1.396  15.706 -0.2915 -0.1653 -0.1601
 7118TIP3    H142769   1.446   1.364  15.660 -0.6630 -0.8505  0.9239
 7118TIP3    H242770   1.557   1.319  15.753  1.8364 -0.2354 -1.6805
 7119TIP3   OH242771   1.155   1.784  12.287  0.2748 -0.6892  0.2477
 7119TIP3    H142772   1.185   1.828  12.367 -0.7613 -1.1730  0.9036
 7119TIP3    H242773   1.099   1.849  12.244 -0.4207 -0.9864  0.6985
 7120TIP3   OH242774   6.007   4.567   6.039  0.0407 -0.4064 -0.1813
 7120TIP3    H142775   5.968   4.543   6.123 -0.2635  0.2180 -0.1454
 7120TIP3    H242776   6.020   4.661   6.044  1.8748 -0.6428 -0.0654
 7121TIP3   OH242777   3.169   6.184  13.502 -0.0622 -0.0623  0.0823
 7121TIP3    H142778   3.141   6.195  13.411 -0.0716 -0.8399 -0.0109
 7121TIP3    H242779   3.139   6.264  13.546  1.1170  0.9339 -0.8744
 7122TIP3   OH242780   3.159   0.056  15.971 -0.3107 -0.1473 -0.2207
 7122TIP3    H142781   3.219   0.033  15.900  0.1124 -3.2295  1.0583
 7122TIP3    H242782   3.103  -0.021  15.981 -2.9505  1.7574  0.2079
 7123TIP3   OH242783   2.468   3.898   0.118  0.5239  0.5069  0.2388
 7123TIP3    H142784   2.441   3.969   0.059 -0.1174  0.7404  0.7976
 7123TIP3    H242785   2.490   3.942   0.200  0.7996  0.1248  0.3714
 7124TIP3   OH242786   6.538   6.091  11.718  0.3053 -0.0737 -0.3479
 7124TIP3    H142787   6.526   6.162  11.781 -0.3297  2.0897 -2.7975
 7124TIP3    H242788   6.460   6.037  11.728  0.2139  0.2464  0.7338
 7125TIP3   OH242789   0.099   6.753   2.703 -0.2515 -0.1289  0.2925
 7125TIP3    H142790   0.164   6.809   2.660 -0.7369 -0.1285 -0.4611
 7125TIP3    H242791   0.075   6.690   2.636 -2.0261  0.7023  0.1107
 7126TIP3   OH242792   4.340   6.570   2.749 -0.4885 -0.2059 -0.4336
 7126TIP3    H142793   4.256   6.533   2.776 -0.6188  1.1781  1.1948
 7126TIP3    H242794   4.318   6.632   2.679 -0.6332 -0.8926 -1.0049
 7127TIP3   OH242795   1.494   4.523   0.759 -0.2230 -0.6135  0.2611
 7127TIP3    H142796   1.425   4.539   0.823  0.3009 -1.0530  0.9359
 7127TIP3    H242797   1.470   4.440   0.718 -0.2125 -0.6565  0.3420
 7128TIP3   OH242798   6.301   3.959   6.139  0.1620 -0.0746 -0.5419
 7128TIP3    H142799   6.243   3.884   6.149 -1.2072  1.1102  0.6024
 7128TIP3    H242800   6.244   4.029   6.108  1.6807  0.1687 -2.8997
 7129TIP3   OH242801   2.159   0.318   0.775 -0.4462  0.3733 -0.5617
 7129TIP3    H142802   2.201   0.321   0.689 -1.2304  1.6807 -0.8978
 7129TIP3    H242803   2.110   0.400   0.782 -0.8668  0.0187  0.8903
 7130TIP3   OH242804   5.580   0.359  14.026  0.3758  0.3053  0.5537
 7130TIP3    H142805   5.616   0.402  13.948  1.7646 -0.0506  0.9894
 7130TIP3    H242806   5.496   0.402  14.039  0.5137  0.9808 -0.6314
 7131TIP3   OH242807   2.678   3.659  15.781  0.7499  0.7392 -0.3848
 7131TIP3    H142808   2.635   3.745  15.788 -1.9638 -0.5557 -0.4846
 7131TIP3    H242809   2.712   3.657  15.692  0.7061  1.6618 -0.4303
 7132TIP3   OH242810   2.634   4.732  16.258  0.4694 -0.2782 -0.2681
 7132TIP3    H142811   2.642   4.651  16.309 -0.3979 -1.0131 -1.2903
 7132TIP3    H242812   2.690   4.717  16.181  1.4069  0.6485  0.2171
 7133TIP3   OH242813   3.052   4.421   1.124 -0.0055 -0.7641 -0.0387
 7133TIP3    H142814   2.975   4.479   1.126 -0.2982 -1.0534 -1.8475
 7133TIP3    H242815   3.102   4.451   1.048  2.2677  0.1344  1.7704
 7134TIP3   OH242816   6.685   4.651  12.740  0.3467 -0.0116  0.1781
 7134TIP3    H142817   6.682   4.562  12.775 -0.6214  0.5028  1.4406
 7134TIP3    H242818   6.768   4.686  12.772  0.6840 -0.4236 -0.2391
 7135TIP3   OH242819   1.237   2.725  11.926  0.7368  0.5942 -0.0163
 7135TIP3    H142820   1.187   2.664  11.980  0.4588 -0.6693 -1.6264
 7135TIP3    H242821   1.327   2.718  11.959  1.1454 -2.4028 -1.5700
 7136TIP3   OH242822   0.219   0.844   4.676  0.0203 -0.3773  0.2307
 7136TIP3    H142823   0.178   0.787   4.611 -0.2458  1.3705 -1.1906
 7136TIP3    H242824   0.165   0.835   4.754  0.2793 -2.4238  0.2000
 7137TIP3   OH242825   0.073   1.520   0.094  0.3189 -0.1503  0.0613
 7137TIP3    H142826   0.046   1.431   0.072 -0.0213 -0.2829  0.9744
 7137TIP3    H242827   0.020   1.577   0.038 -1.6854 -0.4208  1.6251
 7138TIP3   OH242828   5.374   3.392   4.869 -0.3733 -0.1232 -0.1646
 7138TIP3    H142829   5.361   3.446   4.947 -0.5579 -0.7982  0.2794
 7138TIP3    H242830   5.356   3.303   4.899 -1.5343 -0.2711 -1.2469
 7139TIP3   OH242831   2.831   1.904  10.819 -0.0036  0.0831 -0.2172
 7139TIP3    H142832   2.905   1.888  10.878  1.2678  1.3266 -1.4175
 7139TIP3    H242833   2.870   1.946  10.743 -2.4418  4.1263  0.6375
 7140TIP3   OH242834   2.070   5.853  13.312 -0.5462  0.1950  0.1843
 7140TIP3    H142835   2.027   5.769  13.328  0.2940 -0.2808 -0.0512
 7140TIP3    H242836   2.019   5.915  13.364 -0.7678 -0.5610  0.8880
 7141TIP3   OH242837   6.497   4.182   3.256  0.2386 -0.5502  0.2734
 7141TIP3    H142838   6.457   4.259   3.217 -0.0500 -0.5583  0.5484
 7141TIP3    H242839   6.510   4.122   3.183  2.4412  0.5924 -0.2965
 7142TIP3   OH242840   6.731   1.471   0.933  0.1905 -0.4170  0.2057
 7142TIP3    H142841   6.799   1.403   0.936  0.1293 -0.5003 -0.2279
 7142TIP3    H242842   6.766   1.541   0.988  0.6754 -0.4194 -0.0888
 7143TIP3   OH242843   5.423   6.243  16.963  0.1084  0.0417 -0.2942
 7143TIP3    H142844   5.423   6.208  17.052  0.6392 -0.0880 -0.3460
 7143TIP3    H242845   5.385   6.330  16.972 -0.5333 -0.2656 -0.0600
 7144TIP3   OH242846   1.071   4.442   4.639  0.8955 -0.7686 -0.3217
 7144TIP3    H142847   1.060   4.473   4.728 -0.0993  0.0826 -0.7399
 7144TIP3    H242848   1.159   4.470   4.615  0.2369  1.1963 -0.4752
 7145TIP3   OH242849   6.077   5.097  11.930 -0.1887  0.3385 -0.0284
 7145TIP3    H142850   6.063   5.007  11.901 -0.4353  0.1652  0.6160
 7145TIP3    H242851   6.171   5.113  11.914  0.5641 -1.0681  2.6510
 7146TIP3   OH242852   4.734   3.624  16.396  0.5976  0.3543  0.0661
 7146TIP3    H142853   4.793   3.548  16.399 -1.4880 -1.3594 -0.6030
 7146TIP3    H242854   4.674   3.610  16.469 -0.4323  0.8056 -0.6805
 7147TIP3   OH242855   1.759   4.058  15.431  0.4251  0.0276 -0.0407
 7147TIP3    H142856   1.809   4.127  15.474  2.5012 -0.3547 -1.7723
 7147TIP3    H242857   1.668   4.078  15.452  1.2630  0.4544  3.5994
 7148TIP3   OH242858   5.161   4.300   4.426 -0.3076 -0.3803  0.0251
 7148TIP3    H142859   5.115   4.384   4.427 -0.3784 -0.4082 -0.6167
 7148TIP3    H242860   5.117   4.247   4.492 -0.0144  0.2152  0.7103
 7149TIP3   OH242861   3.646   4.442  16.748 -0.0922  0.4722  0.3899
 7149TIP3    H142862   3.716   4.491  16.791  1.8233 -1.6708 -0.2320
 7149TIP3    H242863   3.597   4.403  16.820  0.5718  0.3173  0.7628
 7150TIP3   OH242864   2.843   4.523   4.640 -0.5925  0.9462  0.1677
 7150TIP3    H142865   2.760   4.552   4.602 -0.6918 -1.1921 -1.3588
 7150TIP3    H242866   2.907   4.534   4.569 -0.2730 -0.6180  0.1849
 7151TIP3   OH242867   6.254   0.675  15.627  0.0640  0.1173 -0.2511
 7151TIP3    H142868   6.258   0.762  15.668  1.1733  1.4002 -2.9731
 7151TIP3    H242869   6.321   0.677  15.559 -1.0128 -2.3106 -1.4525
 7152TIP3   OH242870   3.213   4.206  15.396  0.2726 -0.2318 -0.7466
 7152TIP3    H142871   3.151   4.278  15.382 -0.7145 -1.1345 -1.1451
 7152TIP3    H242872   3.168   4.129  15.360  0.2388 -1.5279  1.9835
 7153TIP3   OH242873   4.337   3.747   6.467 -0.1226  0.2352  0.2846
 7153TIP3    H142874   4.255   3.775   6.425 -0.8953  1.6681  2.6211
 7153TIP3    H242875   4.308   3.696   6.543  1.1949 -0.1871  0.5091
 7154TIP3   OH242876   3.752   1.310  12.030  0.3732  0.0691  0.2924
 7154TIP3    H142877   3.693   1.360  12.086  1.0470  0.3517  0.7451
 7154TIP3    H242878   3.694   1.247  11.985 -0.1544 -0.1928  1.3239
 7155TIP3   OH242879   5.717   5.268   1.600  0.3706  0.6221  0.6657
 7155TIP3    H142880   5.625   5.251   1.585  1.0304 -3.3582  0.7660
 7155TIP3    H242881   5.750   5.302   1.517 -1.0763  1.8646  0.5757
 7156TIP3   OH242882   1.587   5.011   2.000 -0.1858  0.2257  0.2798
 7156TIP3    H142883   1.519   4.953   1.966 -0.7140  1.3231 -0.5560
 7156TIP3    H242884   1.669   4.962   1.989 -0.7965 -0.9545  0.9645
 7157TIP3   OH242885   3.505   6.300  12.566  0.3681 -0.6618 -0.2335
 7157TIP3    H142886   3.474   6.212  12.542  0.2884 -0.1012 -2.2616
 7157TIP3    H242887   3.467   6.358  12.501  0.5720  0.8831  0.9820
 7158TIP3   OH242888   5.370   4.788  12.877  0.4529 -0.0005  0.6675
 7158TIP3    H142889   5.294   4.772  12.932  0.2204  0.1647  0.3990
 7158TIP3    H242890   5.445   4.782  12.936  0.0338  2.9405  1.5948
 7159TIP3   OH242891   6.313   0.983   4.777  0.5118 -0.1185 -0.2789
 7159TIP3    H142892   6.331   0.992   4.871  0.1885 -0.5365 -0.1716
 7159TIP3    H242893   6.217   0.986   4.771  0.4604 -1.4922 -0.4299
 7160TIP3   OH242894   0.517   6.201  10.649  0.6197 -0.3310 -0.3571
 7160TIP3    H142895   0.592   6.176  10.702  1.1822  0.4733 -0.7704
 7160TIP3    H242896   0.533   6.292  10.624 -0.6205 -0.0576 -0.2196
 7161TIP3   OH242897   1.792   3.633   4.145  0.1552 -0.1726 -0.2577
 7161TIP3    H142898   1.699   3.627   4.123 -0.0751  0.1777  0.5984
 7161TIP3    H242899   1.807   3.726   4.160  0.2486 -0.4119  1.2532
 7162TIP3   OH242900   1.783   4.823   3.438  0.9174 -0.1669  0.4792
 7162TIP3    H142901   1.845   4.766   3.392  1.3662 -0.0067  0.8838
 7162TIP3    H242902   1.770   4.896   3.378  1.3042 -0.0836  0.4963
 7163TIP3   OH242903   5.653   5.756   5.994  0.3910 -0.2432 -0.4989
 7163TIP3    H142904   5.622   5.846   5.985 -1.1073 -0.5236  1.6135
 7163TIP3    H242905   5.748   5.766   6.007 -0.1657  1.2775  2.9074
 7164TIP3   OH242906   4.936   4.848   2.850 -0.2079  0.4136  0.2322
 7164TIP3    H142907   4.888   4.922   2.887 -0.7792  0.2679 -0.2174
 7164TIP3    H242908   4.912   4.847   2.758 -0.5617 -0.6182  0.3269
 7165TIP3   OH242909   0.151   2.694   3.052  0.1501  0.5181 -0.0979
 7165TIP3    H142910   0.061   2.721   3.072  0.6244  2.3061 -0.2925
 7165TIP3    H242911   0.161   2.710   2.958  0.1003 -1.4741 -0.4814
 7166TIP3   OH242912   5.812   2.670  12.358 -0.3043 -0.3078 -0.6035
 7166TIP3    H142913   5.769   2.643  12.276 -0.9522  0.2172 -0.4375
 7166TIP3    H242914   5.885   2.608  12.367 -0.0742 -0.2232 -1.7083
 7167TIP3   OH242915   4.811   4.247   5.095 -0.4279  0.4845  0.2072
 7167TIP3    H142916   4.821   4.327   5.045  0.7151  1.3848  1.8177
 7167TIP3    H242917   4.768   4.275   5.177 -1.9248 -0.8824 -0.0825
 7168TIP3   OH242918   1.139   3.033   2.605  0.0298  0.1160  0.1106
 7168TIP3    H142919   1.206   3.024   2.673 -0.2672 -1.9689  0.1562
 7168TIP3    H242920   1.109   2.944   2.589 -1.9624  0.9036 -0.7087
 7169TIP3   OH242921   1.547   5.853  12.048 -0.6578  0.2942 -0.0517
 7169TIP3    H142922   1.480   5.917  12.024 -1.1298  0.8815  2.7113
 7169TIP3    H242923   1.622   5.875  11.991 -0.5824  3.7279  1.2360
 7170TIP3   OH242924   4.809   2.423   4.013 -0.0055  0.3926  0.0352
 7170TIP3    H142925   4.893   2.449   4.051 -0.3242  0.0791  0.9662
 7170TIP3    H242926   4.829   2.405   3.921  1.0132  0.0089  0.3231
 7171TIP3   OH242927   3.976   4.721  11.461  0.2266 -0.4806  0.4243
 7171TIP3    H142928   3.970   4.815  11.479 -0.5536 -0.0738 -1.8139
 7171TIP3    H242929   4.041   4.715  11.390 -0.1746 -1.5694  0.1469
 7172TIP3   OH242930   2.961   2.374   2.507  0.1394  0.4869 -0.2245
 7172TIP3    H142931   3.005   2.322   2.574  0.5641  0.9454 -0.1504
 7172TIP3    H242932   2.993   2.463   2.520 -0.8507  0.8414 -0.1270
 7173TIP3   OH242933   6.171   2.230   1.070 -0.0215  0.7688  0.1970
 7173TIP3    H142934   6.090   2.280   1.080 -0.5608  0.5041 -2.4696
 7173TIP3    H242935   6.152   2.168   0.999  2.9976  1.8109 -1.6158
 7174TIP3   OH242936   6.086   2.213  12.651 -0.4006 -0.5705  0.3342
 7174TIP3    H142937   6.037   2.136  12.683 -0.8668  0.4331  2.0841
 7174TIP3    H242938   6.177   2.185  12.653 -0.6575 -1.4695 -0.1331
 7175TIP3   OH242939   3.315   0.552  13.001 -0.9563 -0.1045 -0.4928
 7175TIP3    H142940   3.225   0.583  13.013 -1.1742 -0.0823 -2.0911
 7175TIP3    H242941   3.346   0.535  13.090 -1.3799  3.1120  0.3462
 7176TIP3   OH242942   3.968   2.692   1.991 -0.0236  0.7127  0.1581
 7176TIP3    H142943   3.878   2.664   2.004  0.3408 -1.1934 -1.1088
 7176TIP3    H242944   3.965   2.754   1.919 -0.2956  0.4947 -0.0153
 7177TIP3   OH242945   3.910   0.482  16.658  0.0890  0.2303  0.0403
 7177TIP3    H142946   3.943   0.420  16.593  0.5558  0.5509 -0.0258
 7177TIP3    H242947   3.832   0.440  16.693  0.8887 -0.7822  0.6083
 7178TIP3   OH242948   0.800   1.526  15.795  0.0828  0.5482  0.1405
 7178TIP3    H142949   0.762   1.613  15.784 -0.0555  0.3407 -1.1223
 7178TIP3    H242950   0.892   1.536  15.771 -0.8230 -0.4965 -4.1468
 7179TIP3   OH242951   5.101   4.899   1.643  0.0292 -0.7199  0.4874
 7179TIP3    H142952   5.130   4.914   1.733 -1.5100 -1.6820  1.1536
 7179TIP3    H242953   5.009   4.874   1.651  0.0470 -1.4227 -1.3061
 7180TIP3   OH242954   1.112   1.270  14.418 -0.2262  0.2081  0.2283
 7180TIP3    H142955   1.073   1.224  14.492  1.1088  0.3270  1.0269
 7180TIP3    H242956   1.079   1.359  14.425 -1.7055 -0.2494 -0.5149
 7181TIP3   OH242957   0.267   1.533   0.741 -0.1362  0.8122  0.4148
 7181TIP3    H142958   0.236   1.616   0.776 -0.1773  1.1078 -0.3126
 7181TIP3    H242959   0.323   1.557   0.667  2.7573  0.3413  2.3571
 7182TIP3   OH242960   5.650   4.436   3.349 -0.0852 -0.1200 -0.4848
 7182TIP3    H142961   5.623   4.528   3.341 -0.8671 -0.4807 -2.1580
 7182TIP3    H242962   5.576   4.386   3.313  0.4860 -1.3916  0.0818
 7183TIP3   OH242963   2.155   4.020  17.161  0.3692  0.0469  0.6762
 7183TIP3    H142964   2.205   3.974  17.094 -1.2070  0.8634 -1.0840
 7183TIP3    H242965   2.064   4.015  17.131  0.0263  3.3766  0.9825
 7184TIP3   OH242966   6.419   1.356  12.424 -0.1186  0.0735 -0.3303
 7184TIP3    H142967   6.335   1.338  12.466  0.4648 -1.3129  0.2771
 7184TIP3    H242968   6.434   1.449  12.439 -0.2520 -0.2562  1.9277
 7185TIP3   OH242969   0.320   2.807   1.451 -0.0941  0.2663  0.1077
 7185TIP3    H142970   0.251   2.812   1.385  0.2985 -1.1947 -0.4365
 7185TIP3    H242971   0.354   2.896   1.457  0.8414  0.1453 -2.7365
 7186TIP3   OH242972   3.945   1.053  15.878  0.0253 -0.2190  0.3593
 7186TIP3    H142973   3.908   1.136  15.849  1.2933  0.6856  1.2437
 7186TIP3    H242974   3.870   0.994  15.884 -1.0942  1.2139  0.9467
 7187TIP3   OH242975   3.424   2.725  11.577  0.0162  0.3992  0.0396
 7187TIP3    H142976   3.464   2.810  11.561  1.7311 -0.8236 -2.5728
 7187TIP3    H242977   3.446   2.673  11.499 -3.1157 -1.6516  0.4035
 7188TIP3   OH242978   4.949   0.499  11.173 -0.2640 -0.2703  0.0450
 7188TIP3    H142979   4.921   0.497  11.081 -0.5872  0.8818  0.1116
 7188TIP3    H242980   5.029   0.553  11.172 -0.9685  0.8119  0.6109
 7189TIP3   OH242981   2.192   5.637   3.147  0.0787 -0.2079  0.0098
 7189TIP3    H142982   2.184   5.640   3.242  1.1317 -1.2541  0.1326
 7189TIP3    H242983   2.187   5.545   3.125  0.8357 -0.0480 -0.8585
 7190TIP3   OH242984   3.560   5.906  12.210 -0.3516  0.0871 -0.6166
 7190TIP3    H142985   3.483   5.872  12.165 -0.0933 -1.9143  0.4188
 7190TIP3    H242986   3.627   5.838  12.198  0.4039  0.5598  0.8328
 7191TIP3   OH242987   5.208   4.389  12.703  0.5975  0.2732 -0.0743
 7191TIP3    H142988   5.191   4.295  12.711  0.2517  0.3415 -0.0291
 7191TIP3    H242989   5.275   4.395  12.634 -0.3626  0.0919 -1.0337
 7192TIP3   OH242990   1.053   6.649  13.889  0.5933  0.2015  0.2370
 7192TIP3    H142991   1.005   6.653  13.806  0.3823  0.4360  0.3696
 7192TIP3    H242992   1.047   6.738  13.924  0.3902  0.0192  0.6669
 7193TIP3   OH242993   5.682   4.976  17.076  0.3986  0.0879  0.2285
 7193TIP3    H142994   5.620   5.024  17.130  0.9299  1.3499 -0.2811
 7193TIP3    H242995   5.724   4.914  17.137 -1.2838 -0.7349  0.5890
 7194TIP3   OH242996   2.882   1.566   6.274  0.3770  0.2009 -0.1072
 7194TIP3    H142997   2.967   1.580   6.316  0.5870 -2.0842  0.3056
 7194TIP3    H242998   2.827   1.530   6.344 -0.3077 -0.3261 -0.9190
 7195TIP3   OH242999   6.177   3.437  15.114  0.1828  0.1199 -0.2878
 7195TIP3    H143000   6.249   3.498  15.133  2.1267 -2.2662  0.1879
 7195TIP3    H243001   6.175   3.432  15.018  1.9444 -1.2506 -0.2769
 7196TIP3   OH243002   0.950   2.673  13.940 -0.1429 -0.0320  0.2281
 7196TIP3    H143003   0.932   2.757  13.983  0.4941  2.3838 -3.9470
 7196TIP3    H243004   1.044   2.675  13.923 -0.5910 -0.2366 -2.4776
 7197TIP3   OH243005   3.926   4.040   2.325  0.5452  0.7640  0.5933
 7197TIP3    H143006   3.951   4.069   2.237  0.9115  0.9580  0.7567
 7197TIP3    H243007   3.980   3.962   2.340  1.5995  1.5949  1.2272
 7198TIP3   OH243008   6.192   1.794   5.423  0.1109 -0.0281 -0.0893
 7198TIP3    H143009   6.179   1.873   5.370  0.5307  0.8022  1.0120
 7198TIP3    H243010   6.114   1.789   5.478  0.0500 -0.4230 -0.2110
 7199TIP3   OH243011   1.832   6.769   0.366 -0.0265 -0.2509  0.0753
 7199TIP3    H143012   1.836   6.795   0.274 -1.8700  0.1375  0.0954
 7199TIP3    H243013   1.803   6.847   0.412 -1.1496 -1.0280  0.7173
 7200TIP3   OH243014   5.844   4.530   4.720  0.4724  0.2535  0.9459
 7200TIP3    H143015   5.793   4.469   4.667  1.2654  2.5397 -2.5789
 7200TIP3    H243016   5.872   4.478   4.796 -0.5179 -3.1835 -0.9444
 7201TIP3   OH243017   3.111   2.373  13.734  0.1489 -0.2635 -0.3820
 7201TIP3    H143018   3.089   2.282  13.717  1.7248 -1.1147  1.9533
 7201TIP3    H243019   3.104   2.415  13.648 -2.7639 -2.0703 -1.0948
 7202TIP3   OH243020   6.339   1.464   3.515  0.2102  0.0761  0.2029
 7202TIP3    H143021   6.254   1.508   3.513 -0.6744 -1.6181 -0.9219
 7202TIP3    H243022   6.402   1.531   3.488 -1.0693  0.7283 -1.2244
 7203TIP3   OH243023   5.136   3.168  14.869 -0.4588 -0.1346  0.0475
 7203TIP3    H143024   5.120   3.218  14.949  2.4301 -0.2918  0.7624
 7203TIP3    H243025   5.147   3.234  14.801  0.9297  0.1352  0.5261
 7204TIP3   OH243026   5.142   6.000  16.086  0.3438 -0.4785 -0.9817
 7204TIP3    H143027   5.152   6.095  16.093  0.5174 -0.6256  1.2340
 7204TIP3    H243028   5.228   5.970  16.056  0.6285 -0.0333 -0.6279
 7205TIP3   OH243029   6.110   0.190   0.783 -0.7657  0.2955  0.1415
 7205TIP3    H143030   6.177   0.127   0.758  0.2865  1.1030  0.8844
 7205TIP3    H243031   6.056   0.143   0.847 -1.1274 -0.4623 -0.7009
 7206TIP3   OH243032   5.586   1.722   1.306  0.0181 -0.6138  0.5476
 7206TIP3    H143033   5.511   1.697   1.253 -1.1272  0.1919  1.7790
 7206TIP3    H243034   5.549   1.754   1.388  1.5883  1.3910  0.5335
 7207TIP3   OH243035   2.811   2.761   3.676 -0.1087 -0.1071  0.4214
 7207TIP3    H143036   2.779   2.765   3.586 -0.3830  0.3661  0.5431
 7207TIP3    H243037   2.744   2.804   3.728  0.7584  0.9903  0.6598
 7208TIP3   OH243038   4.694   0.183  12.162  0.0808 -0.0531 -0.0021
 7208TIP3    H143039   4.756   0.235  12.110  1.2707 -1.9890 -0.6071
 7208TIP3    H243040   4.730   0.094  12.159 -1.0321 -0.6158  2.3170
 7209TIP3   OH243041   4.387   0.941  12.551 -0.1723  0.4732 -0.2284
 7209TIP3    H143042   4.344   0.963  12.634  0.4168 -0.7841  0.4202
 7209TIP3    H243043   4.453   0.876  12.574  1.3400  1.5374 -1.3872
 7210TIP3   OH243044   1.996   2.389  13.142  0.3400  0.0484 -0.2905
 7210TIP3    H143045   1.999   2.477  13.106  1.9552  0.5845  1.0933
 7210TIP3    H243046   2.082   2.351  13.119  0.0487 -0.8090 -0.0019
 7211TIP3   OH243047   0.024   4.599  13.445  0.1240  0.3474 -0.3063
 7211TIP3    H143048   0.094   4.581  13.507 -0.0096 -1.5122 -0.6636
 7211TIP3    H243049  -0.039   4.651  13.494  0.8655  0.4063  0.5860
 7212TIP3   OH243050   0.679   6.503   3.544  0.1012 -0.1122  0.1512
 7212TIP3    H143051   0.640   6.548   3.619 -1.2144  0.0473 -0.6157
 7212TIP3    H243052   0.604   6.467   3.496  0.8503  0.6095 -1.6133
 7213TIP3   OH243053   4.983   2.903  11.013 -0.6324 -0.6081 -0.4673
 7213TIP3    H143054   5.000   2.828  11.071 -0.4476 -1.2382 -1.3352
 7213TIP3    H243055   4.903   2.879  10.965 -0.9193  0.0170 -0.3104
 7214TIP3   OH243056   1.029   1.261   1.602  0.0267  0.2828 -0.5641
 7214TIP3    H143057   0.987   1.338   1.641  0.2740  1.7297 -3.0392
 7214TIP3    H243058   1.080   1.296   1.529  1.4325 -2.0583 -0.7607
 7215TIP3   OH243059   5.944   1.663   5.903 -1.0991  0.6957 -0.7756
 7215TIP3    H143060   5.854   1.635   5.922 -0.0974 -1.9329  0.2661
 7215TIP3    H243061   5.975   1.703   5.985 -0.5390 -0.5135 -0.3944
 7216TIP3   OH243062   0.111   5.804   3.497 -0.4072  0.3387 -0.5404
 7216TIP3    H143063   0.163   5.747   3.440  1.7641  3.8651 -2.1965
 7216TIP3    H243064   0.073   5.869   3.439 -1.4279  1.6332  1.5070
 7217TIP3   OH243065   6.264   4.907  11.472 -0.0178 -0.5909 -0.4634
 7217TIP3    H143066   6.279   4.983  11.415  0.6833  0.2263  0.7821
 7217TIP3    H243067   6.168   4.902  11.480 -0.0879 -0.1735 -0.9845
 7218TIP3   OH243068   3.567   2.828  13.152  0.1384 -0.1222  0.3340
 7218TIP3    H143069   3.662   2.842  13.153 -0.1718  2.9888 -3.0881
 7218TIP3    H243070   3.537   2.859  13.237  2.1322 -0.9071  1.3646
 7219TIP3   OH243071   2.940   4.641  13.603  0.3866  0.7848  0.1298
 7219TIP3    H143072   3.003   4.692  13.654  1.2088  1.6954 -1.7463
 7219TIP3    H243073   2.855   4.675  13.630  0.8971  2.7171 -0.5767
 7220TIP3   OH243074   3.794   1.454  16.798  0.5098 -0.3595  0.4766
 7220TIP3    H143075   3.813   1.522  16.734 -0.1220 -0.3574  0.2884
 7220TIP3    H243076   3.777   1.376  16.745 -0.6519 -0.2057  0.6100
 7221TIP3   OH243077   2.215   5.212   1.554 -0.3385  0.7743 -0.3600
 7221TIP3    H143078   2.252   5.284   1.502 -0.1714  1.0848  0.1941
 7221TIP3    H243079   2.131   5.245   1.585 -0.3812  0.6297 -0.3198
 7222TIP3   OH243080   4.556   2.851  10.999  0.1157  0.3703 -0.1075
 7222TIP3    H143081   4.616   2.811  10.937  0.3329  2.4586 -1.2910
 7222TIP3    H243082   4.611   2.909  11.052 -0.0973 -1.2360  1.9370
 7223TIP3   OH243083   6.522   4.205   1.584  0.2885  0.1132  0.1122
 7223TIP3    H143084   6.540   4.128   1.530  0.9753 -0.0586  0.5857
 7223TIP3    H243085   6.562   4.185   1.668  1.0217  1.2498  0.0397
 7224TIP3   OH243086   0.015   0.866  15.334 -0.0563  0.3115  0.0635
 7224TIP3    H143087  -0.039   0.810  15.390  0.2395  0.5989  0.6379
 7224TIP3    H243088   0.080   0.806  15.297 -1.0088 -0.1174 -0.9578
 7225TIP3   OH243089   2.855   3.821   5.834 -0.2431  0.0209 -0.0326
 7225TIP3    H143090   2.838   3.813   5.928 -1.7113  1.3951 -0.1492
 7225TIP3    H243091   2.837   3.734   5.798 -2.2486  0.1269  0.6142
 7226TIP3   OH243092   6.056   6.308   2.608 -0.0747  0.1313  0.2600
 7226TIP3    H143093   6.092   6.334   2.693 -1.1769  0.8705  0.5164
 7226TIP3    H243094   6.057   6.389   2.557 -1.4706  0.1833  0.3109
 7227TIP3   OH243095   4.790   6.299  16.496 -0.7482 -0.2157  0.6120
 7227TIP3    H143096   4.840   6.218  16.506 -0.9231 -0.2400  1.3218
 7227TIP3    H243097   4.714   6.288  16.553 -0.9333  0.3260  0.4782
 7228TIP3   OH243098   0.913   1.962  15.031  0.0925  0.0658 -0.0006
 7228TIP3    H143099   0.956   2.026  15.087 -0.6491 -0.4254  1.1434
 7228TIP3    H243100   0.956   1.879  15.052  0.1520 -0.0382 -0.5266
 7229TIP3   OH243101   3.745   3.010   5.465  0.5358 -0.3857  0.0230
 7229TIP3    H143102   3.650   3.023   5.473  0.7025  2.2954 -1.6890
 7229TIP3    H243103   3.769   2.961   5.544 -2.2224 -0.8375  0.6445
 7230TIP3   OH243104   1.441   1.155   4.436  0.3284 -0.5735  0.0082
 7230TIP3    H143105   1.483   1.232   4.474  1.0908 -0.8452 -0.2622
 7230TIP3    H243106   1.381   1.124   4.504 -0.5383  0.6830 -0.1721
 7231TIP3   OH243107   5.819   1.786   1.683  0.4558 -0.3665  0.0787
 7231TIP3    H143108   5.914   1.798   1.681  0.4313 -0.2977 -1.5224
 7231TIP3    H243109   5.807   1.693   1.665  0.2545 -0.6330  1.5408
 7232TIP3   OH243110   1.324   0.248  13.446  0.0095  0.4175 -0.3901
 7232TIP3    H143111   1.327   0.210  13.534 -1.5265  0.1935 -0.4103
 7232TIP3    H243112   1.232   0.274  13.435 -0.1374 -0.9239 -2.5052
 7233TIP3   OH243113   3.769   3.081   0.837  0.2184  0.3637 -0.1090
 7233TIP3    H143114   3.726   3.132   0.768 -0.5374 -0.5837 -0.3482
 7233TIP3    H243115   3.714   3.003   0.846  1.9935 -0.9570 -0.5454
 7234TIP3   OH243116   5.912   6.017  11.966  0.5598  0.0501 -0.0808
 7234TIP3    H143117   5.971   6.016  11.891 -1.1466 -0.4570 -1.4408
 7234TIP3    H243118   5.876   6.105  11.968  1.3269  0.3472  0.7226
 7235TIP3   OH243119   3.624   6.687  13.269 -0.6759  0.2074 -0.3859
 7235TIP3    H143120   3.626   6.605  13.317 -0.4196  1.3328  1.5492
 7235TIP3    H243121   3.709   6.691  13.224  0.4904  0.7558  1.8194
 7236TIP3   OH243122   1.545   0.463  13.315  0.4641 -0.0939  0.1136
 7236TIP3    H143123   1.504   0.403  13.251  0.5672  0.4864 -0.4987
 7236TIP3    H243124   1.571   0.406  13.387 -1.8048 -0.4284  0.7072
 7237TIP3   OH243125   3.652   6.741   4.416  0.1720  0.0132 -0.1189
 7237TIP3    H143126   3.655   6.779   4.328 -2.6687  1.3291  0.2742
 7237TIP3    H243127   3.711   6.797   4.468 -2.2674  2.6419 -0.0482
 7238TIP3   OH243128   4.556   4.818   4.015 -0.1119 -0.0152 -0.2249
 7238TIP3    H143129   4.493   4.792   3.949 -1.4902 -2.5923  2.0210
 7238TIP3    H243130   4.635   4.842   3.965 -1.4873 -0.7492 -2.8179
 7239TIP3   OH243131   4.725   0.084  13.424  0.4423  0.3040 -0.1200
 7239TIP3    H143132   4.811   0.075  13.466  0.4327 -1.1713 -0.4229
 7239TIP3    H243133   4.738   0.054  13.334 -0.1241  1.1704 -0.4973
 7240TIP3   OH243134   0.766   5.498  13.759  0.7371  0.0573 -0.3578
 7240TIP3    H143135   0.766   5.485  13.854 -0.0364 -1.4363 -0.5370
 7240TIP3    H243136   0.859   5.506  13.735  1.1202 -2.1826  0.2222
 7241TIP3   OH243137   2.258   4.871  13.625 -0.5421  0.0385  0.0615
 7241TIP3    H143138   2.315   4.794  13.625 -0.3787  0.1519 -0.8840
 7241TIP3    H243139   2.179   4.843  13.579 -0.6205  0.3309  0.0146
 7242TIP3   OH243140   3.249   1.265   2.764 -0.5449  0.2923  0.4133
 7242TIP3    H143141   3.331   1.314   2.776 -0.7815  0.3482  1.9559
 7242TIP3    H243142   3.250   1.238   2.672  0.7931  1.0334  0.1953
 7243TIP3   OH243143   0.627   6.128  12.060 -0.2784  0.0591  0.3716
 7243TIP3    H143144   0.543   6.084  12.072 -0.6434  0.4379 -0.7566
 7243TIP3    H243145   0.683   6.063  12.018  0.0723 -0.2636  1.3133
 7244TIP3   OH243146   3.873   6.582   4.099  0.1380 -0.4407  0.3537
 7244TIP3    H143147   3.964   6.581   4.129  0.3965 -2.0872 -0.3910
 7244TIP3    H243148   3.876   6.623   4.013 -0.3806  2.8624  1.8508
 7245TIP3   OH243149   6.028   3.752  16.605  0.4759 -0.1046 -0.1521
 7245TIP3    H143150   6.028   3.704  16.522  1.2215 -0.0970 -0.1576
 7245TIP3    H243151   6.019   3.844  16.579 -0.8924 -0.2262 -0.1421
 7246TIP3   OH243152   5.117   0.400   4.101  0.0454 -0.4240 -0.1877
 7246TIP3    H143153   5.047   0.400   4.036 -0.2056  2.0292  0.0241
 7246TIP3    H243154   5.195   0.426   4.052  0.1564 -0.0184  0.2026
 7247TIP3   OH243155   6.467   3.758   1.370 -0.4723  0.0512 -0.4491
 7247TIP3    H143156   6.478   3.684   1.309 -1.7711 -1.2188  0.8035
 7247TIP3    H243157   6.375   3.782   1.362 -0.3988  0.5744  0.2205
 7248TIP3   OH243158   3.459   6.695   2.277  0.1134 -0.2742 -0.2809
 7248TIP3    H143159   3.507   6.714   2.197  2.2067 -0.6788  0.8346
 7248TIP3    H243160   3.502   6.750   2.343 -2.4362  1.0632  0.3152
 7249TIP3   OH243161   1.351   1.815   5.359  0.2090  0.1882  0.2823
 7249TIP3    H143162   1.438   1.846   5.337 -0.6476  2.2119 -0.3019
 7249TIP3    H243163   1.308   1.800   5.274  0.5422 -2.4527  0.5439
 7250TIP3   OH243164   3.485   2.232  12.337  0.2699  0.1971  0.0393
 7250TIP3    H143165   3.484   2.293  12.410 -0.9128  1.0227 -0.6544
 7250TIP3    H243166   3.573   2.194  12.338  1.1054  2.1222  0.2900
 7251TIP3   OH243167   1.113   0.219   6.149 -0.0858  0.6633 -0.0245
 7251TIP3    H143168   1.151   0.302   6.177 -0.3136  1.4704 -2.0428
 7251TIP3    H243169   1.033   0.243   6.101 -0.5183 -0.7429 -0.0471
 7252TIP3   OH243170   5.387   1.452  16.406  0.0458  0.3155  0.1784
 7252TIP3    H143171   5.411   1.367  16.368  2.2377  1.3145 -0.7108
 7252TIP3    H243172   5.314   1.483  16.352  1.1888  0.3549 -1.3555
 7253TIP3   OH243173   3.416   1.930   6.522  0.3765 -0.9134  0.5254
 7253TIP3    H143174   3.458   1.848   6.548  3.3279  0.3080 -0.1344
 7253TIP3    H243175   3.405   1.978   6.604  3.1329 -0.0217  0.4429
 7254TIP3   OH243176   5.915   0.471  14.250 -0.2064 -0.2847 -0.2335
 7254TIP3    H143177   5.869   0.401  14.203 -0.9549 -1.2518  1.8726
 7254TIP3    H243178   5.983   0.425  14.299 -0.3438  0.5465  0.7384
 7255TIP3   OH243179   2.530   2.334   1.507 -0.0428 -0.0210 -0.6672
 7255TIP3    H143180   2.613   2.371   1.539 -0.3960 -0.3757  0.7106
 7255TIP3    H243181   2.485   2.408   1.466 -0.8092  1.1909  2.1804
 7256TIP3   OH243182   3.379   4.498   1.714  0.1839 -0.9048 -0.2550
 7256TIP3    H143183   3.328   4.417   1.721  1.4918 -1.8656 -1.4822
 7256TIP3    H243184   3.364   4.543   1.796 -1.3484 -1.9369  0.0519
 7257TIP3   OH243185   3.091   3.323   1.043  0.5660 -0.2302  0.6363
 7257TIP3    H143186   3.004   3.283   1.052  0.2027  1.0538  3.1795
 7257TIP3    H243187   3.150   3.261   1.085  0.6741 -0.4103  0.2163
 7258TIP3   OH243188   6.327   0.541  17.024 -0.6441  0.0322 -0.0928
 7258TIP3    H143189   6.352   0.633  17.025 -0.9819  0.1434 -1.8536
 7258TIP3    H243190   6.410   0.494  17.030 -0.5152  0.4218  1.7352
 7259TIP3   OH243191   1.365   3.216  16.441  0.0847  0.2525 -0.2694
 7259TIP3    H143192   1.380   3.305  16.410 -0.7298  0.5352  0.1220
 7259TIP3    H243193   1.300   3.225  16.511 -0.4375 -0.6951 -0.6073
 7260TIP3   OH243194   5.750   1.128   3.738 -0.3813  0.2618 -0.6565
 7260TIP3    H143195   5.775   1.038   3.715 -2.2220 -0.1204 -1.2376
 7260TIP3    H243196   5.715   1.120   3.827  1.4844  0.7991  0.1587
 7261TIP3   OH243197   4.559   0.940   4.930 -0.0616  0.0747 -0.2138
 7261TIP3    H143198   4.623   0.877   4.896 -0.2257 -1.3620  2.0903
 7261TIP3    H243199   4.475   0.895   4.925 -0.4660  0.8490 -0.4162
 7262TIP3   OH243200   6.375   0.676  12.258 -0.2000 -0.0863  1.1529
 7262TIP3    H143201   6.344   0.756  12.301  0.9351  1.7336 -1.2595
 7262TIP3    H243202   6.470   0.680  12.267 -0.2066 -1.7742  2.0175
 7263TIP3   OH243203   5.797   1.588   3.856  0.4650  0.2991  0.1328
 7263TIP3    H143204   5.755   1.593   3.770 -0.8789  0.5962  0.7907
 7263TIP3    H243205   5.771   1.503   3.892  1.0101  0.1809  0.2584
 7264TIP3   OH243206   1.746   0.332   3.830 -0.1581 -0.4201 -0.6049
 7264TIP3    H143207   1.810   0.403   3.823 -0.3106 -0.3403 -1.1594
 7264TIP3    H243208   1.780   0.263   3.774  1.7832 -2.1544  2.5398
 7265TIP3   OH243209   1.574   3.827   1.453  0.6818 -0.7999  0.3576
 7265TIP3    H143210   1.620   3.798   1.374 -2.1248  0.3886 -1.7740
 7265TIP3    H243211   1.566   3.747   1.506  0.0355 -2.2870 -1.8971
 7266TIP3   OH243212   6.733   4.665  12.174  0.1229  0.1955 -0.3171
 7266TIP3    H143213   6.720   4.614  12.094 -1.6130  1.5445 -0.9377
 7266TIP3    H243214   6.717   4.755  12.147 -0.4717  0.6654  1.5457
 7267TIP3   OH243215   2.111   5.291  16.919  0.2714  0.4231 -0.1834
 7267TIP3    H143216   2.085   5.367  16.867 -0.9303  0.0641 -0.1080
 7267TIP3    H243217   2.205   5.282  16.902 -0.1617  0.0639 -2.6014
 7268TIP3   OH243218   4.223   3.144   1.538  0.4977 -0.3375  0.3316
 7268TIP3    H143219   4.135   3.111   1.555 -1.0084  3.3148  0.1775
 7268TIP3    H243220   4.240   3.121   1.447 -0.7303 -0.2450  0.0642
 7269TIP3   OH243221   5.004   5.295  11.059  0.4937  0.1487  0.4698
 7269TIP3    H143222   5.071   5.362  11.047 -1.6002  1.9841 -1.5136
 7269TIP3    H243223   4.922   5.344  11.069 -0.7670 -2.0585  1.3832
 7270TIP3   OH243224   0.157   5.233  15.398 -0.7518 -0.1239  0.8727
 7270TIP3    H143225   0.082   5.289  15.417 -0.0891  1.3611 -0.7544
 7270TIP3    H243226   0.147   5.211  15.305  0.4842 -0.4262  0.8061
 7271TIP3   OH243227   2.900   1.408   0.647  0.0199  0.1686 -0.3928
 7271TIP3    H143228   2.842   1.484   0.643 -0.3489 -0.0117  1.3203
 7271TIP3    H243229   2.958   1.426   0.721  1.1446 -0.3726 -1.1294
 7272TIP3   OH243230   3.071   6.228  17.229  0.1729 -0.2796 -0.6761
 7272TIP3    H143231   3.161   6.258  17.219  0.1724 -0.2448 -0.5791
 7272TIP3    H243232   3.038   6.219  17.140 -0.2468  1.2484 -0.6899
 7273TIP3   OH243233   1.165   5.944  14.369  0.3001  0.2337 -0.4191
 7273TIP3    H143234   1.194   5.891  14.443  0.2711  1.7525  0.7169
 7273TIP3    H243235   1.245   5.988  14.339  0.0806  0.5779 -0.4992
 7274TIP3   OH243236   1.095   1.446  12.531  0.1840  0.1208 -0.4597
 7274TIP3    H143237   1.187   1.447  12.504 -0.0823 -0.3337 -1.4097
 7274TIP3    H243238   1.074   1.353  12.544 -0.3278  0.1705 -0.9110
 7275TIP3   OH243239   4.782   2.916  13.473 -0.0010  0.3151 -0.1204
 7275TIP3    H143240   4.853   2.862  13.439 -0.1172 -0.0433  0.1996
 7275TIP3    H243241   4.812   2.943  13.560  0.0882  0.8308 -0.3095
 7276TIP3   OH243242   4.446   3.606  16.085  0.2297  0.4985 -0.3345
 7276TIP3    H143243   4.410   3.523  16.117  1.6129  0.0829  0.1731
 7276TIP3    H243244   4.456   3.594  15.991  0.6997 -0.0153 -0.2192
 7277TIP3   OH243245   5.474   4.235  13.453  0.3912  0.4279  0.4011
 7277TIP3    H143246   5.492   4.257  13.361 -2.3987  2.6135  0.2857
 7277TIP3    H243247   5.559   4.237  13.495  1.7483 -0.7010 -2.1489
 7278TIP3   OH243248   2.704   2.818   5.926  0.1562 -0.0907  0.3873
 7278TIP3    H143249   2.623   2.810   5.875  0.7163  1.0837 -0.7323
 7278TIP3    H243250   2.682   2.783   6.012 -0.9956 -1.5310 -0.4781
 7279TIP3   OH243251   4.582   1.808  15.267 -0.3653  0.4349 -0.0330
 7279TIP3    H143252   4.547   1.746  15.331  0.2401  0.5101  0.3713
 7279TIP3    H243253   4.670   1.827  15.297 -0.9537  2.4345  0.5130
 7280TIP3   OH243254   1.687   6.042   5.729  0.3802 -0.0586  0.2742
 7280TIP3    H143255   1.635   6.011   5.655  1.2336  1.5564 -1.0230
 7280TIP3    H243256   1.640   6.009   5.806 -0.7400 -1.4144 -0.9590
 7281TIP3   OH243257   3.826   6.216   3.756 -0.2962  0.1793  0.1949
 7281TIP3    H143258   3.834   6.272   3.833 -0.6636  0.3384  0.1213
 7281TIP3    H243259   3.777   6.139   3.787  1.0337 -0.5512  0.5253
 7282TIP3   OH243260   0.011   1.877  12.230  0.3152  0.0445  0.1862
 7282TIP3    H143261   0.035   1.953  12.176 -0.1479  1.9551  2.5916
 7282TIP3    H243262   0.080   1.871  12.296  0.5837 -1.9449 -0.2404
 7283TIP3   OH243263   5.301   1.402   3.922 -0.7676 -0.1839  0.2905
 7283TIP3    H143264   5.223   1.421   3.870 -0.4801  0.7232  0.1793
 7283TIP3    H243265   5.298   1.465   3.994  1.0452  1.3994 -0.9580
 7284TIP3   OH243266   6.655   5.587   3.868 -0.0449  0.2186 -0.3054
 7284TIP3    H143267   6.739   5.626   3.847  0.8814 -1.6731 -0.2611
 7284TIP3    H243268   6.600   5.660   3.896  1.4839  1.5085 -0.6365
 7285TIP3   OH243269   3.566   6.699   0.234 -0.4490 -0.0579 -0.4340
 7285TIP3    H143270   3.560   6.784   0.277  0.6295 -0.1094 -0.1744
 7285TIP3    H243271   3.606   6.641   0.299 -4.3649 -1.7005  0.6892
 7286TIP3   OH243272   4.962   6.297   4.936  0.5673 -0.4250 -0.5480
 7286TIP3    H143273   4.914   6.215   4.944  0.4096 -0.2423  0.5548
 7286TIP3    H243274   5.053   6.274   4.953  0.3899 -0.2284  0.7743
 7287TIP3   OH243275   0.734   0.147   0.931 -0.4203 -0.9016 -0.3519
 7287TIP3    H143276   0.663   0.086   0.913 -1.0437 -0.1806 -0.3470
 7287TIP3    H243277   0.777   0.112   1.009 -0.3489 -1.7068 -0.7517
 7288TIP3   OH243278   2.537   4.386  13.519  0.1424 -0.1648 -0.0499
 7288TIP3    H143279   2.552   4.292  13.531 -0.4567 -0.5395 -2.0298
 7288TIP3    H243280   2.582   4.407  13.438 -0.6356  1.0363 -0.1850
 7289TIP3   OH243281   0.153   0.760   3.638  0.1058 -0.1019  0.0728
 7289TIP3    H143282   0.185   0.729   3.553 -2.9644 -1.7013 -0.5735
 7289TIP3    H243283   0.077   0.814   3.617  0.9351  1.7369  1.6730
 7290TIP3   OH243284   1.294   1.277  14.683 -0.1030 -0.2005 -0.1527
 7290TIP3    H143285   1.249   1.292  14.600  3.0486  0.9794 -1.6970
 7290TIP3    H243286   1.378   1.322  14.674  1.2404 -1.9569  2.8063
 7291TIP3   OH243287   0.801   3.550   3.596 -0.6145  0.6796  0.6290
 7291TIP3    H143288   0.796   3.455   3.590  0.6452  0.4888  2.3445
 7291TIP3    H243289   0.737   3.581   3.531 -0.0847 -1.3018 -0.9127
 7292TIP3   OH243290   3.272   2.227   5.518 -0.3314 -0.4858  0.2233
 7292TIP3    H143291   3.258   2.321   5.506  0.2495 -0.1333  2.2072
 7292TIP3    H243292   3.363   2.213   5.491  0.2618 -0.0875  1.9675
 7293TIP3   OH243293   1.248   0.671   1.885 -0.4487 -0.0627 -0.1912
 7293TIP3    H143294   1.330   0.688   1.930 -0.2739 -0.9674 -0.1591
 7293TIP3    H243295   1.271   0.610   1.815 -1.6024 -2.7986  1.7236
 7294TIP3   OH243296   2.471   3.987   3.171  0.2613 -0.3197  0.1719
 7294TIP3    H143297   2.529   3.976   3.096 -0.0892  2.0576 -0.4743
 7294TIP3    H243298   2.509   4.059   3.221 -1.7030  0.7632  0.1448
 7295TIP3   OH243299   5.545   4.974  11.215  0.1857  0.3698 -0.4780
 7295TIP3    H143300   5.582   4.887  11.196  0.3074  0.3829 -0.3034
 7295TIP3    H243301   5.551   5.021  11.132  1.6034  0.7501 -0.1615
 7296TIP3   OH243302   0.954   4.320  14.154  0.1209  0.4328  0.8405
 7296TIP3    H143303   0.939   4.247  14.094  1.5978  1.7587 -1.1877
 7296TIP3    H243304   0.868   4.361  14.164 -0.0185  0.6118 -0.9543
 7297TIP3   OH243305   2.782   1.468  15.835 -0.3236  0.1182  0.6874
 7297TIP3    H143306   2.722   1.523  15.885 -1.3129  0.6186 -1.0283
 7297TIP3    H243307   2.859   1.524  15.820 -1.7313  1.4310 -1.9153
 7298TIP3   OH243308   2.025   0.724  14.394 -0.2519  0.1778  0.4720
 7298TIP3    H143309   1.953   0.752  14.339 -1.5162  0.3080  2.1436
 7298TIP3    H243310   2.026   0.787  14.467  2.3640  0.9556 -0.1638
 7299TIP3   OH243311   1.936   4.566  12.073  0.0800  0.1745 -0.3791
 7299TIP3    H143312   1.914   4.489  12.021 -0.5346  0.0833  0.0051
 7299TIP3    H243313   1.893   4.639  12.028  1.3021  0.4079 -1.1735
 7300TIP3   OH243314   6.566   4.830  13.929 -0.1554 -0.0668 -0.6089
 7300TIP3    H143315   6.513   4.905  13.952  0.0232 -0.1246 -0.0010
 7300TIP3    H243316   6.553   4.819  13.835 -0.1243  0.7651 -0.7128
 7301TIP3   OH243317   5.552   1.000  11.093  0.8568  0.1109 -0.0610
 7301TIP3    H143318   5.579   1.039  11.009  1.3898 -0.9568 -0.3999
 7301TIP3    H243319   5.501   0.923  11.068  1.0215 -0.2162  0.6081
 7302TIP3   OH243320   4.288   2.031   6.129  0.6605  0.5086 -0.2059
 7302TIP3    H143321   4.380   2.010   6.109  0.4705  0.5680 -1.1514
 7302TIP3    H243322   4.265   2.099   6.066  0.2124  1.0854  0.5772
 7303TIP3   OH243323   5.272   0.423   4.735 -0.0799  0.0657  0.3387
 7303TIP3    H143324   5.293   0.421   4.828 -0.6500  1.4421  0.4967
 7303TIP3    H243325   5.305   0.339   4.702  0.2085 -0.3911  1.7504
 7304TIP3   OH243326   3.288   2.140   0.993 -0.6399  0.4581  0.0408
 7304TIP3    H143327   3.218   2.179   0.941 -1.0388 -0.2959  0.0003
 7304TIP3    H243328   3.256   2.145   1.083 -0.8976 -0.1825 -0.0105
 7305TIP3   OH243329   6.529   5.678  13.363  0.3357  0.2995  0.0491
 7305TIP3    H143330   6.505   5.771  13.355  1.6805  0.5486 -1.3454
 7305TIP3    H243331   6.515   5.658  13.456 -0.0378  1.8912  0.3510
 7306TIP3   OH243332   4.131   3.704  15.660 -0.1068  0.3594  0.1395
 7306TIP3    H143333   4.224   3.724  15.674  0.2871 -0.7031 -0.9074
 7306TIP3    H243334   4.125   3.610  15.677 -0.5465 -0.0261 -2.0311
 7307TIP3   OH243335   2.278   2.440  17.100 -0.4290  0.1932 -0.5455
 7307TIP3    H143336   2.301   2.347  17.103  0.0384  0.2911 -1.0192
 7307TIP3    H243337   2.226   2.454  17.180  2.0636  0.2112  1.1140
 7308TIP3   OH243338   5.742   4.111   3.598  0.0768  0.4076  0.1971
 7308TIP3    H143339   5.825   4.076   3.632 -0.5746 -1.1175  0.2698
 7308TIP3    H243340   5.675   4.067   3.649 -0.8537 -0.4807 -1.7387
 7309TIP3   OH243341   3.223   0.927   1.691 -0.6007  0.3849 -0.0273
 7309TIP3    H143342   3.247   1.019   1.699 -0.1341  0.2811 -0.1860
 7309TIP3    H243343   3.180   0.920   1.605 -1.7315  0.6823  0.5106
 7310TIP3   OH243344   2.193   0.090  16.711 -0.0464 -0.5139 -0.5577
 7310TIP3    H143345   2.124   0.081  16.645 -0.1166  2.0435 -0.8627
 7310TIP3    H243346   2.275   0.084  16.661 -0.0486 -1.8452 -0.4195
 7311TIP3   OH243347   2.234   2.985   1.458 -0.0578  0.0010 -0.8837
 7311TIP3    H143348   2.260   3.073   1.488 -0.5229 -0.0219 -0.4053
 7311TIP3    H243349   2.314   2.933   1.466 -0.4788 -0.3477  1.6659
 7312TIP3   OH243350   0.573   0.094  14.546  0.3474  0.0217 -0.2508
 7312TIP3    H143351   0.645   0.156  14.561 -0.2728  0.2445  2.0859
 7312TIP3    H243352   0.550   0.063  14.634 -1.5739 -0.9916 -1.0790
 7313TIP3   OH243353   0.133   3.678  15.903  0.1845 -0.2809 -0.1355
 7313TIP3    H143354   0.195   3.751  15.899 -0.8997  0.6266 -1.0504
 7313TIP3    H243355   0.075   3.693  15.828 -0.3340 -1.8369 -0.0549
 7314TIP3   OH243356   1.850   0.356  15.827  0.3760  0.9922 -0.2033
 7314TIP3    H143357   1.928   0.401  15.796  0.4302  0.7479 -0.4107
 7314TIP3    H243358   1.812   0.316  15.749  0.1842  0.8939 -0.0585
 7315TIP3   OH243359   1.811   4.986   2.789 -0.2560  0.6378  0.0057
 7315TIP3    H143360   1.739   5.046   2.808  0.8534  1.7360  0.8070
 7315TIP3    H243361   1.824   4.994   2.694 -0.6535  1.0474 -0.0153
 7316TIP3   OH243362   6.166   6.154  13.247  0.0784 -0.1936 -0.2060
 7316TIP3    H143363   6.124   6.077  13.283 -2.6734  1.0653 -0.6045
 7316TIP3    H243364   6.153   6.146  13.152  2.1179 -0.5370 -0.4885
 7317TIP3   OH243365   2.413   3.881  11.975 -0.2695  0.4989  0.4376
 7317TIP3    H143366   2.490   3.844  11.931  0.6855  2.2455  0.5970
 7317TIP3    H243367   2.448   3.919  12.055 -0.9000  3.4111 -0.6202
 7318TIP3   OH243368   1.740   3.515   5.868  0.1835  0.3308  0.0917
 7318TIP3    H143369   1.770   3.562   5.947 -1.4359  1.5288  0.0241
 7318TIP3    H243370   1.645   3.516   5.875  0.0684 -0.6918 -1.2461
 7319TIP3   OH243371   6.272   6.617  11.276  0.3578  0.2795 -0.5967
 7319TIP3    H143372   6.247   6.612  11.368  0.2794 -1.5119 -0.7076
 7319TIP3    H243373   6.191   6.602  11.228  0.5790  0.2391 -0.9618
 7320TIP3   OH243374   3.147   6.501  17.144  0.7077  0.9440 -0.1348
 7320TIP3    H143375   3.081   6.514  17.212 -0.4534 -0.2971 -0.9760
 7320TIP3    H243376   3.230   6.515  17.187  0.1030 -1.6249  2.0350
 7321TIP3   OH243377   6.649   4.945  16.119  0.0780 -1.0961  0.4681
 7321TIP3    H143378   6.585   4.928  16.187  0.6602 -1.3580  0.9506
 7321TIP3    H243379   6.734   4.931  16.161  0.4682 -0.2492 -0.0279
 7322TIP3   OH243380   2.603   1.521   3.604  0.4738  0.6130  1.0130
 7322TIP3    H143381   2.672   1.525   3.537  0.9109 -0.6131  1.3653
 7322TIP3    H243382   2.561   1.606   3.600  1.1022  0.8884 -0.1855
 7323TIP3   OH243383   5.268   5.499   1.291 -0.3222  0.5217  0.3067
 7323TIP3    H143384   5.285   5.423   1.235  1.1133  0.0423  1.3586
 7323TIP3    H243385   5.211   5.555   1.238 -0.1078 -0.5429 -1.0992
 7324TIP3   OH243386   0.977   3.174   1.644  0.2319  0.1435 -0.0495
 7324TIP3    H143387   0.991   3.251   1.589 -1.4835  0.5331  0.0357
 7324TIP3    H243388   0.993   3.205   1.734 -1.0656  0.5588  0.0398
 7325TIP3   OH243389   4.203   5.803  15.587  0.0193  0.2290  0.3265
 7325TIP3    H143390   4.236   5.854  15.513  0.0780  0.0043  0.1955
 7325TIP3    H243391   4.281   5.764  15.626  0.1728  1.7114  1.5433
 7326TIP3   OH243392   3.065   1.937  13.841  0.2429  0.2533  0.2135
 7326TIP3    H143393   3.062   1.843  13.859  1.2695 -0.0349 -1.0698
 7326TIP3    H243394   2.978   1.957  13.807  0.6742 -0.6539 -1.4751
 7327TIP3   OH243395   2.963   2.703  11.872 -0.3461 -0.1370  0.0698
 7327TIP3    H143396   3.026   2.733  11.806 -0.1463 -0.4437  0.1216
 7327TIP3    H243397   3.015   2.689  11.951 -1.1745  3.9681  1.4401
 7328TIP3   OH243398   5.162   1.743  13.642  0.4203  0.2767 -0.1922
 7328TIP3    H143399   5.143   1.776  13.554 -0.7885  1.4100  0.4851
 7328TIP3    H243400   5.220   1.809  13.680 -0.7061  0.8377  0.5856
 7329TIP3   OH243401   6.224   4.777  16.071 -0.3774 -0.9741 -0.3578
 7329TIP3    H143402   6.200   4.836  16.143  2.9952  1.4026 -1.0584
 7329TIP3    H243403   6.156   4.790  16.006 -1.0860  0.1827  0.5945
 7330TIP3   OH243404   0.523   2.456   4.326  0.1205 -0.2175  0.4458
 7330TIP3    H143405   0.610   2.488   4.305  0.4254 -0.8862  0.6778
 7330TIP3    H243406   0.525   2.363   4.301 -1.1105  0.1907 -1.3262
 7331TIP3   OH243407   1.228   4.797   1.502 -0.2559  0.3039 -0.7721
 7331TIP3    H143408   1.245   4.877   1.552 -0.0099  0.2429 -0.7610
 7331TIP3    H243409   1.137   4.774   1.525  0.1271 -0.1766  0.2888
 7332TIP3   OH243410   0.164   3.050  13.063 -0.5077 -0.0871 -0.1152
 7332TIP3    H143411   0.080   3.087  13.036 -0.7619 -1.1353 -0.7868
 7332TIP3    H243412   0.145   2.959  13.084  0.5395 -0.4508 -0.6995
 7333TIP3   OH243413   3.554   1.952   5.662 -0.1771  0.3038  0.2381
 7333TIP3    H143414   3.582   1.932   5.572 -1.0115  1.3110 -0.2524
 7333TIP3    H243415   3.630   1.930   5.716  0.5189  0.1897 -0.7747
 7334TIP3   OH243416   3.603   6.122  13.279  0.2862 -0.1088 -0.1540
 7334TIP3    H143417   3.549   6.197  13.255  1.6204  0.9629  0.1025
 7334TIP3    H243418   3.570   6.094  13.364  1.1074  1.4987  0.7106
 7335TIP3   OH243419   1.628   4.278  12.169  0.3256 -0.2056  0.2006
 7335TIP3    H143420   1.626   4.183  12.156 -0.5466 -0.4639  2.0444
 7335TIP3    H243421   1.701   4.308  12.115 -0.0156 -1.7827 -1.1990
 7336TIP3   OH243422   6.697   6.318   5.087  0.8894 -0.5182  0.0587
 7336TIP3    H143423   6.770   6.269   5.049  1.3836  0.6396 -0.5050
 7336TIP3    H243424   6.684   6.392   5.027 -2.3669 -2.0233 -1.2558
 7337TIP3   OH243425   0.125   0.334  10.219 -0.0699  0.5827  0.5398
 7337TIP3    H143426   0.211   0.299  10.239  0.7162  1.0403 -1.8396
 7337TIP3    H243427   0.110   0.311  10.127 -1.1057  3.2211 -0.0257
 7338TIP3   OH243428   4.691   6.027   4.156  0.8353 -0.3078  0.0240
 7338TIP3    H143429   4.671   6.049   4.247 -2.6693  0.6962 -0.8715
 7338TIP3    H243430   4.683   5.932   4.152 -3.2078 -0.0584 -0.0159
 7339TIP3   OH243431   1.694   3.753   4.536 -0.4276  0.3301 -0.4155
 7339TIP3    H143432   1.780   3.711   4.527 -0.1723  0.7998 -0.1532
 7339TIP3    H243433   1.675   3.786   4.448 -0.4420  0.0357 -0.5252
 7340TIP3   OH243434   2.975   2.203  10.944  0.1279 -0.7351 -0.5475
 7340TIP3    H143435   2.965   2.118  10.902 -0.2594 -1.3074  0.6533
 7340TIP3    H243436   2.903   2.256  10.909  0.2805 -0.9480 -1.1852
 7341TIP3   OH243437   3.213   4.994   4.292  0.4287 -0.0270  0.5884
 7341TIP3    H143438   3.300   5.024   4.317  0.5316 -0.2444  0.4945
 7341TIP3    H243439   3.217   4.985   4.197  0.1126  0.5652  0.5143
 7342TIP3   OH243440   2.303   6.551   5.690  0.1186 -0.1216 -0.4749
 7342TIP3    H143441   2.392   6.530   5.718  0.3351 -0.4876 -1.4050
 7342TIP3    H243442   2.313   6.626   5.632 -0.2825  0.3841  0.0989
 7343TIP3   OH243443   0.236   1.634  16.890 -0.2444 -0.2736  0.2501
 7343TIP3    H143444   0.160   1.582  16.915  0.1263 -0.3639  1.2141
 7343TIP3    H243445   0.304   1.611  16.954  0.4567  0.1230 -0.3389
 7344TIP3   OH243446   6.296   2.000   4.812 -0.3812  0.0001 -0.1661
 7344TIP3    H143447   6.345   1.973   4.735  0.6286 -0.7954  0.7308
 7344TIP3    H243448   6.229   2.059   4.779  2.3850  2.6614 -1.2120
 7345TIP3   OH243449   1.899   2.418  17.097 -0.7358  0.5308  0.3351
 7345TIP3    H143450   1.901   2.334  17.143  1.1849  0.3469 -0.0144
 7345TIP3    H243451   1.982   2.460  17.120 -0.2978  0.9787 -1.9074
 7346TIP3   OH243452   6.704   6.595   0.253  0.0140  0.4416 -0.1372
 7346TIP3    H143453   6.653   6.640   0.320  2.2409  0.0891  1.8713
 7346TIP3    H243454   6.795   6.612   0.278  0.9257  1.2622 -3.7237
 7347TIP3   OH243455   0.947   2.207  15.151  0.6419  0.2534  0.1274
 7347TIP3    H143456   1.026   2.255  15.175  1.1075 -0.2467 -0.3824
 7347TIP3    H243457   0.907   2.259  15.081  0.9194  0.1204 -0.1313
 7348TIP3   OH243458   1.269   4.821   0.387 -0.0268 -0.4122  0.7140
 7348TIP3    H143459   1.295   4.730   0.403  0.0163 -0.5567 -0.1643
 7348TIP3    H243460   1.318   4.847   0.309 -2.2071 -0.5664 -0.7361
 7349TIP3   OH243461   0.652   0.790   1.240  0.0140 -0.6204 -0.2415
 7349TIP3    H143462   0.656   0.857   1.171 -0.5155 -2.6901 -2.3655
 7349TIP3    H243463   0.701   0.827   1.313  2.3230  0.8412 -2.4544
 7350TIP3   OH243464   1.305   4.850  10.876  0.7072 -0.1857  0.6995
 7350TIP3    H143465   1.210   4.849  10.864  0.8672  0.6527 -0.6210
 7350TIP3    H243466   1.321   4.780  10.940 -0.6336 -1.4324 -0.2839
 7351TIP3   OH243467   2.046   0.772   3.550 -0.4261  0.5672  0.3991
 7351TIP3    H143468   2.041   0.677   3.552  1.9423  0.4262  2.1631
 7351TIP3    H243469   2.030   0.796   3.459 -1.6362 -1.4540  0.0572
 7352TIP3   OH243470   2.795   4.440  10.926 -0.4943  0.1064 -0.3237
 7352TIP3    H143471   2.814   4.378  10.855 -1.1520  0.4480 -0.8078
 7352TIP3    H243472   2.725   4.397  10.977  1.5900 -1.2069  1.5219
 7353TIP3   OH243473   6.032   4.105   1.693  0.4408  0.0339 -0.4352
 7353TIP3    H143474   6.106   4.133   1.746 -0.0346 -0.8222  0.6949
 7353TIP3    H243475   6.043   4.011   1.683 -0.2416 -0.0289 -0.6489
 7354TIP3   OH243476   6.781   5.904   4.957 -0.3789  0.4490 -0.3250
 7354TIP3    H143477   6.750   5.897   4.866 -1.2412  2.6086 -0.2236
 7354TIP3    H243478   6.704   5.884   5.010  0.0325 -0.4397 -0.0556
 7355TIP3   OH243479   4.440   4.095   5.783  1.1420  0.3133 -0.3389
 7355TIP3    H143480   4.435   4.110   5.688  2.9176 -0.1636 -0.5297
 7355TIP3    H243481   4.359   4.132   5.818  1.0879  1.6969 -1.8868
 7356TIP3   OH243482   1.518   5.386  16.147 -0.4594 -0.2254  0.2360
 7356TIP3    H143483   1.464   5.456  16.184 -0.0430 -0.4845  1.3661
 7356TIP3    H243484   1.456   5.315  16.130 -0.7947  0.2171 -0.3848
 7357TIP3   OH243485   6.689   0.622  17.216  0.5998  0.0754  0.1109
 7357TIP3    H143486   6.674   0.554  17.150 -1.7692  0.0227  0.6558
 7357TIP3    H243487   6.605   0.668  17.223  1.3122  1.1716  1.8654
 7358TIP3   OH243488   5.975   2.857   2.225  0.4648 -0.7527  0.3096
 7358TIP3    H143489   5.950   2.944   2.254  1.3627 -0.7763  1.1844
 7358TIP3    H243490   5.909   2.799   2.263 -0.7269 -0.3663 -1.1182
 7359TIP3   OH243491   1.559   6.401   0.743 -0.5876 -0.2178 -0.6361
 7359TIP3    H143492   1.502   6.453   0.800 -0.0820 -0.1531 -0.1831
 7359TIP3    H243493   1.648   6.426   0.768 -0.3662  0.3544 -1.9801
 7360TIP3   OH243494   6.753   5.038  14.634  0.1594 -0.1817  0.1125
 7360TIP3    H143495   6.805   5.062  14.710 -0.4201  0.5865  0.2684
 7360TIP3    H243496   6.810   4.980  14.584  1.5185  1.3946 -0.2010
 7361TIP3   OH243497   4.510   1.819  11.018  0.0508  0.0061  0.0971
 7361TIP3    H143498   4.481   1.862  10.938  0.8288  1.3392  0.5208
 7361TIP3    H243499   4.543   1.734  10.988 -1.1788 -0.1762 -0.7818
 7362TIP3   OH243500   3.917   3.824  11.080 -0.1854  0.2252 -0.8429
 7362TIP3    H143501   3.828   3.793  11.062 -0.1841 -0.5625  0.3918
 7362TIP3    H243502   3.951   3.852  10.996 -1.5342  0.3274 -1.3664
 7363TIP3   OH243503   1.649   3.472   5.359 -0.2071 -0.1105 -0.0021
 7363TIP3    H143504   1.681   3.545   5.307 -0.8485  0.0903 -0.1291
 7363TIP3    H243505   1.713   3.462   5.429  0.0362  0.3872 -0.1529
 7364TIP3   OH243506   2.868   0.401   2.364 -0.0323  0.1432  0.0012
 7364TIP3    H143507   2.922   0.431   2.291  0.9195 -1.1445  0.1615
 7364TIP3    H243508   2.838   0.482   2.406  0.7290  0.8822 -0.8473
 7365TIP3   OH243509   4.113   5.871   3.776  0.0770 -0.0355  0.6514
 7365TIP3    H143510   4.039   5.812   3.794  0.2474 -1.0004 -1.5187
 7365TIP3    H243511   4.083   5.924   3.702  0.6084  1.3476  1.4231
 7366TIP3   OH243512   6.422   1.086   4.534  0.0892 -0.3489 -0.3362
 7366TIP3    H143513   6.399   1.013   4.592 -1.5020 -0.8757 -1.5838
 7366TIP3    H243514   6.344   1.143   4.535  0.9683  0.8742 -0.0921
 7367TIP3   OH243515   6.670   5.510   5.843 -0.0808 -0.0885  0.2339
 7367TIP3    H143516   6.622   5.429   5.857 -1.6301  0.9475  1.1422
 7367TIP3    H243517   6.602   5.575   5.823  1.2176  0.7477 -1.6086
 7368TIP3   OH243518   0.769   1.401   5.088 -0.0141 -0.4534 -0.2016
 7368TIP3    H143519   0.697   1.374   5.145  1.4212  0.1027  1.9380
 7368TIP3    H243520   0.775   1.496   5.101  0.4891 -0.3611 -1.0895
 7369TIP3   OH243521   2.029   0.774  13.422  0.0109 -0.2005  0.1848
 7369TIP3    H143522   2.094   0.803  13.487  0.9432 -0.8730 -0.4383
 7369TIP3    H243523   1.977   0.708  13.468 -0.5548  0.6799  0.8382
 7370TIP3   OH243524   4.777   2.766  13.032  0.6262 -0.3200 -0.4322
 7370TIP3    H143525   4.834   2.763  13.108  0.3237  2.4839 -0.0266
 7370TIP3    H243526   4.837   2.758  12.957  1.3094  0.4218  0.0303
 7371TIP3   OH243527   3.884   2.130  16.771 -0.4146 -0.0692 -0.6024
 7371TIP3    H143528   3.864   2.214  16.731 -1.1479 -0.2537 -0.6359
 7371TIP3    H243529   3.962   2.147  16.824 -2.7278  1.6219  2.4636
 7372TIP3   OH243530   6.256   0.313   3.097  0.0031  0.2636 -0.0368
 7372TIP3    H143531   6.284   0.236   3.146  0.5106 -0.5524 -1.5720
 7372TIP3    H243532   6.336   0.347   3.057 -0.4461  0.6900 -0.5977
 7373TIP3   OH243533   0.163   3.082  12.279 -0.5736 -0.1294 -0.1341
 7373TIP3    H143534   0.098   3.131  12.228 -0.3216  1.1555  0.7604
 7373TIP3    H243535   0.124   3.074  12.366  0.2506  0.2355  0.2726
 7374TIP3   OH243536   2.224   1.061  16.314 -0.1342  0.2911  0.0613
 7374TIP3    H143537   2.260   1.118  16.246 -0.8073 -0.4052 -0.8944
 7374TIP3    H243538   2.300   1.033  16.365  0.3234  1.1795 -0.1147
 7375TIP3   OH243539   2.735   6.234   2.860 -0.2547  0.0140 -0.0403
 7375TIP3    H143540   2.645   6.222   2.828 -1.4609  0.2352  3.1664
 7375TIP3    H243541   2.745   6.328   2.870  0.6159  0.0448 -1.0596
 7376TIP3   OH243542   4.117   0.253  12.204  0.0048 -0.0863 -0.3757
 7376TIP3    H143543   4.035   0.281  12.163  0.3971  0.8989 -0.5113
 7376TIP3    H243544   4.097   0.167  12.240 -1.1290  0.1857 -0.3070
 7377TIP3   OH243545   1.213   5.032   4.036  0.3567 -0.3501  0.2878
 7377TIP3    H143546   1.126   5.069   4.017 -0.1222 -1.7084 -0.2488
 7377TIP3    H243547   1.212   5.017   4.131 -0.2436 -0.9734  0.1850
 7378TIP3   OH243548   4.579   3.206  14.327  0.1409  0.2891  0.6757
 7378TIP3    H143549   4.506   3.160  14.370  0.4612 -0.8321  0.0353
 7378TIP3    H243550   4.537   3.255  14.257  0.0737 -0.9210 -0.1456
 7379TIP3   OH243551   1.940   5.283  17.200 -0.9925 -0.2371 -0.4442
 7379TIP3    H143552   1.999   5.238  17.140 -0.3216 -1.4823  1.0787
 7379TIP3    H243553   1.863   5.304  17.148 -1.0698 -2.6590 -1.3617
 7380TIP3   OH243554   2.597   1.113  11.656  0.0555  0.4193  1.0319
 7380TIP3    H143555   2.507   1.135  11.632  0.5575  2.3104  0.7780
 7380TIP3    H243556   2.598   1.124  11.752  0.5501  2.5814  0.8089
 7381TIP3   OH243557   5.186   1.686  12.569  0.0464  0.1704 -0.1103
 7381TIP3    H143558   5.152   1.696  12.657 -1.3389 -0.7571 -0.5159
 7381TIP3    H243559   5.254   1.619  12.577 -0.8124 -0.6915  0.0857
 7382TIP3   OH243560   4.190   6.436  11.254  0.5243  0.3318 -0.2337
 7382TIP3    H143561   4.119   6.447  11.317  0.0405 -1.2205 -0.4882
 7382TIP3    H243562   4.147   6.433  11.169  0.6192 -2.7720 -0.2446
 7383TIP3   OH243563   3.369   5.961   0.419  0.6659 -0.5780  0.1255
 7383TIP3    H143564   3.309   5.933   0.488 -1.6483  1.4011 -0.9801
 7383TIP3    H243565   3.365   5.891   0.353 -0.1718 -0.6205  0.2220
 7384TIP3   OH243566   3.578   2.594  15.346  0.5160  0.5770 -0.1719
 7384TIP3    H143567   3.588   2.627  15.435 -1.8120 -0.4035  0.4841
 7384TIP3    H243568   3.505   2.644  15.310  0.3911 -0.1690 -0.9625
 7385TIP3   OH243569   1.940   0.178   4.134  0.1393 -0.0558 -0.0784
 7385TIP3    H143570   1.939   0.240   4.207 -2.8030  0.4861 -0.5106
 7385TIP3    H243571   1.848   0.168   4.109  0.6057 -3.8238 -0.6974
 7386TIP3   OH243572   2.730   1.018  12.061 -0.1591  0.2178  0.5084
 7386TIP3    H143573   2.816   1.018  12.019  0.4673  1.0586  1.7486
 7386TIP3    H243574   2.684   1.092  12.021 -0.0243  0.2392  0.3952
 7387TIP3   OH243575   2.351   2.437  12.671  0.0901  0.1210  0.0599
 7387TIP3    H143576   2.263   2.473  12.682  0.4377  1.1732 -0.5154
 7387TIP3    H243577   2.404   2.512  12.645  1.6197 -0.0682  2.5044
 7388TIP3   OH243578   2.473   6.118  15.858  0.5326  0.7054 -0.6644
 7388TIP3    H143579   2.439   6.164  15.782 -0.4515 -0.2189 -0.7977
 7388TIP3    H243580   2.463   6.025  15.836 -0.1696  0.4286  0.7616
 7389TIP3   OH243581   3.864   1.771   0.944 -0.2063  0.2800  0.4374
 7389TIP3    H143582   3.912   1.816   0.875  1.9021 -3.0296 -0.3876
 7389TIP3    H243583   3.804   1.712   0.897 -0.8854  0.1384  1.4471
 7390TIP3   OH243584   6.641   1.061  11.596  0.1231 -0.5898 -0.3410
 7390TIP3    H143585   6.685   1.120  11.657 -2.1759  0.5962  0.2464
 7390TIP3    H243586   6.657   1.098  11.510 -0.2723  0.2199 -0.0717
 7391TIP3   OH243587   4.762   2.802   3.110  0.0190 -0.3495  0.3028
 7391TIP3    H143588   4.714   2.742   3.053  0.6904  0.8705 -1.5989
 7391TIP3    H243589   4.695   2.854   3.152 -0.4680 -0.7657  0.0455
 7392TIP3   OH243590   5.118   5.036   0.063 -0.4705  0.4041 -0.2404
 7392TIP3    H143591   5.176   4.979   0.013  0.0118  2.1683 -1.7291
 7392TIP3    H243592   5.174   5.072   0.132 -0.5236 -0.1559  0.0929
 7393TIP3   OH243593   5.700   3.711  15.832  0.6027  0.7551 -0.4357
 7393TIP3    H143594   5.672   3.652  15.762 -2.7471  1.1519  0.4861
 7393TIP3    H243595   5.685   3.662  15.912  2.0252  1.2528  0.1624
 7394TIP3   OH243596   3.880   1.025  16.836 -0.0300  0.6396  0.3453
 7394TIP3    H143597   3.948   1.074  16.883  0.2477 -0.0283  0.6398
 7394TIP3    H243598   3.927   0.978  16.767 -0.4827  1.9364 -0.8857
 7395TIP3   OH243599   1.830   6.397   0.870  0.2021 -0.5888  0.2848
 7395TIP3    H143600   1.830   6.492   0.867  1.4392 -0.5945  0.1272
 7395TIP3    H243601   1.771   6.375   0.942 -1.1617  0.2576 -0.5493
 7396TIP3   OH243602   4.699   2.279  15.635  0.0268 -0.1314  0.0103
 7396TIP3    H143603   4.611   2.309  15.614 -0.8056 -2.2527  0.2647
 7396TIP3    H243604   4.731   2.240  15.554 -0.5814 -2.3135  0.7775
 7397TIP3   OH243605   6.373   3.749   1.936  0.5502  0.1658  0.2529
 7397TIP3    H143606   6.286   3.710   1.937 -0.1532  1.7060 -0.0871
 7397TIP3    H243607   6.410   3.724   1.852  0.2163 -0.0217  0.1632
 7398TIP3   OH243608   0.186   5.116  13.705  0.1617 -0.2383  0.1165
 7398TIP3    H143609   0.155   5.201  13.674 -1.2271  0.1514  2.5085
 7398TIP3    H243610   0.281   5.119  13.693  0.0520  1.3970 -0.3988
 7399TIP3   OH243611   5.382   1.681  11.450 -0.2055 -0.4225  0.3547
 7399TIP3    H143612   5.477   1.693  11.440 -0.1180 -0.9569  0.5278
 7399TIP3    H243613   5.344   1.759  11.409  0.3707  0.9179  2.2602
 7400TIP3   OH243614   5.187   5.000   1.392 -0.0270 -1.4089  0.0877
 7400TIP3    H143615   5.175   4.949   1.472 -0.6205 -1.5892 -0.1154
 7400TIP3    H243616   5.126   5.073   1.399  1.5084 -0.1599  0.8233
 7401TIP3   OH243617   4.128   5.871   2.392 -0.7914 -0.4527  0.4497
 7401TIP3    H143618   4.154   5.793   2.442  0.5548 -1.0684 -1.1926
 7401TIP3    H243619   4.205   5.928   2.395 -0.9624 -0.1805 -0.3149
 7402TIP3   OH243620   1.456   2.812  14.354 -0.1173  0.1722  0.3168
 7402TIP3    H143621   1.442   2.895  14.400 -1.9730 -1.3024  2.5055
 7402TIP3    H243622   1.415   2.825  14.268 -0.4372  1.4923  0.6536
 7403TIP3   OH243623   0.139   4.401   4.649  0.3631 -0.0440  0.4566
 7403TIP3    H143624   0.089   4.333   4.603 -0.6921 -0.1087  1.6621
 7403TIP3    H243625   0.094   4.483   4.625  0.5193  0.0406  0.4537
 7404TIP3   OH243626   6.767   4.858   6.084 -0.1460  0.0790 -0.1888
 7404TIP3    H143627   6.809   4.862   5.998  1.2126  0.9501  0.4963
 7404TIP3    H243628   6.797   4.775   6.122  0.4842  0.4125  0.0523
 7405TIP3   OH243629   2.273   5.269   5.639 -0.0950  0.0729  0.3704
 7405TIP3    H143630   2.291   5.175   5.645  1.1805  0.4485  2.9116
 7405TIP3    H243631   2.328   5.309   5.706 -0.1445  2.7270 -1.0756
 7406TIP3   OH243632   3.384   4.306  16.265 -0.3253  0.1247  0.1735
 7406TIP3    H143633   3.418   4.245  16.330  0.0604  0.1225 -0.0327
 7406TIP3    H243634   3.461   4.350  16.229 -0.4195 -0.7276 -1.1258
 7407TIP3   OH243635   3.567   5.803  10.973 -0.3330  0.3345 -0.0270
 7407TIP3    H143636   3.497   5.829  10.913  0.6490  1.4722 -0.6845
 7407TIP3    H243637   3.647   5.807  10.921  0.5484  1.4607  1.3702
 7408TIP3   OH243638   6.682   1.293   4.887 -0.5054  0.1880  0.0911
 7408TIP3    H143639   6.601   1.292   4.938 -0.2263  0.1762  0.5425
 7408TIP3    H243640   6.695   1.203   4.860 -1.2476  0.3826 -0.9630
 7409TIP3   OH243641   0.599   6.286   4.279  0.5386  0.7526 -0.3293
 7409TIP3    H143642   0.565   6.333   4.202  1.3500  1.4592 -0.2630
 7409TIP3    H243643   0.669   6.232   4.245 -0.2692 -0.2830 -0.3719
 7410TIP3   OH243644   2.035   2.554  15.375  0.2555  0.3871  0.2776
 7410TIP3    H143645   2.003   2.507  15.452  2.6169  0.6419  1.4748
 7410TIP3    H243646   2.001   2.643  15.386 -1.0122 -0.0628  0.0221
 7411TIP3   OH243647   4.117   1.382   5.329 -0.1085 -0.4092 -0.3785
 7411TIP3    H143648   4.174   1.430   5.268  0.0338  1.0863  0.8808
 7411TIP3    H243649   4.172   1.312   5.364 -0.2142 -1.3268 -1.9946
 7412TIP3   OH243650   0.807   6.525   3.174  0.9837  0.5264 -0.0122
 7412TIP3    H143651   0.720   6.484   3.172  1.0261  0.4508 -1.2820
 7412TIP3    H243652   0.841   6.506   3.261  0.0964 -0.2527  0.1767
 7413TIP3   OH243653   0.423   0.118   5.897  0.8472 -0.3739  0.0961
 7413TIP3    H143654   0.491   0.164   5.947 -0.6911  0.2951  1.6316
 7413TIP3    H243655   0.357   0.094   5.962  0.3883 -2.4911 -1.1140
 7414TIP3   OH243656   2.346   0.081   6.454  0.0584 -0.7170  0.4182
 7414TIP3    H143657   2.427   0.043   6.419 -1.6492 -1.1110 -3.3922
 7414TIP3    H243658   2.298   0.005   6.487  0.5250 -0.7048  1.1246
 7415TIP3   OH243659   5.866   0.244  11.272  0.3964  0.0130 -0.1918
 7415TIP3    H143660   5.815   0.234  11.192 -1.8382 -3.4561  1.5427
 7415TIP3    H243661   5.843   0.331  11.304 -2.0720 -0.2892 -1.0594
 7416TIP3   OH243662   2.422   0.524   1.061 -0.4055  0.4192  0.1913
 7416TIP3    H143663   2.416   0.569   1.145 -2.0598  0.9069 -0.1709
 7416TIP3    H243664   2.361   0.450   1.070 -0.9712  0.7718 -0.7557
 7417TIP3   OH243665   1.255   5.861   1.824 -0.2056 -0.0326  0.0758
 7417TIP3    H143666   1.307   5.863   1.744 -0.6229 -0.9959 -0.2340
 7417TIP3    H243667   1.176   5.912   1.803 -0.8261 -1.2112 -0.5081
 7418TIP3   OH243668   2.524   6.568   4.711  0.4703  0.1160 -0.2669
 7418TIP3    H143669   2.573   6.649   4.728  0.3355 -0.1622  1.5817
 7418TIP3    H243670   2.591   6.500   4.711  0.2522 -0.1099  1.0140
 7419TIP3   OH243671   5.841   1.266  17.115  0.1122 -0.7714 -0.1823
 7419TIP3    H143672   5.869   1.350  17.078  0.7889 -2.4883 -3.7682
 7419TIP3    H243673   5.897   1.254  17.192 -0.9972  2.6705  1.2837
 7420TIP3   OH243674   4.272   3.171   5.693  0.2871 -0.4284  0.0425
 7420TIP3    H143675   4.249   3.143   5.782 -0.1481 -1.4449 -0.3765
 7420TIP3    H243676   4.297   3.263   5.702  0.0565 -0.4723  1.1848
 7421TIP3   OH243677   2.873   4.282   5.588 -0.0321 -0.4972  0.0373
 7421TIP3    H143678   2.800   4.247   5.639  0.7368 -1.5864  0.4054
 7421TIP3    H243679   2.932   4.207   5.577  1.2954  0.5146  0.2216
 7422TIP3   OH243680   5.998   5.336   3.846 -0.1190  0.3908 -0.2468
 7422TIP3    H143681   5.926   5.371   3.793 -0.4497 -1.5315 -1.1078
 7422TIP3    H243682   6.073   5.336   3.787 -0.7698 -2.8856 -1.1508
 7423TIP3   OH243683   3.022   0.904  14.198  0.3983  0.4221 -0.0364
 7423TIP3    H143684   3.110   0.876  14.174  0.2715  0.8389 -1.0331
 7423TIP3    H243685   2.964   0.846  14.148  0.1216  0.9308 -0.3145
 7424TIP3   OH243686   2.945   0.852   5.668  0.1391 -0.3825  0.4714
 7424TIP3    H143687   2.962   0.870   5.761  0.7790  1.8450 -0.0604
 7424TIP3    H243688   3.029   0.823   5.633 -0.3598 -2.3348  0.8007
 7425TIP3   OH243689   2.682   6.745   5.265  0.4093  0.1224 -0.6541
 7425TIP3    H143690   2.750   6.773   5.204  0.5039 -1.2683 -1.2168
 7425TIP3    H243691   2.630   6.682   5.215  0.6951 -1.3003  0.7788
 7426TIP3   OH243692   4.907   3.237  11.316 -0.7321 -0.5013 -0.3723
 7426TIP3    H143693   4.929   3.330  11.312 -2.6778 -0.0134 -0.6456
 7426TIP3    H243694   4.899   3.211  11.224 -2.3988 -0.3462 -0.2935
 7427TIP3   OH243695   4.479   6.427   6.347  0.6754 -0.5353 -0.1578
 7427TIP3    H143696   4.494   6.398   6.437 -2.3323  1.4739  1.0569
 7427TIP3    H243697   4.413   6.367   6.313  0.4211 -0.1431 -0.3658
 7428TIP3   OH243698   6.014   5.617  16.196  0.0258  0.5525 -0.4623
 7428TIP3    H143699   6.070   5.694  16.191 -1.0293  1.6943  3.5602
 7428TIP3    H243700   6.059   5.557  16.255  0.1496 -1.3855 -2.4346
 7429TIP3   OH243701   1.849   3.372   4.238 -0.1200 -0.0764 -0.2168
 7429TIP3    H143702   1.777   3.316   4.211 -1.1429  0.8511  0.5610
 7429TIP3    H243703   1.823   3.460   4.210  1.0890  0.1546 -0.6784
 7430TIP3   OH243704   6.394   0.289  16.875  0.0429  0.6240 -0.2959
 7430TIP3    H143705   6.425   0.215  16.823  1.1164  1.3093 -0.6460
 7430TIP3    H243706   6.307   0.262  16.906  0.6921 -1.0568  0.1294
 7431TIP3   OH243707   2.331   5.180   5.117 -0.0334 -0.6574  0.4613
 7431TIP3    H143708   2.239   5.162   5.099 -0.6226  1.5448  1.2136
 7431TIP3    H243709   2.368   5.203   5.032 -0.3887 -0.6221  0.3157
 7432TIP3   OH243710   0.030   0.393  14.089 -0.1391  0.1456 -0.0169
 7432TIP3    H143711   0.053   0.407  14.181  1.7349 -3.1432  0.0908
 7432TIP3    H243712   0.085   0.455  14.041  0.0813  0.7445  0.9934
 7433TIP3   OH243713   6.479   4.257   3.830 -0.1627  0.4411  0.3867
 7433TIP3    H143714   6.515   4.346   3.825 -0.7653  0.5851 -1.9914
 7433TIP3    H243715   6.456   4.235   3.740  0.6699 -2.4383  0.8290
 7434TIP3   OH243716   5.250   3.041   5.802 -0.0002 -0.0327 -0.4268
 7434TIP3    H143717   5.188   3.082   5.862 -1.2089 -0.8192 -1.1308
 7434TIP3    H243718   5.318   3.108   5.789 -0.9128  0.9948 -0.0013
 7435TIP3   OH243719   4.691   4.460  13.365  0.1835 -0.3994  0.0774
 7435TIP3    H143720   4.662   4.500  13.283 -0.3211 -0.8108  0.0522
 7435TIP3    H243721   4.641   4.378  13.371  0.2624 -0.4016  0.7640
 7436TIP3   OH243722   5.342   4.436  16.032  0.2267  0.3061  0.3871
 7436TIP3    H143723   5.328   4.523  15.993  0.5765 -0.1345 -0.7380
 7436TIP3    H243724   5.401   4.392  15.970 -0.2987 -0.8898  0.7403
 7437TIP3   OH243725   6.569   2.969  14.263  0.3124  0.3213 -0.0909
 7437TIP3    H143726   6.477   2.941  14.261  0.4712 -0.3131  0.9179
 7437TIP3    H243727   6.570   3.052  14.217 -0.8396  0.5183  0.2200
 7438TIP3   OH243728   0.114   3.580   2.540 -0.1450  0.0215 -1.0412
 7438TIP3    H143729   0.138   3.492   2.569 -0.8491 -0.1427 -0.9376
 7438TIP3    H243730   0.080   3.568   2.452 -2.1293 -0.1210 -0.2985
 7439TIP3   OH243731   6.637   5.311  11.654  0.1719 -0.8635 -0.0054
 7439TIP3    H143732   6.622   5.263  11.573 -1.8539  0.8311 -0.6843
 7439TIP3    H243733   6.623   5.403  11.630  1.1275 -0.1913  1.9075
 7440TIP3   OH243734   5.443   4.572   3.714  0.6884 -0.2299 -0.0920
 7440TIP3    H143735   5.428   4.631   3.788  1.1086 -0.8474  0.4859
 7440TIP3    H243736   5.524   4.527   3.736 -0.1157 -1.6908 -0.1130
 7441TIP3   OH243737   1.370   0.603   4.745  0.3377 -0.8092  1.0135
 7441TIP3    H143738   1.335   0.672   4.801  1.5883 -0.5558  1.4977
 7441TIP3    H243739   1.446   0.569   4.792  0.9385 -1.1350 -0.1559
 7442TIP3   OH243740   5.554   4.944  13.012  0.5103 -0.3527  0.1897
 7442TIP3    H143741   5.475   4.928  13.063  0.2576 -2.1265 -0.7187
 7442TIP3    H243742   5.615   4.983  13.074 -0.4944 -0.5614  1.3277
 7443TIP3   OH243743   2.950   0.269   5.541 -0.2765 -0.2745  0.6593
 7443TIP3    H143744   2.855   0.273   5.547 -0.2324 -0.6357  1.5881
 7443TIP3    H243745   2.967   0.184   5.499 -0.3468 -0.3571  0.7982
 7444TIP3   OH243746   2.818   0.012  12.698 -0.0252 -0.0925  0.4174
 7444TIP3    H143747   2.892  -0.031  12.655 -0.7383 -0.3125 -0.6160
 7444TIP3    H243748   2.851   0.037  12.785  1.0095 -0.9104  0.2673
 7445TIP3   OH243749   2.052   0.617  15.399 -0.3067 -0.1453  0.2377
 7445TIP3    H143750   2.102   0.696  15.380 -1.9426  0.4257 -1.9516
 7445TIP3    H243751   2.003   0.637  15.478  1.3842 -0.0005  1.2702
 7446TIP3   OH243752   6.051   0.149   1.218 -0.0745  0.1659  0.2809
 7446TIP3    H143753   6.031   0.080   1.281  1.5763 -0.1159  0.5250
 7446TIP3    H243754   5.976   0.208   1.222 -1.0145 -1.0481  0.8518
 7447TIP3   OH243755   6.717   5.589   4.789 -0.1843  0.1633  0.9889
 7447TIP3    H143756   6.764   5.632   4.718  0.9821  1.6437  2.6097
 7447TIP3    H243757   6.624   5.598   4.766  0.1262  1.8698  0.3462
 7448TIP3   OH243758   2.985   1.088  15.424 -0.0680 -0.6316 -0.5578
 7448TIP3    H143759   2.985   1.072  15.519 -0.4919 -0.3206 -0.5046
 7448TIP3    H243760   2.981   1.000  15.385 -0.9859 -0.7220 -0.2787
 7449TIP3   OH243761   3.959   4.251   0.138 -0.0691  0.3285  0.4455
 7449TIP3    H143762   3.969   4.320   0.204  2.2265 -1.9534  2.6078
 7449TIP3    H243763   4.041   4.253   0.089 -0.8754  0.5190 -0.9370
 7450TIP3   OH243764   2.756   6.353  13.175 -0.5419 -0.0148  0.0720
 7450TIP3    H143765   2.845   6.345  13.139 -0.3964 -1.4560  0.6976
 7450TIP3    H243766   2.715   6.269  13.153 -0.9869 -0.2729  1.8132
 7451TIP3   OH243767   0.895   5.350   5.858 -0.5354 -0.5859  0.2971
 7451TIP3    H143768   0.906   5.256   5.845  0.9632 -0.5010  0.7744
 7451TIP3    H243769   0.877   5.359   5.951 -1.0989 -0.4366  0.1711
 7452TIP3   OH243770   6.737   3.728  13.400  0.1085 -0.4141 -0.0818
 7452TIP3    H143771   6.700   3.719  13.487  0.5435 -1.0426  0.0400
 7452TIP3    H243772   6.683   3.673  13.344 -1.4427  1.5622 -0.6083
 7453TIP3   OH243773   1.806   5.871   0.336  0.1222 -0.0690  0.3432
 7453TIP3    H143774   1.863   5.795   0.348 -0.1790 -0.2033  0.9536
 7453TIP3    H243775   1.718   5.833   0.326 -0.1451  0.2212  1.4415
 7454TIP3   OH243776   5.586   2.903   2.746  0.4307  0.1886 -1.1898
 7454TIP3    H143777   5.587   2.958   2.668 -0.1717  0.3077 -1.1104
 7454TIP3    H243778   5.519   2.941   2.802  1.4779  0.6434 -0.2222
 7455TIP3   OH243779   1.525   2.284  12.175  0.1582  0.2087  0.1739
 7455TIP3    H143780   1.471   2.205  12.182 -0.0454  0.3900  0.6164
 7455TIP3    H243781   1.610   2.251  12.146 -0.3297 -0.0159 -1.0363
 7456TIP3   OH243782   5.020   5.281  13.856  0.2025 -0.5655 -0.0109
 7456TIP3    H143783   5.026   5.362  13.805  2.0401 -0.2627  0.6488
 7456TIP3    H243784   4.931   5.281  13.892 -0.3978  0.2681 -1.4626
 7457TIP3   OH243785   5.159   4.539   0.478  0.7564  0.0386  0.0895
 7457TIP3    H143786   5.102   4.475   0.521  0.3893  0.7593  0.7032
 7457TIP3    H243787   5.245   4.497   0.476  0.6577 -0.2367  1.0515
 7458TIP3   OH243788   0.025   5.541   4.515 -0.1284 -0.4341  0.3133
 7458TIP3    H143789  -0.005   5.517   4.427 -1.8158  0.7320  0.5451
 7458TIP3    H243790   0.021   5.459   4.564  2.3395 -1.4299 -1.0768
 7459TIP3   OH243791   4.432   1.286   4.669 -0.1692 -0.2547  0.1460
 7459TIP3    H143792   4.524   1.287   4.643 -0.0201  1.2498  0.7109
 7459TIP3    H243793   4.397   1.206   4.630  0.7898  0.3865 -2.0804
 7460TIP3   OH243794   1.166   4.155   4.746  0.2260  0.4443  0.1312
 7460TIP3    H143795   1.259   4.172   4.761  0.0325  3.1522 -1.4700
 7460TIP3    H243796   1.134   4.233   4.700 -2.2190 -1.6208 -1.8387
 7461TIP3   OH243797   5.570   0.112   3.411  0.6463  0.0065  0.2996
 7461TIP3    H143798   5.539   0.059   3.338 -0.0182  1.2233 -0.3021
 7461TIP3    H243799   5.564   0.053   3.487 -0.7901 -0.5445 -0.2230
 7462TIP3   OH243800   5.904   4.229   1.343  0.2507 -0.4857 -0.6071
 7462TIP3    H143801   5.879   4.167   1.274  1.9749 -1.2147 -0.5893
 7462TIP3    H243802   5.907   4.176   1.422  1.6672 -0.3675 -0.5802
 7463TIP3   OH243803   3.161   5.708  13.452  0.3817  0.1491 -0.2966
 7463TIP3    H143804   3.256   5.721  13.461  0.2854  0.3181  0.4986
 7463TIP3    H243805   3.140   5.640  13.516  0.2061 -0.9902 -1.5365
 7464TIP3   OH243806   4.424   5.841  12.400  0.2455  0.2230  0.5888
 7464TIP3    H143807   4.467   5.862  12.483  0.7854 -1.0208  0.6318
 7464TIP3    H243808   4.495   5.808  12.344 -0.4731 -0.8255  0.2987
 7465TIP3   OH243809   2.759   1.282  11.517 -0.0045 -0.2723 -0.4181
 7465TIP3    H143810   2.688   1.334  11.480  0.1527 -0.6423 -1.2412
 7465TIP3    H243811   2.717   1.202  11.548 -0.3465  0.5883  1.4094
 7466TIP3   OH243812   5.727   2.133   3.723  0.0317  0.1835 -0.5178
 7466TIP3    H143813   5.738   2.157   3.631 -2.2596  1.4419 -0.4945
 7466TIP3    H243814   5.648   2.078   3.724  1.0102 -1.2331  0.4686
 7467TIP3   OH243815   6.119   1.820  11.125  0.5899  0.5391 -0.1017
 7467TIP3    H143816   6.070   1.880  11.180  0.2574 -0.9039  1.2052
 7467TIP3    H243817   6.054   1.786  11.063  1.0438  2.4500 -1.6846
 7468TIP3   OH243818   5.617   4.882   3.871  0.0173 -0.0558 -0.0522
 7468TIP3    H143819   5.712   4.887   3.881  0.1953  1.8352 -2.3802
 7468TIP3    H243820   5.603   4.878   3.777 -2.2077 -0.9502  0.3008
 7469TIP3   OH243821   0.818   0.777   6.146  0.2022 -0.1700 -0.4346
 7469TIP3    H143822   0.867   0.696   6.129 -0.4512 -0.6001 -0.2696
 7469TIP3    H243823   0.736   0.766   6.099  1.1019  1.4390 -2.4430
 7470TIP3   OH243824   6.400   1.704   4.548  0.1815 -0.0177 -0.2163
 7470TIP3    H143825   6.423   1.790   4.514  0.1114  0.3678  0.7034
 7470TIP3    H243826   6.322   1.719   4.601  1.9328 -0.0802  2.4933
 7471TIP3   OH243827   5.613   0.517   5.933  0.4781 -0.0941 -0.2110
 7471TIP3    H143828   5.574   0.488   5.851  0.3293 -0.3689 -0.0447
 7471TIP3    H243829   5.705   0.535   5.911  0.2299  0.6486 -0.6176
 7472TIP3   OH243830   1.685   3.657   6.382  0.2906 -0.3396 -0.2276
 7472TIP3    H143831   1.766   3.666   6.433  0.7508  0.6120 -1.1191
 7472TIP3    H243832   1.714   3.623   6.297 -0.3610 -0.9117 -0.2256
 7473TIP3   OH243833   0.137   2.380   5.850  0.4423  0.7010 -0.2747
 7473TIP3    H143834   0.061   2.439   5.847 -0.2724 -0.1122  1.5429
 7473TIP3    H243835   0.152   2.357   5.758 -0.4664  2.1735 -0.8267
 7474TIP3   OH243836   5.740   0.220   2.312 -0.1878  0.1867 -0.4161
 7474TIP3    H143837   5.685   0.143   2.296 -1.7637  1.1574  0.2078
 7474TIP3    H243838   5.813   0.210   2.252  0.3881 -2.5505  0.6979
 7475TIP3   OH243839   0.712   0.712  14.231 -0.4896 -0.2022  0.5659
 7475TIP3    H143840   0.714   0.701  14.326 -0.8648 -0.3098  0.5597
 7475TIP3    H243841   0.726   0.805  14.218  2.0559 -0.5377  0.6399
 7476TIP3   OH243842   1.231   1.080   4.901  0.3800  0.1088 -0.1573
 7476TIP3    H143843   1.259   1.082   4.992 -0.0660 -1.9354  0.0472
 7476TIP3    H243844   1.275   1.154   4.860  0.7979  0.8727  1.6537
 7477TIP3   OH243845   0.519   2.047   3.705  0.0124  0.2240 -0.1660
 7477TIP3    H143846   0.549   2.108   3.638 -0.0623 -0.5740 -0.9418
 7477TIP3    H243847   0.597   2.033   3.760 -0.0123  1.1194  0.1072
 7478TIP3   OH243848   0.197   4.035  14.751 -0.2682 -0.4216 -0.2318
 7478TIP3    H143849   0.152   4.111  14.713  0.3075 -0.2029 -0.4784
 7478TIP3    H243850   0.204   3.973  14.678 -0.1325 -0.4384 -0.2038
 7479TIP3   OH243851   0.344   4.735  12.213 -0.3735  0.3401  0.1449
 7479TIP3    H143852   0.424   4.683  12.205 -0.4388  0.3275 -0.4235
 7479TIP3    H243853   0.277   4.683  12.169 -0.0883  1.6601 -1.9432
 7480TIP3   OH243854   4.718   4.272  16.460  0.5039 -0.2133  0.2343
 7480TIP3    H143855   4.768   4.251  16.539  1.8436 -0.1753 -0.5851
 7480TIP3    H243856   4.768   4.343  16.419 -0.7553  0.4969 -0.1075
 7481TIP3   OH243857   1.596   6.644   0.916  0.9019  0.3714 -0.1775
 7481TIP3    H143858   1.686   6.675   0.922  1.7817 -2.1074  0.0893
 7481TIP3    H243859   1.577   6.608   1.003  0.0103 -0.0337 -0.5310
 7482TIP3   OH243860   3.717   5.202   5.722  0.0417  0.1488 -0.5645
 7482TIP3    H143861   3.734   5.140   5.651  1.5647  0.7691 -0.7451
 7482TIP3    H243862   3.782   5.271   5.710 -2.0538  2.1455 -0.7785
 7483TIP3   OH243863   4.162   6.774  16.465  0.3012  0.1964 -0.3310
 7483TIP3    H143864   4.109   6.834  16.413 -0.4891 -0.7374 -0.6114
 7483TIP3    H243865   4.250   6.814  16.466 -0.1748  1.2700 -0.6369
 7484TIP3   OH243866   0.051   1.977  14.322 -0.3004  0.0101  0.8368
 7484TIP3    H143867   0.035   2.038  14.394 -0.9087 -0.1775  0.8584
 7484TIP3    H243868   0.128   2.013  14.277 -0.7962  0.9140  0.7106
 7485TIP3   OH243869   2.494   3.313  12.744 -0.1788  0.5528 -0.2951
 7485TIP3    H143870   2.555   3.332  12.815  0.4446  3.2957 -1.5217
 7485TIP3    H243871   2.511   3.221  12.723 -0.3369 -0.3253  3.0088
 7486TIP3   OH243872   2.034   5.287  12.331 -0.3412  0.0794  0.5839
 7486TIP3    H143873   2.104   5.326  12.279 -0.7635 -0.5713 -0.4928
 7486TIP3    H243874   2.080   5.241  12.402  0.3085 -0.0110  0.1148
 7487TIP3   OH243875   3.695   4.002  11.326 -0.0717 -0.6249  0.2186
 7487TIP3    H143876   3.711   4.028  11.417  1.1803  0.7524 -0.3817
 7487TIP3    H243877   3.682   4.084  11.280 -1.8631 -1.3825 -0.6487
 7488TIP3   OH243878   0.984   0.743   6.379 -0.5290  0.0534  0.0591
 7488TIP3    H143879   0.903   0.753   6.329 -0.4508  1.2646  0.1736
 7488TIP3    H243880   0.993   0.825   6.428  0.6646 -0.1463  0.1884
 7489TIP3   OH243881   0.074   3.373  11.079 -0.1393 -0.3823  0.1569
 7489TIP3    H143882   0.067   3.323  10.998 -1.4781 -1.7244  1.0568
 7489TIP3    H243883   0.095   3.462  11.052 -1.7350 -0.5516 -1.7090
 7490TIP3   OH243884   4.843   6.554   4.941 -0.6754  0.4179  0.2252
 7490TIP3    H143885   4.885   6.468   4.933 -0.5791  0.5212 -0.3730
 7490TIP3    H243886   4.910   6.616   4.914 -0.7719  0.6815  0.5834
 7491TIP3   OH243887   1.538   3.034  13.564  0.4694  0.0170 -0.4919
 7491TIP3    H143888   1.465   3.092  13.586 -0.8455 -2.1051  0.9594
 7491TIP3    H243889   1.499   2.967  13.508  2.1559  0.9865 -2.9061
 7492TIP3   OH243890   0.592   1.116  11.634  0.1508  0.2244 -0.3159
 7492TIP3    H143891   0.518   1.092  11.689  0.7868 -1.4383 -0.1308
 7492TIP3    H243892   0.649   1.038  11.636  1.1025  0.8628 -1.7528
 7493TIP3   OH243893   4.905   5.446   5.286  0.2400  0.2348 -0.2013
 7493TIP3    H143894   4.830   5.426   5.343 -1.3691 -0.1268 -2.4084
 7493TIP3    H243895   4.871   5.510   5.223  0.9778 -1.9574 -2.9186
 7494TIP3   OH243896   0.271   5.309   2.463  0.1861 -0.2587  0.6431
 7494TIP3    H143897   0.216   5.244   2.507 -2.5121  0.5570 -1.3410
 7494TIP3    H243898   0.325   5.346   2.532 -1.8713 -1.0212  2.7199
 7495TIP3   OH243899   2.545   0.064   0.812 -0.0549 -0.2153  0.2919
 7495TIP3    H143900   2.545   0.147   0.860 -0.0680  0.0793 -0.2177
 7495TIP3    H243901   2.453   0.051   0.788  0.3150  0.9281 -1.8738
 7496TIP3   OH243902   3.193   3.484   5.864 -0.4255  0.2649 -0.1613
 7496TIP3    H143903   3.251   3.507   5.792 -0.4206  0.4758 -0.0901
 7496TIP3    H243904   3.245   3.426   5.919 -0.8279 -0.8799 -0.9614
 7497TIP3   OH243905   3.606   1.570  16.531 -0.1411  0.1055 -0.3035
 7497TIP3    H143906   3.556   1.488  16.531 -0.2540  0.1748 -0.5832
 7497TIP3    H243907   3.550   1.633  16.576 -0.6248  0.3790 -1.2854
 7498TIP3   OH243908   2.836   3.476   3.203 -0.0190 -0.4524 -0.0225
 7498TIP3    H143909   2.879   3.517   3.128 -2.8695 -1.2652 -2.1739
 7498TIP3    H243910   2.774   3.541   3.234  1.3102 -0.0250  1.8676
 7499TIP3   OH243911   2.188   4.719   4.692 -0.0050  0.8601 -0.4023
 7499TIP3    H143912   2.175   4.657   4.621  0.4278  0.5872 -0.2432
 7499TIP3    H243913   2.173   4.805   4.652 -2.8532  0.5468 -0.1115
 7500TIP3   OH243914   4.315   1.424  13.089  0.0176 -0.0373 -0.1459
 7500TIP3    H143915   4.273   1.342  13.063  0.9600 -0.8504  0.8243
 7500TIP3    H243916   4.249   1.468  13.143 -0.1535 -0.5927  0.1061
 7501TIP3   OH243917   3.747   4.747  13.653  0.2886 -0.0425  0.2563
 7501TIP3    H143918   3.771   4.658  13.628  2.5567  0.5620  0.2308
 7501TIP3    H243919   3.728   4.742  13.746 -0.1594 -0.6668  0.1324
 7502TIP3   OH243920   3.484   5.964  16.393  0.0412 -0.3984  0.4587
 7502TIP3    H143921   3.432   5.889  16.423 -0.3293  0.5178  2.1267
 7502TIP3    H243922   3.424   6.012  16.336 -0.5980  0.0430  1.4863
 7503TIP3   OH243923   5.977   3.354   2.022  0.5235  0.3715 -0.1036
 7503TIP3    H143924   5.912   3.305   2.073  0.8823  0.1254  0.1181
 7503TIP3    H243925   5.984   3.307   1.940 -0.4519  1.0737 -0.6005
 7504TIP3   OH243926   0.823   3.035   1.001 -0.4858  0.0047 -0.0263
 7504TIP3    H143927   0.750   3.014   1.059  0.1197  0.0290  0.7598
 7504TIP3    H243928   0.794   3.113   0.953  0.1530  1.8512  2.4341
 7505TIP3   OH243929   3.525   0.223   0.267  0.0753  0.5484 -0.0571
 7505TIP3    H143930   3.480   0.244   0.349 -1.9709 -0.9683 -0.7682
 7505TIP3    H243931   3.470   0.260   0.198  0.6744 -0.0430 -0.8729
 7506TIP3   OH243932   5.354   5.193  12.636 -1.0604  0.5872 -0.1917
 7506TIP3    H143933   5.290   5.125  12.616  0.1803 -0.7713  0.3670
 7506TIP3    H243934   5.409   5.198  12.558 -1.1461  0.9403 -0.2282
 7507TIP3   OH243935   5.405   2.541   1.716  0.2668 -0.2122  0.6071
 7507TIP3    H143936   5.412   2.607   1.648  0.6608 -1.1794 -0.3027
 7507TIP3    H243937   5.480   2.558   1.774  1.2437 -0.7768 -0.4543
 7508TIP3   OH243938   4.919   6.685   4.422 -0.3265 -0.1187  0.6639
 7508TIP3    H143939   4.927   6.603   4.372  0.7964  0.4390 -0.0814
 7508TIP3    H243940   4.987   6.679   4.488  1.2350  1.1766 -0.7789
 7509TIP3   OH243941   1.576   6.023  13.165  0.2016 -0.1642  0.1153
 7509TIP3    H143942   1.557   6.026  13.071  0.8571  1.4551  0.0263
 7509TIP3    H243943   1.671   6.018  13.169  0.1550 -0.5770  0.7005
 7510TIP3   OH243944   1.279   4.018   5.481  0.0495 -0.3452 -0.4388
 7510TIP3    H143945   1.227   4.097   5.493 -0.3622 -1.0159  2.3889
 7510TIP3    H243946   1.367   4.050   5.458 -0.0250  0.9500  1.0507
 7511TIP3   OH243947   2.414   4.893   2.042 -0.3474  0.2198 -0.1180
 7511TIP3    H143948   2.319   4.903   2.031 -0.5014 -1.1154 -0.1404
 7511TIP3    H243949   2.427   4.798   2.045  0.8125  0.4230  1.5153
 7512TIP3   OH243950   1.698   4.104   4.942 -0.1287  0.0441  0.1081
 7512TIP3    H143951   1.689   4.189   4.899 -1.0618 -0.9322 -1.6548
 7512TIP3    H243952   1.788   4.078   4.925 -0.7903 -0.8188 -2.1996
 7513TIP3   OH243953   2.282   0.004   1.617  1.2820 -0.5338 -0.3587
 7513TIP3    H143954   2.334   0.040   1.545  1.0219  1.6835  0.5074
 7513TIP3    H243955   2.334   0.022   1.695  0.5530 -0.9488  0.2250
 7514TIP3   OH243956   5.436   4.430   0.483  0.7780  0.0329  0.0045
 7514TIP3    H143957   5.451   4.341   0.515  0.7614 -0.6487 -1.8461
 7514TIP3    H243958   5.495   4.484   0.536  1.4812 -1.1936  0.5111
 7515TIP3   OH243959   2.698   0.587   5.024 -0.5719 -0.6119 -0.5732
 7515TIP3    H143960   2.753   0.512   5.047 -1.2627 -0.7018  0.7991
 7515TIP3    H243961   2.753   0.663   5.040 -0.6489 -0.7259  0.2111
 7516TIP3   OH243962   2.281   0.889   3.714 -0.0966 -0.5456 -0.5425
 7516TIP3    H143963   2.350   0.931   3.662 -1.3132  0.9459 -0.9642
 7516TIP3    H243964   2.283   0.797   3.687  1.0653 -0.3188 -1.2629
 7517TIP3   OH243965   4.713   3.628  11.897 -0.2733 -0.2843  0.4892
 7517TIP3    H143966   4.731   3.596  11.808 -0.5457 -0.6294  0.5574
 7517TIP3    H243967   4.788   3.601  11.948  1.0084  1.9428 -0.1305
 7518TIP3   OH243968   1.080   5.450   4.570 -0.1403 -0.5349 -0.1807
 7518TIP3    H143969   1.087   5.356   4.557 -0.3697 -0.2594 -2.3599
 7518TIP3    H243970   0.988   5.465   4.589 -0.1877 -0.6746 -0.3055
 7519TIP3   OH243971   5.250   6.016   2.581  0.7338 -0.1230 -0.5604
 7519TIP3    H143972   5.185   5.950   2.606  0.8839  0.0015  0.1602
 7519TIP3    H243973   5.262   6.069   2.660  0.7075  0.6929 -1.1026
 7520TIP3   OH243974   4.991   6.023   3.422  0.2004 -0.2035 -0.2720
 7520TIP3    H143975   4.926   6.027   3.492 -0.1889 -0.1451 -0.6347
 7520TIP3    H243976   4.990   6.110   3.382 -1.0296 -0.8261 -1.6414
 7521TIP3   OH243977   5.695   5.504  16.921  0.5887  0.0974  0.2253
 7521TIP3    H143978   5.699   5.527  16.828  2.1340 -2.3700 -0.3406
 7521TIP3    H243979   5.688   5.409  16.923  1.1540  0.0593  2.6605
 7522TIP3   OH243980   3.555   5.990   0.852 -0.3710  0.0151  0.2129
 7522TIP3    H143981   3.537   6.046   0.776 -1.0282 -1.5037 -0.7767
 7522TIP3    H243982   3.529   6.043   0.927 -0.4435  1.2555 -0.6554
 7523TIP3   OH243983   2.298   3.269   2.575  0.7304  0.4099 -0.7226
 7523TIP3    H143984   2.314   3.317   2.494  0.7760 -0.3594 -1.1687
 7523TIP3    H243985   2.375   3.213   2.586 -0.2486 -1.0841 -1.2974
 7524TIP3   OH243986   3.915   5.229  17.108  0.2044 -0.1193 -0.3144
 7524TIP3    H143987   3.844   5.186  17.060  0.6324 -1.0576 -0.1212
 7524TIP3    H243988   3.905   5.322  17.087 -0.6952 -0.3140 -0.7910
 7525TIP3   OH243989   1.546   4.253   1.869 -0.5504  0.3498 -0.2057
 7525TIP3    H143990   1.486   4.181   1.891  2.0469 -1.3922  1.4595
 7525TIP3    H243991   1.578   4.231   1.781 -0.4913 -0.0410 -0.0882
 7526TIP3   OH243992   5.185   1.813   3.045 -0.0368  0.2997 -0.2172
 7526TIP3    H143993   5.187   1.728   3.089 -0.1168 -0.1509 -1.0697
 7526TIP3    H243994   5.276   1.837   3.034 -0.0017  1.7117  2.6267
 7527TIP3   OH243995   4.000   2.293  14.391  0.0607 -0.2140 -0.3611
 7527TIP3    H143996   3.918   2.245  14.383 -0.1347  0.2968 -1.5672
 7527TIP3    H243997   3.986   2.373  14.340  0.8882  0.4501  0.4190
 7528TIP3   OH243998   0.210   4.665   3.283 -0.0470 -0.3465 -0.0297
 7528TIP3    H143999   0.240   4.576   3.302  1.1240  0.2539  1.0504
 7528TIP3    H244000   0.287   4.720   3.299 -1.2677  1.0553  1.1511
 7529TIP3   OH244001   4.392   2.797  13.462  0.3003  0.5412  0.6004
 7529TIP3    H144002   4.453   2.809  13.390 -0.4654 -0.3323 -0.2173
 7529TIP3    H244003   4.320   2.858  13.444 -1.1367 -1.5030 -0.8032
 7530TIP3   OH244004   4.952   2.022   5.597  0.3360  0.2638 -0.0624
 7530TIP3    H144005   4.909   2.078   5.532 -0.0337  1.6242  1.2954
 7530TIP3    H244006   4.896   2.029   5.675 -0.1218 -2.6300 -0.0767
 7531TIP3   OH244007   3.213   1.304  17.006 -0.0104  0.0142  0.1019
 7531TIP3    H144008   3.225   1.386  16.957 -1.4584 -0.0130 -0.3395
 7531TIP3    H244009   3.285   1.302  17.068  0.1607  1.5409 -0.0184
 7532TIP3   OH244010   1.920   0.452  12.239 -0.0847  0.3017 -0.2973
 7532TIP3    H144011   1.909   0.485  12.328 -1.2584  0.9799 -0.6745
 7532TIP3    H244012   1.984   0.382  12.247 -0.6436 -0.0677  1.1841
 7533TIP3   OH244013   6.323   1.563   2.133  0.1593 -0.1982 -0.1120
 7533TIP3    H144014   6.314   1.634   2.068  0.0012 -0.2895 -0.1896
 7533TIP3    H244015   6.400   1.514   2.104 -0.6163 -0.9491 -0.9091
 7534TIP3   OH244016   2.211   5.644   3.419  0.2328  0.6735  0.1498
 7534TIP3    H144017   2.225   5.659   3.512  2.5905 -0.2828 -0.0247
 7534TIP3    H244018   2.228   5.550   3.407  1.7034  1.1396 -1.5348
 7535TIP3   OH244019   0.596   5.626  12.419 -0.4233  0.3478 -0.1772
 7535TIP3    H144020   0.669   5.593  12.471 -1.8044 -2.4883  0.0804
 7535TIP3    H244021   0.631   5.635  12.331  0.1582 -1.4925 -0.1690
 7536TIP3   OH244022   0.548   6.081  11.120 -0.8128  0.4337 -0.1117
 7536TIP3    H144023   0.613   6.016  11.144 -2.3183 -0.7000  1.0145
 7536TIP3    H244024   0.518   6.117  11.203 -0.5258  2.0565 -0.6876
 7537TIP3   OH244025   4.537   4.156  12.575 -0.1282 -0.0806 -0.0528
 7537TIP3    H144026   4.461   4.146  12.631  0.6221 -1.7283  0.6854
 7537TIP3    H244027   4.586   4.229  12.614 -0.5079 -0.0514  0.3754
 7538TIP3   OH244028   0.221   0.551  17.091 -0.8979  0.1138 -0.5263
 7538TIP3    H144029   0.244   0.558  17.183  0.1062  0.3221 -0.7833
 7538TIP3    H244030   0.156   0.481  17.087 -0.4212 -0.3753  0.2506
 7539TIP3   OH244031   5.370   6.007   0.662 -0.0268  0.1260 -0.2317
 7539TIP3    H144032   5.377   5.913   0.682 -0.9066 -0.0967 -0.9139
 7539TIP3    H244033   5.405   6.051   0.739 -2.4611 -0.7143  1.4271
 7540TIP3   OH244034   6.313   0.784  11.273  0.0408 -0.5373  0.1797
 7540TIP3    H144035   6.232   0.832  11.254 -0.2709 -1.4606 -0.8851
 7540TIP3    H244036   6.341   0.750  11.188  0.9228 -1.2022  0.7295
 7541TIP3   OH244037   0.134   6.576  15.618  0.3855 -0.4538 -0.6391
 7541TIP3    H144038   0.187   6.644  15.575 -0.9453  0.4139 -0.9460
 7541TIP3    H244039   0.046   6.588  15.582 -0.3710 -0.8663  1.0128
 7542TIP3   OH244040   0.004   1.857  16.724  0.5627 -0.5020 -0.1669
 7542TIP3    H144041   0.064   1.787  16.748  1.2022  0.1849  0.2793
 7542TIP3    H244042   0.060   1.926  16.689 -0.0857 -0.3177 -0.8430
 7543TIP3   OH244043   4.720   4.260   1.533  0.1021  0.0456  0.0607
 7543TIP3    H144044   4.695   4.282   1.623  0.0227  2.3214 -0.4767
 7543TIP3    H244045   4.639   4.231   1.491 -0.4962  1.8597 -0.0827
 7544TIP3   OH244046   1.700   1.912  13.191  0.3161 -0.4221 -0.3713
 7544TIP3    H144047   1.712   1.936  13.099  0.5062 -0.1826 -0.2860
 7544TIP3    H244048   1.607   1.893  13.199  0.3264 -0.5910 -0.6476
 7545TIP3   OH244049   2.555   6.761  13.048  0.0951  0.5047 -0.1219
 7545TIP3    H144050   2.466   6.740  13.023  0.4589  0.1230 -1.0994
 7545TIP3    H244051   2.550   6.849  13.087 -0.3959  1.2662 -1.8926
 7546TIP3   OH244052   3.344   4.274  11.048  0.0771 -0.3687  0.4330
 7546TIP3    H144053   3.358   4.274  10.953  1.8811  0.2292  0.6759
 7546TIP3    H244054   3.257   4.237  11.060 -0.6112  0.5508 -1.5247
 7547TIP3   OH244055   3.925   3.622   0.778 -0.4654  0.2238  0.1905
 7547TIP3    H144056   3.887   3.538   0.805  0.0575  0.4590  1.7046
 7547TIP3    H244057   4.009   3.600   0.740  0.0891  0.1245  1.4489
 7548TIP3   OH244058   5.309   6.156   4.901 -0.1821 -0.9784  0.4632
 7548TIP3    H144059   5.362   6.123   4.973 -1.3093  1.2413  2.3961
 7548TIP3    H244060   5.222   6.118   4.916 -0.0925 -1.5806 -0.5093
 7549TIP3   OH244061   3.911   5.854   4.606  0.3034  0.1020 -0.8576
 7549TIP3    H144062   3.870   5.774   4.636  0.6525  0.0721 -0.4615
 7549TIP3    H244063   4.004   5.833   4.600  0.1813 -0.0626 -2.4876
 7550TIP3   OH244064   6.264   5.897  13.739 -0.4336  0.5453 -0.5603
 7550TIP3    H144065   6.209   5.820  13.724 -0.3779  0.6053 -1.0598
 7550TIP3    H244066   6.318   5.904  13.661  0.8405  0.0348  0.2413
 7551TIP3   OH244067   5.190   2.758  11.859  0.2245 -0.0075  0.3633
 7551TIP3    H144068   5.135   2.682  11.842 -1.3157  0.0956  4.4325
 7551TIP3    H244069   5.145   2.830  11.816 -0.3188 -0.7337 -0.2945
 7552TIP3   OH244070   1.544   0.475  11.987 -0.5043  0.3331 -0.0773
 7552TIP3    H144071   1.486   0.545  11.956  0.8037  1.0710 -0.9189
 7552TIP3    H244072   1.493   0.395  11.976 -1.1566  0.9017 -1.3467
 7553TIP3   OH244073   3.770   5.750   0.129 -0.0139  0.1019 -0.4154
 7553TIP3    H144074   3.857   5.726   0.160 -0.8228 -1.3667  0.7846
 7553TIP3    H244075   3.735   5.670   0.091 -0.9243  0.6458 -0.7498
 7554TIP3   OH244076   3.086   6.545   5.359  0.0441 -0.0628  0.0614
 7554TIP3    H144077   3.024   6.479   5.389  0.6918 -0.6957  0.0109
 7554TIP3    H244078   3.172   6.512   5.385  0.4196  0.4938 -0.4464
 7555TIP3   OH244079   0.280   3.795  14.009 -0.3798  0.1619  0.3351
 7555TIP3    H144080   0.249   3.720  14.060  0.3696  0.0485  0.6255
 7555TIP3    H244081   0.374   3.780  13.998 -0.4826  0.3018 -0.8840
 7556TIP3   OH244082   0.199   3.262  13.503 -0.1527 -0.5435 -0.0276
 7556TIP3    H144083   0.201   3.358  13.500 -0.5459 -0.5266  0.3017
 7556TIP3    H244084   0.123   3.241  13.557 -0.7782 -1.0634 -1.0943
 7557TIP3   OH244085   6.713   5.793   6.025  0.0589  0.5300  0.0489
 7557TIP3    H144086   6.757   5.708   6.023 -0.7115  0.1414 -0.7401
 7557TIP3    H244087   6.647   5.784   6.094 -0.4268  0.2797 -0.4454
 7558TIP3   OH244088   1.988   6.172  16.831  0.3829 -0.0248  0.3128
 7558TIP3    H144089   1.951   6.208  16.751  0.9985 -0.4934 -0.1886
 7558TIP3    H244090   2.082   6.165  16.814  0.2668 -1.9735  0.3387
 7559TIP3   OH244091   6.533   4.188   1.855  0.2762  0.4544  0.1464
 7559TIP3    H144092   6.505   4.134   1.930  1.5003  1.6970  1.5241
 7559TIP3    H244093   6.588   4.256   1.893  0.3092  1.5689 -1.8149
 7560TIP3   OH244094   1.709   4.932   4.080 -0.0743 -0.7071 -0.3340
 7560TIP3    H144095   1.672   4.970   4.160 -0.3433  0.0662 -0.8151
 7560TIP3    H244096   1.659   4.973   4.009  2.5649  1.3714 -1.0756
 7561TIP3   OH244097   2.508   5.394  16.774  0.2855 -0.2530 -0.5130
 7561TIP3    H144098   2.591   5.425  16.811 -0.2316 -1.3113  1.6187
 7561TIP3    H244099   2.506   5.301  16.797 -1.6873 -0.1334 -0.1759
 7562TIP3   OH244100   2.573   5.163   4.489  0.2188  0.4489 -0.1234
 7562TIP3    H144101   2.573   5.103   4.563 -0.9811  1.5291  0.7826
 7562TIP3    H244102   2.480   5.179   4.470  0.4506  3.6669  1.0729
 7563TIP3   OH244103   0.363   0.894  15.271  0.0695 -0.4280  0.7663
 7563TIP3    H144104   0.339   0.984  15.252  1.9075  0.1387  1.0672
 7563TIP3    H244105   0.326   0.843  15.199 -2.2671  0.3567  1.3715
 7564TIP3   OH244106   3.859   6.407   2.740 -0.0264  0.0624  0.0743
 7564TIP3    H144107   3.782   6.462   2.726 -0.7126 -0.6460  0.9744
 7564TIP3    H244108   3.823   6.320   2.761  0.9888 -0.0336  1.5160
 7565TIP3   OH244109   5.249   3.724  12.797 -0.7744  0.4182 -0.1841
 7565TIP3    H144110   5.229   3.716  12.704 -0.8877  0.1655 -0.1380
 7565TIP3    H244111   5.254   3.818  12.813 -3.7132  0.5475  0.1947
 7566TIP3   OH244112   6.508   3.456   2.611 -0.3660 -0.0869  0.0083
 7566TIP3    H144113   6.511   3.538   2.562  0.3036 -0.1544 -0.0713
 7566TIP3    H244114   6.580   3.404   2.575  0.4797  0.0757  1.4088
 7567TIP3   OH244115   2.365   5.316   1.224  0.1979  0.0402 -0.2932
 7567TIP3    H144116   2.308   5.357   1.289  1.6172  0.4316  0.7301
 7567TIP3    H244117   2.305   5.288   1.155 -0.9553  2.7682 -0.4843
 7568TIP3   OH244118   4.478   1.040  14.002  0.8368  0.2276  0.2731
 7568TIP3    H144119   4.390   1.065  13.972  1.0266  1.5795  0.7938
 7568TIP3    H244120   4.462   0.984  14.078  0.4171  0.4221  0.3310
 7569TIP3   OH244121   0.158   2.669   0.293  0.3045  0.2495  0.0780
 7569TIP3    H144122   0.064   2.683   0.278  0.2856 -1.4746 -1.6452
 7569TIP3    H244123   0.197   2.673   0.205  1.5723 -0.9753  0.5687
 7570TIP3   OH244124   1.231   2.785   4.347 -0.0155 -0.0993 -0.2248
 7570TIP3    H144125   1.314   2.790   4.298  0.1941  0.3574  0.1693
 7570TIP3    H244126   1.255   2.810   4.436  0.5760 -5.6643  1.3370
 7571TIP3   OH244127   4.861   4.051   2.996 -0.1129  0.0564 -0.0045
 7571TIP3    H144128   4.777   4.007   2.983  0.5066 -0.9093 -0.8321
 7571TIP3    H244129   4.909   3.995   3.056 -0.0897  0.6644  0.5528
 7572TIP3   OH244130   0.863   2.317   1.391 -0.3216  0.7781 -0.3762
 7572TIP3    H144131   0.853   2.406   1.356 -1.1521  0.1182 -1.8927
 7572TIP3    H244132   0.925   2.275   1.331 -0.8024 -0.0025 -0.3335
 7573TIP3   OH244133   3.270   0.527   3.975 -0.5056 -0.2586  0.0238
 7573TIP3    H144134   3.306   0.481   3.899 -1.6657 -2.3263  0.6746
 7573TIP3    H244135   3.252   0.457   4.039 -1.4810  1.2061  1.3881
 7574TIP3   OH244136   5.852   0.846   3.637  0.2351 -0.4913  0.0315
 7574TIP3    H144137   5.765   0.810   3.624 -0.6231  1.1661  0.9991
 7574TIP3    H244138   5.888   0.798   3.711 -0.1928 -0.6211  0.1547
 7575TIP3   OH244139   5.747   6.312   1.903  0.3147  0.4023 -0.0124
 7575TIP3    H144140   5.777   6.278   1.988  0.7860 -0.0369 -0.3502
 7575TIP3    H244141   5.806   6.385   1.884  0.3396  0.3699 -0.0608
 7576TIP3   OH244142   0.005   0.630   2.075 -0.5906  0.2384 -0.1151
 7576TIP3    H144143  -0.011   0.708   2.022  1.3128  0.8987  0.2444
 7576TIP3    H244144  -0.079   0.611   2.117 -1.9692  0.1045 -2.8224
 7577TIP3   OH244145   4.740   5.713  15.273 -0.0795  0.1337 -0.1426
 7577TIP3    H144146   4.757   5.786  15.332  3.3202  0.4107 -1.3521
 7577TIP3    H244147   4.730   5.637  15.331  2.1026  0.5900  0.8505
 7578TIP3   OH244148   3.291   0.414   5.762  0.5999  0.2753  0.4046
 7578TIP3    H144149   3.296   0.509   5.773 -0.3146  0.2908  0.7439
 7578TIP3    H244150   3.197   0.396   5.756  0.7551 -0.6565  0.7522
 7579TIP3   OH244151   4.340   2.527   2.345  0.3465 -0.3285 -0.6343
 7579TIP3    H144152   4.400   2.554   2.276  1.6374  0.2305  0.6758
 7579TIP3    H244153   4.254   2.553   2.314  1.2057  2.4134 -0.8361
 7580TIP3   OH244154   6.111   1.636  12.364  0.3156  0.1997  0.3111
 7580TIP3    H144155   6.061   1.568  12.410 -0.6821 -1.1735 -2.6325
 7580TIP3    H244156   6.179   1.588  12.318  1.5646  1.5833  0.7060
 7581TIP3   OH244157   0.240   5.652  11.796 -0.4572  0.2662 -0.1367
 7581TIP3    H144158   0.259   5.737  11.756  0.5276 -0.0203 -0.2843
 7581TIP3    H244159   0.267   5.588  11.730 -3.3666 -0.1545 -1.0009
 7582TIP3   OH244160   2.669   6.463   0.705 -0.1814 -0.3591 -0.5493
 7582TIP3    H144161   2.618   6.435   0.629  0.3892  0.0588 -1.0906
 7582TIP3    H244162   2.758   6.433   0.688 -0.5068 -2.3305  1.0555
 7583TIP3   OH244163   3.820   0.604  12.985 -0.0347  0.1729 -0.1533
 7583TIP3    H144164   3.796   0.668  13.052  0.1273 -0.7164  0.7557
 7583TIP3    H244165   3.784   0.521  13.016  1.0805 -0.4750 -0.5520
 7584TIP3   OH244166   3.977   4.930  14.224  0.3698  0.0749  0.7384
 7584TIP3    H144167   4.071   4.939  14.239  0.2710  0.8837  0.8915
 7584TIP3    H244168   3.936   4.991  14.286 -0.2717 -0.5328  0.9217
 7585TIP3   OH244169   2.632   4.262  14.776 -0.2311  0.1225  0.2371
 7585TIP3    H144170   2.696   4.201  14.740 -2.8948 -2.1708 -0.8436
 7585TIP3    H244171   2.579   4.208  14.835 -1.3575  1.8668  0.8611
 7586TIP3   OH244172   0.358   2.086  11.404  0.3519  0.2933 -0.0592
 7586TIP3    H144173   0.265   2.097  11.422  0.4081  0.9478 -0.1701
 7586TIP3    H244174   0.401   2.154  11.455  0.8422 -0.5315  0.6430
 7587TIP3   OH244175   5.992   2.564   0.869  0.5221 -0.1243  0.0291
 7587TIP3    H144176   5.957   2.496   0.928  0.4471 -0.6036 -0.5628
 7587TIP3    H244177   6.086   2.545   0.865  0.4438 -0.4159 -0.4263
 7588TIP3   OH244178   4.293   0.034   6.704 -0.3453  0.3816 -0.5788
 7588TIP3    H144179   4.374   0.052   6.656  1.4783 -0.8218  1.9654
 7588TIP3    H244180   4.289   0.103   6.770 -0.2773 -0.7527  0.6343
 7589TIP3   OH244181   6.514   6.729   0.046 -0.6640 -0.1615  0.0159
 7589TIP3    H144182   6.573   6.731   0.122 -0.3520 -1.8263 -0.1759
 7589TIP3    H244183   6.509   6.821   0.018 -0.1003  0.3492  1.5153
 7590TIP3   OH244184   4.308   5.524   0.147 -0.4545  0.7949  0.5703
 7590TIP3    H144185   4.297   5.498   0.238 -3.0580  0.0961  0.0860
 7590TIP3    H244186   4.376   5.592   0.149  1.0627 -0.7345  2.7320
 7591TIP3   OH244187   6.355   3.893  14.887  0.0170 -0.6284  0.6063
 7591TIP3    H144188   6.304   3.964  14.848 -1.6869 -1.5375  1.1051
 7591TIP3    H244189   6.442   3.929  14.899 -0.5392  1.0183 -0.1536
 7592TIP3   OH244190   5.167   5.158   3.303  0.4250  0.2094 -0.4114
 7592TIP3    H144191   5.156   5.185   3.394  1.0298  1.3734 -0.6758
 7592TIP3    H244192   5.093   5.197   3.257  0.0965 -0.4122 -0.4252
 7593TIP3   OH244193   0.492   3.773  12.385 -0.6639  0.4671  0.2931
 7593TIP3    H144194   0.562   3.837  12.375 -1.7238  1.8607  1.4795
 7593TIP3    H244195   0.531   3.704  12.438  0.0000  0.9461  0.4471
 7594TIP3   OH244196   4.280   3.152   4.130 -0.1798  0.2402  0.4918
 7594TIP3    H144197   4.262   3.058   4.140 -1.5996  0.5698  1.1419
 7594TIP3    H244198   4.205   3.195   4.172  2.3248  1.6527  3.7236
 7595TIP3   OH244199   1.107   2.153   3.886  0.0031 -0.0632 -0.3945
 7595TIP3    H144200   1.162   2.195   3.820  0.2575  0.6601  0.2850
 7595TIP3    H244201   1.148   2.067   3.900 -0.6504 -0.6527 -1.9498
 7596TIP3   OH244202   4.555   6.633  11.449  0.3111  0.0331 -0.9063
 7596TIP3    H144203   4.626   6.577  11.418  0.2759 -0.1580 -0.6391
 7596TIP3    H244204   4.500   6.646  11.372  0.7527  0.3660 -1.1713
 7597TIP3   OH244205   1.439   4.791   1.917 -0.5728 -0.3812  0.4404
 7597TIP3    H144206   1.494   4.723   1.879 -0.3392 -0.4522  0.8971
 7597TIP3    H244207   1.406   4.840   1.842  0.3417 -0.1578  0.1771
 7598TIP3   OH244208   1.720   3.165  12.849  0.1004 -0.2140  0.3046
 7598TIP3    H144209   1.754   3.244  12.892 -0.7089  0.5281 -0.4065
 7598TIP3    H244210   1.773   3.157  12.769 -1.6277  1.1936 -1.0328
 7599TIP3   OH244211   6.752   0.144   2.462 -0.2332  0.8374 -0.1028
 7599TIP3    H144212   6.700   0.128   2.540  1.1676  2.7568  1.2671
 7599TIP3    H244213   6.840   0.114   2.486  0.5326  2.7934 -0.4134
 7600TIP3   OH244214   4.091   3.455   1.207 -0.3358 -0.3155  0.0108
 7600TIP3    H144215   4.033   3.440   1.282  0.6184  0.6114  0.9639
 7600TIP3    H244216   4.065   3.542   1.176  0.2854 -0.0584  0.2111
 7601TIP3   OH244217   5.621   2.178  15.801 -0.2231 -0.0962  0.1368
 7601TIP3    H144218   5.632   2.219  15.886 -0.9113 -2.6022  1.4861
 7601TIP3    H244219   5.529   2.148  15.800 -0.1965 -0.1888 -1.4248
 7602TIP3   OH244220   3.027   0.954   2.651  0.3930  0.7468 -1.0370
 7602TIP3    H144221   2.942   0.917   2.677  1.6915 -1.5057  0.1304
 7602TIP3    H244222   3.038   0.926   2.560  1.8816 -2.8801  0.1750
 7603TIP3   OH244223   5.987   2.397  16.550  0.0243 -0.1812 -0.8316
 7603TIP3    H144224   6.028   2.359  16.473 -1.5284 -3.0131 -0.3596
 7603TIP3    H244225   5.924   2.460  16.516 -0.7653 -1.5327 -1.9415
 7604TIP3   OH244226   1.496   5.584  13.476 -0.8483 -0.7321 -0.8896
 7604TIP3    H144227   1.557   5.513  13.455  1.7947  0.7990  1.3318
 7604TIP3    H244228   1.503   5.645  13.403 -0.1142 -0.8286 -0.8979
 7605TIP3   OH244229   2.885   2.607  16.576  0.0326  0.6192 -0.6002
 7605TIP3    H144230   2.806   2.603  16.630  0.6436 -0.6851  0.2231
 7605TIP3    H244231   2.893   2.700  16.553 -2.1247  0.6616 -1.2975
 7606TIP3   OH244232   5.430   1.256   3.242  0.2152  0.5237  0.0410
 7606TIP3    H144233   5.376   1.185   3.276  0.8950  0.7449  1.6183
 7606TIP3    H244234   5.517   1.238   3.277  0.3770  2.1505  0.5062
 7607TIP3   OH244235   1.889   0.251   5.647 -0.5875 -0.2082 -0.0923
 7607TIP3    H144236   1.815   0.193   5.664  0.1854 -1.2370 -0.1849
 7607TIP3    H244237   1.863   0.335   5.685 -1.0588 -1.0537  1.4826
 7608TIP3   OH244238   1.362   1.587   1.360  0.0896  0.6716 -0.8100
 7608TIP3    H144239   1.405   1.613   1.442  0.2016 -1.1523 -0.2715
 7608TIP3    H244240   1.434   1.576   1.298  0.2380 -0.2814 -0.4863
 7609TIP3   OH244241   3.595   3.954   4.256 -0.0862 -0.2077  0.1331
 7609TIP3    H144242   3.680   3.917   4.233  0.0885  1.1793 -1.5496
 7609TIP3    H244243   3.575   3.916   4.342  2.5545  0.0056  0.8938
 7610TIP3   OH244244   1.926   1.952  12.843 -0.3108  0.4691  0.2694
 7610TIP3    H144245   2.007   1.997  12.821 -0.7691  0.1076 -2.3331
 7610TIP3    H244246   1.877   2.014  12.897  1.3545  0.9840  1.2052
 7611TIP3   OH244247   3.831   5.562   1.300 -0.2970  0.0849 -0.2667
 7611TIP3    H144248   3.777   5.639   1.286  0.1115  0.7937  1.8605
 7611TIP3    H244249   3.921   5.592   1.284 -0.1336  0.0873  0.6151
 7612TIP3   OH244250   4.546   3.655   1.234  0.3147 -0.0199 -0.0078
 7612TIP3    H144251   4.612   3.608   1.183  0.4441  0.4332 -0.2529
 7612TIP3    H244252   4.499   3.585   1.281  1.5104 -0.2807  0.8259
 7613TIP3   OH244253   0.602   2.234   3.521  0.2007  0.3881 -0.0603
 7613TIP3    H144254   0.560   2.311   3.482  0.4710  0.2868 -0.5666
 7613TIP3    H244255   0.684   2.268   3.556 -0.8154  0.8086  1.9585
 7614TIP3   OH244256   4.529   3.029   0.499 -0.0252 -0.1583 -0.0946
 7614TIP3    H144257   4.479   3.105   0.471  2.8516  1.3795 -1.3007
 7614TIP3    H244258   4.536   2.974   0.421 -2.3648 -1.8648  0.8537
 7615TIP3   OH244259   1.806   4.077   2.127  0.5179  0.0423 -0.3859
 7615TIP3    H144260   1.902   4.080   2.123  0.6094  0.0758  1.3501
 7615TIP3    H244261   1.780   4.029   2.049  1.8889  1.0873 -1.5121
 7616TIP3   OH244262   3.313   2.311  14.244 -0.3076  0.0169 -0.0504
 7616TIP3    H144263   3.341   2.265  14.324  0.0965  1.5263  0.6982
 7616TIP3    H244264   3.394   2.324  14.195 -0.4375 -0.1504 -0.3099
 7617TIP3   OH244265   0.100   2.304   1.719 -0.3003 -0.3805  0.5497
 7617TIP3    H144266   0.096   2.221   1.672  1.1137 -0.6632  0.9077
 7617TIP3    H244267   0.033   2.297   1.787 -0.1158 -1.2826  0.6483
 7618TIP3   OH244268   6.234   4.703  16.376 -0.0926 -1.0415  0.3527
 7618TIP3    H144269   6.170   4.760  16.336  0.6216  0.8149  1.7833
 7618TIP3    H244270   6.185   4.625  16.401 -1.0812 -1.0561 -1.5795
 7619TIP3   OH244271   5.214   3.370  11.205  0.5272 -0.4229 -0.4956
 7619TIP3    H144272   5.212   3.308  11.278  0.0799 -0.7007 -0.7421
 7619TIP3    H244273   5.122   3.382  11.181  0.5852  0.5320 -0.2837
 7620TIP3   OH244274   3.662   1.640   1.277 -0.6087 -0.1658  0.0743
 7620TIP3    H144275   3.601   1.570   1.255 -1.3702  0.4194  0.3247
 7620TIP3    H244276   3.617   1.691   1.344 -0.3582  0.9915 -0.6367
 7621TIP3   OH244277   5.071   6.737   0.409  0.5929  0.2823  0.0975
 7621TIP3    H144278   5.093   6.830   0.405  1.6531  0.0061 -0.6682
 7621TIP3    H244279   5.014   6.723   0.333 -1.9731  0.9112  1.8480
 7622TIP3   OH244280   1.083   6.063  14.690 -0.3045 -0.5330 -0.9846
 7622TIP3    H144281   1.158   6.019  14.649 -0.9767 -1.2389 -1.4680
 7622TIP3    H244282   1.107   6.069  14.783  0.2883 -0.8887 -1.1098
 7623TIP3   OH244283   1.016   1.671   3.273 -0.7113 -0.4752  0.3250
 7623TIP3    H144284   1.063   1.715   3.202 -1.9062 -0.6282 -0.5995
 7623TIP3    H244285   1.037   1.721   3.351 -0.5441  0.6068 -0.3951
 7624TIP3   OH244286   5.969   5.136  10.927 -0.8079 -0.0613 -0.3729
 7624TIP3    H144287   5.929   5.065  10.976  0.9104 -0.2445  0.8084
 7624TIP3    H244288   5.994   5.097  10.843  0.0285 -0.8568  0.2293
 7625TIP3   OH244289   3.586   6.785  14.081 -0.0160  0.6601 -0.5681
 7625TIP3    H144290   3.548   6.706  14.118 -1.9925  2.8612  2.2734
 7625TIP3    H244291   3.673   6.790  14.121 -0.0496  0.1565 -0.4244
 7626TIP3   OH244292   5.828   3.400   5.772  0.0261 -0.3798 -0.5193
 7626TIP3    H144293   5.856   3.400   5.864  1.1872  3.1512 -0.7980
 7626TIP3    H244294   5.886   3.337   5.729 -0.4048 -1.9288  1.0861
 7627TIP3   OH244295   0.302   5.401   4.802 -0.5716 -0.2198  0.0117
 7627TIP3    H144296   0.364   5.474   4.802  0.2474 -0.8710 -2.3996
 7627TIP3    H244297   0.232   5.429   4.861 -0.1072  2.3598 -0.5990
 7628TIP3   OH244298   1.261   4.795  13.154  0.1203  0.0141  0.3274
 7628TIP3    H144299   1.234   4.877  13.194 -0.6134  0.3592 -0.8298
 7628TIP3    H244300   1.353   4.808  13.131  0.2108  0.2381  0.8355
 7629TIP3   OH244301   2.019   1.677  16.802  0.0677 -0.3602  0.0065
 7629TIP3    H144302   2.083   1.744  16.777 -0.1882 -0.4878 -1.0050
 7629TIP3    H244303   1.940   1.727  16.825 -0.1377 -0.3220 -0.7951
 7630TIP3   OH244304   0.283   5.060   0.897 -0.1693 -0.2076  0.5228
 7630TIP3    H144305   0.301   4.968   0.916 -1.5374 -0.3904  0.9855
 7630TIP3    H244306   0.211   5.058   0.834  1.3183  0.5051 -1.2284
 7631TIP3   OH244307   5.805   4.961  14.923 -0.2606  0.3563  0.3861
 7631TIP3    H144308   5.827   5.041  14.875 -1.4928  1.4056  1.5197
 7631TIP3    H244309   5.823   4.983  15.015 -4.0049  0.6127  1.1486
 7632TIP3   OH244310   1.777   0.763   3.945  0.0111 -0.0077  0.3302
 7632TIP3    H144311   1.767   0.792   3.855 -0.7342 -0.8854  0.1298
 7632TIP3    H244312   1.789   0.844   3.995  0.0596  0.4999 -0.4974
 7633TIP3   OH244313   6.088   1.704   0.566 -0.4292 -0.3526  0.3190
 7633TIP3    H144314   6.110   1.630   0.623  0.3169 -1.5392 -1.4774
 7633TIP3    H244315   6.122   1.679   0.480 -0.4772  1.9409 -0.3871
 7634TIP3   OH244316   3.802   2.347   1.774  0.0587 -0.3070  0.0174
 7634TIP3    H144317   3.875   2.375   1.829  0.4316  1.4680 -1.3422
 7634TIP3    H244318   3.833   2.360   1.684 -1.8036  0.1750 -0.5776
 7635TIP3   OH244319   5.957   1.662   0.834 -0.1202 -0.1288  0.6266
 7635TIP3    H144320   5.935   1.582   0.883 -1.9702 -0.3145 -0.4555
 7635TIP3    H244321   5.921   1.733   0.888 -2.7139 -0.3731 -0.6937
 7636TIP3   OH244322   4.057   1.897   4.816 -0.0519  0.0500  0.2098
 7636TIP3    H144323   4.138   1.916   4.769  1.0065  2.1360  2.7680
 7636TIP3    H244324   3.997   1.967   4.790 -0.8106 -1.0296 -1.0408
 7637TIP3   OH244325   2.741   0.468  11.606  0.4456  0.1659  0.1190
 7637TIP3    H144326   2.709   0.556  11.586  1.6498  0.4987 -0.4225
 7637TIP3    H244327   2.745   0.424  11.521  0.1632 -0.3095  0.3462
 7638TIP3   OH244328   5.732   6.064   6.573  0.2394  0.2744 -0.3592
 7638TIP3    H144329   5.667   6.003   6.607  1.3662 -0.0637  1.2263
 7638TIP3    H244330   5.688   6.107   6.499 -1.7653  0.0018  0.6371
 7639TIP3   OH244331   5.140   0.539   1.966 -0.3336 -0.2502 -0.6112
 7639TIP3    H144332   5.132   0.603   1.895  0.0773 -2.3502 -2.5848
 7639TIP3    H244333   5.152   0.455   1.922  0.2119 -1.5629  1.9534
 7640TIP3   OH244334   4.292   4.789   1.883  0.5972 -0.1291  0.5512
 7640TIP3    H144335   4.211   4.798   1.935 -0.3062 -2.9647 -0.2759
 7640TIP3    H244336   4.339   4.717   1.925  1.4739 -0.2038 -0.5559
 7641TIP3   OH244337   1.980   1.568  12.263 -0.6018  0.2037  0.3864
 7641TIP3    H144338   1.976   1.600  12.173  0.1496 -0.2854  0.1781
 7641TIP3    H244339   1.935   1.483  12.261 -2.5104  1.1611  0.9235
 7642TIP3   OH244340   6.672   3.926  13.813  0.0892  0.1799  0.3912
 7642TIP3    H144341   6.616   3.907  13.737  1.7571  1.5703 -1.2066
 7642TIP3    H244342   6.643   4.012  13.842  0.7177  0.4573  0.1870
 7643TIP3   OH244343   3.876   6.767   4.903 -0.4402  0.1513  0.0550
 7643TIP3    H144344   3.961   6.789   4.865  0.4747 -0.8779  1.4474
 7643TIP3    H244345   3.853   6.843   4.956 -0.8883  0.8683 -1.1744
 7644TIP3   OH244346   5.513   1.919  17.037  0.1134 -0.0587 -0.2767
 7644TIP3    H144347   5.529   1.850  17.101  0.4890  0.7269  0.5007
 7644TIP3    H244348   5.452   1.881  16.975 -0.6022 -0.6965  0.7909
 7645TIP3   OH244349   6.381   0.370   5.447  0.0547 -0.1692  0.1263
 7645TIP3    H144350   6.400   0.361   5.540 -2.5843 -1.3758  0.5862
 7645TIP3    H244351   6.452   0.322   5.404  1.0713  0.0475  1.5228
 7646TIP3   OH244352   0.720   0.133   3.650  0.2921  0.1341 -0.4210
 7646TIP3    H144353   0.651   0.072   3.678  0.0669  0.4066 -0.3753
 7646TIP3    H244354   0.799   0.080   3.643  0.3644  0.0736  0.7789
 7647TIP3   OH244355   3.344   4.193   2.046  0.6711 -0.2622 -0.5818
 7647TIP3    H144356   3.255   4.169   2.073  0.8923 -1.6366 -1.0191
 7647TIP3    H244357   3.346   4.289   2.050 -0.8052 -0.2310 -0.5156
 7648TIP3   OH244358   4.584   6.409   1.763 -0.0671 -0.2034 -0.1853
 7648TIP3    H144359   4.624   6.382   1.680 -1.0245  0.0184 -0.7344
 7648TIP3    H244360   4.622   6.495   1.781  1.9088 -1.2564  0.8300
 7649TIP3   OH244361   3.876   5.622   2.013 -0.4266  0.1836 -0.3764
 7649TIP3    H144362   3.880   5.545   1.957  0.6535 -0.7941  0.9876
 7649TIP3    H244363   3.954   5.673   1.990 -1.1498  0.9009 -1.2910
 7650TIP3   OH244364   3.598   6.057   1.459  0.0096 -0.3824 -0.0238
 7650TIP3    H144365   3.692   6.041   1.459 -0.0394 -0.9767  2.5267
 7650TIP3    H244366   3.573   6.052   1.552 -2.4567  0.2031 -0.6122
 7651TIP3   OH244367   5.279   6.188   5.708  0.1861  0.5090  0.0041
 7651TIP3    H144368   5.200   6.234   5.735  0.5098  0.7384  0.5789
 7651TIP3    H244369   5.351   6.236   5.750  0.7333  1.0245 -1.4843
 7652TIP3   OH244370   5.537   4.182   0.317 -0.5482 -0.1760  0.1734
 7652TIP3    H144371   5.531   4.184   0.413 -0.2306  1.9378  0.1729
 7652TIP3    H244372   5.553   4.090   0.296  1.0417 -0.4113  2.2602
 7653TIP3   OH244373   5.349   1.352  14.258 -0.5733 -0.4716  0.2972
 7653TIP3    H144374   5.300   1.275  14.286  1.1984 -1.5015  0.6083
 7653TIP3    H244375   5.441   1.326  14.263 -0.0010  1.2340 -0.8786
 7654TIP3   OH244376   6.612   0.200  14.274 -0.3031  1.1014  0.5147
 7654TIP3    H144377   6.646   0.113  14.297  0.6425  1.2237 -0.3983
 7654TIP3    H244378   6.627   0.207  14.180  0.0874  2.4565  0.6773
 7655TIP3   OH244379   3.860   0.396  11.796  0.1086 -0.1730  0.3946
 7655TIP3    H144380   3.931   0.333  11.783  0.3173 -0.5384  2.9617
 7655TIP3    H244381   3.780   0.343  11.791  0.1859 -0.3176  0.6695
 7656TIP3   OH244382   2.740   3.477   3.898  0.5397  0.2530  0.0738
 7656TIP3    H144383   2.822   3.510   3.934  0.4845 -0.0994  0.5348
 7656TIP3    H244384   2.746   3.382   3.908  0.3762  0.1811 -0.5399
 7657TIP3   OH244385   5.124   4.737  13.071  0.4090 -0.5818  0.6046
 7657TIP3    H144386   5.042   4.760  13.114  0.7770  0.2088  0.8808
 7657TIP3    H244387   5.192   4.782  13.121  0.9742 -0.8275  0.0756
 7658TIP3   OH244388   0.398   4.205   5.157 -0.2402 -0.3122  0.1078
 7658TIP3    H144389   0.392   4.297   5.184 -1.3134 -0.6458  1.0879
 7658TIP3    H244390   0.463   4.204   5.087  1.4162  0.8501  1.5857
 7659TIP3   OH244391   4.241   1.015  10.380 -0.5527 -0.3690 -0.2417
 7659TIP3    H144392   4.316   1.017  10.440 -1.4803  1.9160  0.9233
 7659TIP3    H244393   4.252   0.934  10.330  2.2505 -0.4833  0.4543
 7660TIP3   OH244394   3.236   3.331  14.592  0.3361 -0.0232 -0.5930
 7660TIP3    H144395   3.280   3.302  14.512  1.2252  1.9312 -0.8169
 7660TIP3    H244396   3.306   3.363  14.649 -0.5726  1.1376 -0.1123
 7661TIP3   OH244397   5.520   4.192   1.251  1.0439 -0.0728 -0.1013
 7661TIP3    H144398   5.504   4.196   1.157 -2.6666 -0.2088  0.4445
 7661TIP3    H244399   5.504   4.100   1.274  0.1102  0.3219  0.9009
 7662TIP3   OH244400   1.651   0.768  12.229 -0.2898  0.1356  0.2131
 7662TIP3    H144401   1.576   0.798  12.177  0.8598  3.7251  0.5285
 7662TIP3    H244402   1.717   0.744  12.164 -0.6990 -0.3853 -0.0180
 7663TIP3   OH244403   2.514   5.532   3.970  0.7238  0.1068 -0.1947
 7663TIP3    H144404   2.496   5.598   3.902 -2.0529 -0.6185 -0.2303
 7663TIP3    H244405   2.608   5.540   3.987  0.9982  2.0111 -2.3450
 7664TIP3   OH244406   5.200   4.629  11.476 -0.0878  0.2608 -0.1772
 7664TIP3    H144407   5.284   4.671  11.457  0.1147  1.0843  2.3164
 7664TIP3    H244408   5.196   4.554  11.417  1.8348  0.9286 -1.1881
 7665TIP3   OH244409   0.785   3.483   4.977 -0.4777 -0.1364 -0.0551
 7665TIP3    H144410   0.767   3.472   4.884  0.1340  0.8429 -0.3005
 7665TIP3    H244411   0.700   3.503   5.016 -0.6029  0.2713 -0.5368
 7666TIP3   OH244412   5.841   5.713   6.241  0.0317 -0.4364  0.5563
 7666TIP3    H144413   5.810   5.799   6.270 -1.4310 -0.8450  0.2757
 7666TIP3    H244414   5.932   5.709   6.269  0.1314  1.2355  0.5082
 7667TIP3   OH244415   4.067   5.985   1.635 -0.2313 -0.2708 -0.6937
 7667TIP3    H144416   3.971   5.988   1.638 -0.2764 -1.9275 -0.1510
 7667TIP3    H244417   4.088   5.894   1.614  1.2168  0.2283 -1.4917
 7668TIP3   OH244418   0.692   0.395   3.741 -0.0127 -0.0694 -0.4102
 7668TIP3    H144419   0.598   0.392   3.759  0.1435  0.6750  0.5606
 7668TIP3    H244420   0.713   0.307   3.709 -0.5335 -1.0926  1.9510
 7669TIP3   OH244421   2.544   4.357   3.764  0.0012  0.0918 -0.3180
 7669TIP3    H144422   2.628   4.357   3.717 -0.2535  0.7262 -0.7657
 7669TIP3    H244423   2.545   4.275   3.813  0.5648 -0.2540 -0.8977
 7670TIP3   OH244424   1.345   6.591  15.689  0.2438  0.7812 -0.4333
 7670TIP3    H144425   1.440   6.590  15.681  0.3094  1.2686  0.2452
 7670TIP3    H244426   1.318   6.671  15.645  0.4441  2.4398  2.3128
 7671TIP3   OH244427   4.467   3.466   4.860  0.3002 -0.0444 -0.1872
 7671TIP3    H144428   4.395   3.424   4.907 -0.1934 -0.1253 -0.9982
 7671TIP3    H244429   4.498   3.398   4.800  1.5271 -0.2386  0.6663
 7672TIP3   OH244430   3.798   2.897  13.678  0.2530  0.6289 -0.1101
 7672TIP3    H144431   3.854   2.831  13.719  1.2618  0.2471 -2.0585
 7672TIP3    H244432   3.709   2.866  13.694  0.6814 -0.4792  0.1715
 7673TIP3   OH244433   0.126   1.128   0.197  0.3852  0.5639 -0.0116
 7673TIP3    H144434   0.152   1.041   0.168  0.1237  0.3994  0.2498
 7673TIP3    H244435   0.064   1.158   0.130  2.1036  1.4231 -1.2546
 7674TIP3   OH244436   0.737   2.073  11.545  0.0136  0.0628  0.0502
 7674TIP3    H144437   0.731   2.169  11.543  2.1323  0.1927 -2.3387
 7674TIP3    H244438   0.809   2.055  11.604  0.1293 -0.0353 -0.1214
 7675TIP3   OH244439   6.663   2.765   3.113  0.3259 -0.2180  0.0451
 7675TIP3    H144440   6.645   2.765   3.019 -1.4341  0.8906  0.3568
 7675TIP3    H244441   6.609   2.837   3.147  1.1537 -0.4465  1.8609
 7676TIP3   OH244442   0.221   1.208   2.725  0.5655 -0.4395  0.0602
 7676TIP3    H144443   0.242   1.208   2.631 -0.4693 -0.0657 -0.1733
 7676TIP3    H244444   0.296   1.164   2.766  1.3625  0.0389 -0.8593
 7677TIP3   OH244445   3.676   6.129  11.456  0.3214 -0.2103  0.3492
 7677TIP3    H144446   3.623   6.070  11.510 -0.5194 -0.2515 -0.5056
 7677TIP3    H244447   3.641   6.118  11.368 -1.0110  2.8416  0.4516
 7678TIP3   OH244448   1.488   3.037  15.231  0.0697  0.0842 -1.0391
 7678TIP3    H144449   1.466   3.119  15.186 -0.1941 -0.3865 -1.7722
 7678TIP3    H244450   1.408   2.985  15.227 -0.3194  0.4679  0.9614
 7679TIP3   OH244451   5.640   1.761   5.735 -0.6251 -0.3750 -0.1842
 7679TIP3    H144452   5.673   1.819   5.805  2.1523 -2.1816  0.0875
 7679TIP3    H244453   5.618   1.821   5.663  0.8134  1.1435  0.5937
 7680TIP3   OH244454   0.444   5.691  16.717 -0.6436  0.0798 -0.6099
 7680TIP3    H144455   0.379   5.649  16.774  1.0708 -2.1727 -0.2298
 7680TIP3    H244456   0.412   5.675  16.629 -2.0628  1.4874 -0.3745
 7681TIP3   OH244457   4.474   0.156  12.855 -0.4839 -0.6034 -0.4036
 7681TIP3    H144458   4.484   0.129  12.946 -2.2370  0.1986  0.0576
 7681TIP3    H244459   4.563   0.164  12.822  0.1511 -1.5341  1.0535
 7682TIP3   OH244460   5.357   5.814   0.374  0.0836 -0.5492 -0.0396
 7682TIP3    H144461   5.282   5.824   0.432 -0.0584 -0.3727 -0.2542
 7682TIP3    H244462   5.358   5.895   0.322  0.5862 -0.4214  0.1604
 7683TIP3   OH244463   5.360   1.028   3.109  0.3659  0.0588 -0.5047
 7683TIP3    H144464   5.343   0.958   3.045 -1.3274  0.0415 -0.0605
 7683TIP3    H244465   5.294   1.094   3.090  1.1469  0.9675 -0.0812
 7684TIP3   OH244466   0.393   3.909   4.162 -0.9349  0.0642 -0.4157
 7684TIP3    H144467   0.339   3.967   4.109  0.6317  1.0703 -0.9115
 7684TIP3    H244468   0.390   3.948   4.250 -0.4340  0.5115 -0.5988
 7685TIP3   OH244469   3.360   1.479   3.693  0.3214  0.0160 -0.2774
 7685TIP3    H144470   3.401   1.443   3.615 -0.9941 -1.0542 -0.4887
 7685TIP3    H244471   3.338   1.569   3.669  3.0873  0.8290  0.0610
 7686TIP3   OH244472   5.476   0.807   2.671  1.0873  0.0762  0.8365
 7686TIP3    H144473   5.519   0.792   2.587  0.4579  0.3080  0.4681
 7686TIP3    H244474   5.541   0.781   2.737  0.0204 -4.5803  0.2533
 7687TIP3   OH244475   2.706   2.873  13.131  0.5118 -0.2922  0.3675
 7687TIP3    H144476   2.762   2.939  13.172  0.3193 -0.6845  1.2770
 7687TIP3    H244477   2.764   2.799  13.115  0.4282 -0.4054  0.5867
 7688TIP3   OH244478   1.694   0.409   0.795 -0.6194 -0.3440 -0.1095
 7688TIP3    H144479   1.666   0.330   0.842 -1.3775 -2.4622 -3.9399
 7688TIP3    H244480   1.620   0.432   0.740  0.2406  2.0768 -0.3035
 7689TIP3   OH244481   2.053   2.744   6.011 -0.1242  0.0041 -0.1770
 7689TIP3    H144482   2.045   2.792   6.093  0.8552 -1.4426  0.7977
 7689TIP3    H244483   1.987   2.782   5.954 -0.5674  1.2799  1.1580
 7690TIP3   OH244484   0.669   0.706   1.937  0.4036  0.6996 -0.3851
 7690TIP3    H144485   0.664   0.790   1.983 -0.1973  0.3618  0.1715
 7690TIP3    H244486   0.655   0.728   1.845 -0.1975  1.1560 -0.1883
 7691TIP3   OH244487   3.893   5.370  13.047 -0.2794  0.3940 -0.4822
 7691TIP3    H144488   3.808   5.335  13.023 -0.1512 -0.8573  0.7983
 7691TIP3    H244489   3.956   5.320  12.995 -0.0925 -1.4123  1.3840
 7692TIP3   OH244490   5.173   6.771  14.508  0.0789  0.0743  0.1485
 7692TIP3    H144491   5.097   6.713  14.505  0.7159 -0.8681  1.5826
 7692TIP3    H244492   5.219   6.754  14.426 -0.2889 -0.7013  0.0977
 7693TIP3   OH244493   5.935   4.532  12.409 -0.0907  0.8217 -0.1076
 7693TIP3    H144494   5.855   4.532  12.356  1.0275  2.1156 -1.8530
 7693TIP3    H244495   6.005   4.515  12.346  1.3017  2.8215  0.8583
 7694TIP3   OH244496   5.942   1.062   0.693  0.0913  0.2955  0.1163
 7694TIP3    H144497   6.006   1.080   0.762 -1.3068 -1.1833  1.8620
 7694TIP3    H244498   5.991   1.010   0.628  0.6256 -1.0741  1.5755
 7695TIP3   OH244499   4.008   6.690  13.129  0.3570 -0.2829 -0.1669
 7695TIP3    H144500   4.030   6.663  13.039 -0.8483 -2.1841  0.0773
 7695TIP3    H244501   4.051   6.625  13.184  0.0082  0.1225  0.5869
 7696TIP3   OH244502   4.109   3.558  15.965 -0.6407 -0.0716 -0.6145
 7696TIP3    H144503   4.073   3.559  16.054  0.0840  1.9408 -0.3070
 7696TIP3    H244504   4.032   3.568  15.909 -0.9291  0.6245 -0.1119
 7697TIP3   OH244505   5.400   0.057  15.096  0.0277  0.3762  0.2091
 7697TIP3    H144506   5.417   0.050  15.190 -2.9112 -1.8007  0.6779
 7697TIP3    H244507   5.450  -0.015  15.057 -2.7746 -2.0154  0.8164
 7698TIP3   OH244508   5.833   3.037   1.677  0.7097 -0.4340  0.0558
 7698TIP3    H144509   5.757   2.980   1.690  0.9544 -1.0168 -0.9990
 7698TIP3    H244510   5.808   3.119   1.718  0.4150 -1.3445  1.7446
 7699TIP3   OH244511   0.975   1.649  11.110  0.5181  0.4914  0.1444
 7699TIP3    H144512   0.903   1.587  11.114 -0.4195  1.6585  2.8869
 7699TIP3    H244513   0.987   1.667  11.017 -1.2965 -1.3662 -0.4717
 7700TIP3   OH244514   1.455   5.551   0.751 -0.2375  0.5269  0.1322
 7700TIP3    H144515   1.541   5.585   0.774  0.4282 -0.1426 -1.3244
 7700TIP3    H244516   1.469   5.457   0.738 -1.3332  0.2963  0.5501
 7701TIP3   OH244517   6.354   0.382  12.115 -0.1668 -0.0573 -0.2301
 7701TIP3    H144518   6.334   0.310  12.176  0.5092  1.3594  1.6981
 7701TIP3    H244519   6.449   0.386  12.113 -0.2072  0.7509 -0.4135
 7702TIP3   OH244520   5.917   4.105  15.363  0.1020 -0.3768 -0.0154
 7702TIP3    H144521   5.851   4.145  15.305  0.5531 -0.1322 -0.3641
 7702TIP3    H244522   6.001   4.136  15.329  0.4056 -0.7645  0.3703
 7703TIP3   OH244523   5.445   0.336   3.535 -0.2751  0.6159  0.3381
 7703TIP3    H144524   5.482   0.273   3.473 -0.9098  0.3381  0.2432
 7703TIP3    H244525   5.437   0.417   3.484 -1.3565  0.2270 -0.1107
 7704TIP3   OH244526   5.283   1.517  11.661  0.2335 -0.0014  0.2343
 7704TIP3    H144527   5.333   1.581  11.609  1.3901 -0.8888  0.2164
 7704TIP3    H244528   5.315   1.529  11.750 -0.8260  0.6407  0.5346
 7705TIP3   OH244529   6.613   6.270   2.018  0.1795 -0.7599 -0.0171
 7705TIP3    H144530   6.627   6.238   1.929 -1.7337  0.4451 -0.7617
 7705TIP3    H244531   6.651   6.358   2.018 -0.3440 -0.5351  0.1985
 7706TIP3   OH244532   6.628   1.500   1.796  0.1208  0.0866  0.0268
 7706TIP3    H144533   6.675   1.583   1.788 -0.5484  0.3287 -1.6117
 7706TIP3    H244534   6.553   1.509   1.737  0.0487 -1.6928 -0.1875
 7707TIP3   OH244535   5.633   3.823  15.568 -0.1586  0.0677 -0.0871
 7707TIP3    H144536   5.599   3.912  15.575 -1.6459 -0.5651  1.0883
 7707TIP3    H244537   5.688   3.812  15.646  1.6946  0.6294 -1.2877
 7708TIP3   OH244538   5.391   1.164  16.895  0.2450  0.1241  0.0799
 7708TIP3    H144539   5.428   1.156  16.808  1.9828  0.5050  0.7670
 7708TIP3    H244540   5.359   1.254  16.900  1.4019  0.5207  0.3214
 7709TIP3   OH244541   3.622   2.225   2.224 -0.4864 -0.1873  0.3869
 7709TIP3    H144542   3.601   2.276   2.146 -0.0473  0.4580  0.6923
 7709TIP3    H244543   3.710   2.192   2.208 -1.1755 -1.7600 -0.2859
 7710TIP3   OH244544   2.590   2.353  15.879 -0.1015 -0.2189  0.8877
 7710TIP3    H144545   2.636   2.437  15.882 -0.6970  0.1435  0.2124
 7710TIP3    H244546   2.649   2.295  15.832 -0.1458  0.1324  0.3842
 7711TIP3   OH244547   1.707   3.248   5.150  0.2660  0.0727  0.4553
 7711TIP3    H144548   1.660   3.308   5.093  1.8432 -0.1925 -1.1904
 7711TIP3    H244549   1.731   3.301   5.227  0.4302  1.1797 -0.3434
 7712TIP3   OH244550   3.097   4.190  11.032 -0.3145  0.1597  0.4665
 7712TIP3    H144551   3.011   4.203  11.073 -0.7539 -0.0525 -0.3588
 7712TIP3    H244552   3.082   4.119  10.969  0.5822 -0.1909  0.6412
 7713TIP3   OH244553   2.538   6.222  15.053 -0.1947 -0.4327  0.2087
 7713TIP3    H144554   2.576   6.139  15.023  1.5856  0.4099  0.0758
 7713TIP3    H244555   2.464   6.195  15.109  0.5732 -2.1168  0.4671
 7714TIP3   OH244556   2.488   3.327  14.397  0.6823 -0.0241  0.0139
 7714TIP3    H144557   2.511   3.345  14.488 -0.7054  0.3407  0.2941
 7714TIP3    H244558   2.429   3.252  14.402  0.6509 -0.0396 -0.5952
 7715TIP3   OH244559   2.553   4.408   1.818  0.1105 -0.5959  0.5592
 7715TIP3    H144560   2.605   4.348   1.765  1.2263  0.5794  0.3009
 7715TIP3    H244561   2.528   4.357   1.895  0.9123 -1.4266  0.2744
 7716TIP3   OH244562   4.530   3.914  15.222  0.5533 -0.4846 -0.1102
 7716TIP3    H144563   4.563   3.885  15.307 -1.3545  0.2269  0.9145
 7716TIP3    H244564   4.448   3.865  15.211 -1.1075  2.1263  0.1918
 7717TIP3   OH244565   2.745   3.277  15.402 -0.1089 -0.2439 -0.4913
 7717TIP3    H144566   2.823   3.315  15.443 -0.7464  0.9838 -0.3986
 7717TIP3    H244567   2.683   3.268  15.474 -1.3863  2.3154 -1.2345
 7718TIP3   OH244568   2.127   5.161   2.624 -0.3953  0.0880  0.4236
 7718TIP3    H144569   2.214   5.153   2.586  0.0002  3.2808  0.6049
 7718TIP3    H244570   2.137   5.131   2.714  0.0760 -1.3110 -0.0759
 7719TIP3   OH244571   4.138   3.008  11.014 -0.0915  0.1917  0.5681
 7719TIP3    H144572   4.191   2.943  11.059 -0.0983  0.8917  1.5939
 7719TIP3    H244573   4.153   2.991  10.921  1.2946 -0.1323  0.8422
 7720TIP3   OH244574   6.683   3.020  13.739  0.2527 -0.0508 -0.0070
 7720TIP3    H144575   6.710   2.983  13.654 -0.4729  0.6747 -0.5621
 7720TIP3    H244576   6.593   3.050  13.724 -0.3544 -1.1073  1.3994
 7721TIP3   OH244577   0.505   4.133   1.494 -0.1474  0.1471 -0.2498
 7721TIP3    H144578   0.421   4.128   1.539  0.6425 -0.1676  1.2139
 7721TIP3    H244579   0.482   4.154   1.403 -1.7555  0.7304  0.2735
 7722TIP3   OH244580   2.962   5.779   4.388 -0.0350  0.0554 -0.3019
 7722TIP3    H144581   3.010   5.808   4.310 -0.1554 -0.7585 -0.6768
 7722TIP3    H244582   2.870   5.781   4.362 -0.0908 -0.0427 -0.1161
 7723TIP3   OH244583   2.340   6.159  16.084 -0.6145 -0.8806  0.4353
 7723TIP3    H144584   2.360   6.246  16.119 -0.7599 -0.9814  0.7670
 7723TIP3    H244585   2.398   6.150  16.008 -0.1946 -0.7217  0.7355
 7724TIP3   OH244586   3.598   4.205   5.676  0.0571 -0.2664 -0.5792
 7724TIP3    H144587   3.580   4.297   5.655  1.1333 -0.4099 -2.1961
 7724TIP3    H244588   3.684   4.207   5.718  1.1285 -0.7524 -2.6687
 7725TIP3   OH244589   3.682   3.894   0.983  0.5988  0.3886 -0.4529
 7725TIP3    H144590   3.754   3.892   1.045  0.6945 -0.2185 -0.5755
 7725TIP3    H244591   3.714   3.844   0.908 -0.6641 -1.6476  0.3018
 7726TIP3   OH244592   1.734   4.132  10.710  0.3175  0.8700  0.0512
 7726TIP3    H144593   1.814   4.177  10.682 -0.0390  2.4516  1.4955
 7726TIP3    H244594   1.765   4.056  10.759  0.9543  1.6376  0.8680
 7727TIP3   OH244595   6.482   1.727  17.034  0.6431  0.2857  0.6764
 7727TIP3    H144596   6.387   1.716  17.032  0.7659 -0.7761  0.3850
 7727TIP3    H244597   6.505   1.746  16.943  0.9364 -1.4753  0.3772
 7728TIP3   OH244598   3.866   5.210   5.412  0.2069  0.3963  0.0127
 7728TIP3    H144599   3.931   5.145   5.441  0.9049  1.2002  0.2661
 7728TIP3    H244600   3.901   5.245   5.331 -0.2535  0.3360 -0.2121
 7729TIP3   OH244601   5.330   1.961   0.240  0.5201  0.1673  0.7187
 7729TIP3    H144602   5.351   1.885   0.294  0.4106  1.2183  2.2744
 7729TIP3    H244603   5.247   1.993   0.274  0.0243  0.3743 -0.6278
 7730TIP3   OH244604   0.308   1.814   1.948 -0.0422  0.6529  0.0536
 7730TIP3    H144605   0.358   1.832   1.868 -0.3220  0.5633 -0.1413
 7730TIP3    H244606   0.268   1.728   1.933 -0.7815  1.0099 -0.0617
 7731TIP3   OH244607   2.226   0.304   4.593 -0.1456 -0.2066 -0.0816
 7731TIP3    H144608   2.156   0.239   4.589 -0.0857 -0.2210 -1.2128
 7731TIP3    H244609   2.190   0.376   4.645 -0.4031 -0.9103  0.7213
 7732TIP3   OH244610   0.272   3.377  15.452 -0.5319 -0.4060  0.3819
 7732TIP3    H144611   0.279   3.465  15.416  2.1277 -1.5014 -1.9539
 7732TIP3    H244612   0.282   3.319  15.377  0.8652 -2.7372  2.2928
 7733TIP3   OH244613   4.621   2.846  13.260  0.2540  0.9861 -0.4489
 7733TIP3    H144614   4.688   2.821  13.198 -0.2117  1.0630 -0.9888
 7733TIP3    H244615   4.668   2.890  13.331  0.8203  0.5772 -0.5724
 7734TIP3   OH244616   2.149   4.902   4.417 -0.2020  0.0693 -0.3029
 7734TIP3    H144617   2.149   4.806   4.420 -0.8485  0.1010  0.9222
 7734TIP3    H244618   2.085   4.924   4.349  0.0814 -0.3550 -0.7189
 7735TIP3   OH244619   2.522   2.753   0.078  0.5296 -0.0482  0.3785
 7735TIP3    H144620   2.442   2.800   0.052  0.6674 -0.2683 -0.4553
 7735TIP3    H244621   2.558   2.806   0.149  0.8047  1.2676 -0.7051
 7736TIP3   OH244622   3.296   1.234   6.058  0.3361  0.4558  0.6331
 7736TIP3    H144623   3.230   1.303   6.051 -0.2519 -0.3182 -1.9554
 7736TIP3    H244624   3.263   1.176   6.127 -0.9198  0.9144  0.4384
 7737TIP3   OH244625   3.952   4.733   0.498  0.0833 -0.1836 -0.0486
 7737TIP3    H144626   3.887   4.695   0.558 -1.4368 -0.6320 -1.9372
 7737TIP3    H244627   4.036   4.706   0.534 -0.8296 -1.0619  1.4781
 7738TIP3   OH244628   6.474   5.946   1.283 -0.5656 -0.0927  0.3984
 7738TIP3    H144629   6.463   5.911   1.371  1.2123  0.0035  0.6639
 7738TIP3    H244630   6.497   6.038   1.296 -1.3447  0.1991 -0.2041
 7739TIP3   OH244631   1.414   5.079  15.756 -1.0500 -0.4212 -0.2452
 7739TIP3    H144632   1.437   5.077  15.849 -0.6321  1.2025 -0.2899
 7739TIP3    H244633   1.494   5.055  15.711 -0.4473  1.5681 -0.2704
 7740TIP3   OH244634   5.207   2.100  13.409 -0.6340  0.6036  0.0340
 7740TIP3    H144635   5.289   2.050  13.412 -0.6026  0.6877  1.0856
 7740TIP3    H244636   5.142   2.040  13.447 -0.8731  0.8599  0.0227
 7741TIP3   OH244637   1.408   4.444  16.366 -0.0830  0.2676 -0.4807
 7741TIP3    H144638   1.425   4.443  16.272 -0.1574 -1.1470 -0.4898
 7741TIP3    H244639   1.429   4.355  16.395 -0.3206  0.6131  0.7994
 7742TIP3   OH244640   1.923   1.616   1.021  0.1924 -0.6256  0.2959
 7742TIP3    H144641   1.870   1.585   0.948  0.2903 -1.2103  0.4728
 7742TIP3    H244642   1.975   1.687   0.985 -0.3231 -0.3965 -0.0117
 7743TIP3   OH244643   2.629   4.513   2.893 -0.2081  0.5044 -0.5192
 7743TIP3    H144644   2.704   4.537   2.839 -0.1643  2.5755  0.4321
 7743TIP3    H244645   2.667   4.495   2.979 -0.3622 -2.1103 -0.9546
 7744TIP3   OH244646   3.161   2.761  11.678  0.3874 -0.5368  0.2090
 7744TIP3    H144647   3.253   2.739  11.663  1.4243  1.3931  3.1839
 7744TIP3    H244648   3.158   2.856  11.666 -1.5896 -0.7993 -1.4944
 7745TIP3   OH244649   4.463   2.538  12.962  0.1285 -0.5629  0.6197
 7745TIP3    H144650   4.475   2.632  12.951  0.3835 -0.4334  1.9434
 7745TIP3    H244651   4.527   2.499  12.902 -1.5243  0.0797 -1.6075
 7746TIP3   OH244652   3.285   4.336  13.262  0.7175 -0.7462  0.1542
 7746TIP3    H144653   3.367   4.364  13.303  0.6353  0.8564 -0.7417
 7746TIP3    H244654   3.282   4.383  13.179 -1.4747 -0.1863  0.5171
 7747TIP3   OH244655   5.720   6.087  12.810  0.5824  0.0467 -0.2539
 7747TIP3    H144656   5.741   6.173  12.773  0.3536  0.0846 -0.2920
 7747TIP3    H244657   5.650   6.053  12.755  0.0637  0.2153  0.2960
 7748TIP3   OH244658   4.198   1.227  10.922  0.1896 -0.2836  0.2270
 7748TIP3    H144659   4.107   1.200  10.934 -0.4356  0.4001 -2.5507
 7748TIP3    H244660   4.228   1.177  10.846  0.7590  2.5633 -1.4973
 7749TIP3   OH244661   2.898   1.788   1.560 -0.0576 -0.0403 -0.0329
 7749TIP3    H144662   2.915   1.754   1.648  1.1518  1.7149  0.4413
 7749TIP3    H244663   2.955   1.864   1.552 -1.1658  0.6495 -1.8308
 7750TIP3   OH244664   6.782   0.184  11.704  0.1864  0.2770  0.1827
 7750TIP3    H144665   6.730   0.213  11.779 -0.9536  0.7469 -0.7804
 7750TIP3    H244666   6.871   0.211  11.725 -0.3732  1.8212  0.6699
 7751TIP3   OH244667   4.849   5.547   1.126 -0.5188  0.1884 -0.4023
 7751TIP3    H144668   4.878   5.638   1.135 -1.3597  0.5010 -0.8491
 7751TIP3    H244669   4.851   5.513   1.215  1.6843  0.0640 -0.4865
 7752TIP3   OH244670   2.877   1.793  13.045 -0.2962  0.6270  0.4501
 7752TIP3    H144671   2.968   1.818  13.059 -0.4614  0.7649  1.3207
 7752TIP3    H244672   2.867   1.790  12.950  0.8252 -0.1676  0.3523
 7753TIP3   OH244673   0.206   4.726  12.618 -0.3000  0.0119  0.3739
 7753TIP3    H144674   0.215   4.814  12.581  1.0368 -0.3850 -0.2980
 7753TIP3    H244675   0.162   4.738  12.701  0.2917  1.3722  0.4917
 7754TIP3   OH244676   5.078   1.929   0.059 -0.0436 -0.4610 -0.3505
 7754TIP3    H144677   5.086   2.020   0.087  0.9027  0.0818 -2.3080
 7754TIP3    H244678   5.072   1.879   0.141 -2.5593  1.5089  0.7137
 7755TIP3   OH244679   1.593   2.845  16.938 -0.0224  0.2547 -0.5068
 7755TIP3    H144680   1.661   2.791  16.897  0.2305 -1.2165  1.7919
 7755TIP3    H244681   1.597   2.928  16.890  0.8713 -1.0739 -2.8424
 7756TIP3   OH244682   1.688   0.295  11.676  0.2678 -0.2366  0.8401
 7756TIP3    H144683   1.735   0.239  11.738 -1.3324 -2.7404 -0.1468
 7756TIP3    H244684   1.602   0.307  11.716 -0.2066 -0.5039 -0.0995
 7757TIP3   OH244685   3.420   3.020  14.610 -0.1677 -0.0370  0.0479
 7757TIP3    H144686   3.341   2.976  14.581 -0.2984  2.0334 -2.8768
 7757TIP3    H244687   3.491   2.978  14.562 -0.0126  1.2256 -0.8388
 7758TIP3   OH244688   1.335   1.697   4.272  0.8885 -0.2226  0.1886
 7758TIP3    H144689   1.429   1.716   4.280  0.9076  0.2831 -1.1251
 7758TIP3    H244690   1.299   1.775   4.229  0.0460 -0.9080 -0.3391
 7759TIP3   OH244691   1.232   1.934   4.164 -0.3944  0.1227 -0.2557
 7759TIP3    H144692   1.277   1.985   4.232  2.5725 -1.1039 -1.2358
 7759TIP3    H244693   1.140   1.935   4.191  0.8384 -1.3168  4.4327
 7760TIP3   OH244694   5.134   0.692   5.690 -0.1176 -0.6614 -0.4351
 7760TIP3    H144695   5.092   0.612   5.720 -0.7968 -0.3448 -0.5266
 7760TIP3    H244696   5.176   0.728   5.768 -2.0841  0.2932  0.2165
 7761TIP3   OH244697   0.098   3.469  11.948 -0.9928 -0.4928 -0.7309
 7761TIP3    H144698   0.140   3.469  12.034 -0.1191 -1.8101 -1.1552
 7761TIP3    H244699   0.037   3.543  11.952  1.3653  1.4847 -0.1055
 7762TIP3   OH244700   5.712   0.120  13.152  0.4204  0.4497  0.2596
 7762TIP3    H144701   5.642   0.123  13.217  1.0378  0.8075  0.9151
 7762TIP3    H244702   5.764   0.044  13.177  0.8689  0.8038  0.4030
 7763TIP3   OH244703   2.594   4.387  15.709  0.2754 -0.5006 -0.4359
 7763TIP3    H144704   2.631   4.302  15.735  2.9193  1.0899  1.3184
 7763TIP3    H244705   2.502   4.369  15.692  0.4750 -3.4796  1.2413
 7764TIP3   OH244706   6.163   1.760   6.081  0.4991  0.7360  0.7267
 7764TIP3    H144707   6.162   1.679   6.132  0.6122 -0.2185 -0.7511
 7764TIP3    H244708   6.222   1.818   6.129  4.2144 -1.7270 -0.6569
 7765TIP3   OH244709   4.124   0.576   4.513  0.2736  0.2239 -0.2132
 7765TIP3    H144710   4.160   0.657   4.550  0.9793  0.1838 -0.8111
 7765TIP3    H244711   4.199   0.516   4.510  0.0052 -0.0811 -0.8355
 7766TIP3   OH244712   0.629   1.652  11.677  0.3954 -0.3531  0.6174
 7766TIP3    H144713   0.651   1.699  11.597 -0.2542 -1.6669 -0.3398
 7766TIP3    H244714   0.715   1.627  11.713  0.6404 -1.1355 -0.4944
 7767TIP3   OH244715   6.756   4.402  16.563  0.1075 -0.7885  0.1278
 7767TIP3    H144716   6.751   4.319  16.515  0.5744 -0.1836 -1.0011
 7767TIP3    H244717   6.675   4.447  16.541  0.1854 -0.6402  0.1416
 7768TIP3   OH244718   6.183   0.961   5.710 -0.3598 -0.3077  0.2766
 7768TIP3    H144719   6.211   1.044   5.671 -0.5653  0.3523  1.5006
 7768TIP3    H244720   6.097   0.945   5.671  0.3313 -0.7315 -1.1075
 7769TIP3   OH244721   1.168   0.709   3.000 -0.2207  0.2955 -0.0841
 7769TIP3    H144722   1.130   0.680   2.917 -0.3795  0.6241 -0.1261
 7769TIP3    H244723   1.146   0.639   3.061 -0.8644  0.4654 -0.1154
 7770TIP3   OH244724   5.364   0.392   3.844 -1.0064 -0.2258  0.2796
 7770TIP3    H144725   5.444   0.440   3.868 -0.7488 -0.9450  0.8800
 7770TIP3    H244726   5.378   0.368   3.752 -1.0072  0.5852  0.0622
 7771TIP3   OH244727   6.226   3.870   2.634  0.2273 -0.3002 -0.0897
 7771TIP3    H144728   6.172   3.900   2.708 -1.7595  0.0032 -1.6155
 7771TIP3    H244729   6.298   3.933   2.630 -1.0320  1.2039  0.0341
 7772TIP3   OH244730   3.435   6.458  17.029 -0.0251 -0.0793  0.3653
 7772TIP3    H144731   3.377   6.386  17.052 -0.8297  0.6249  0.5796
 7772TIP3    H244732   3.391   6.503  16.957  0.5514  0.1027  0.1185
 7773TIP3   OH244733   0.196   0.827  15.002  0.2409 -0.4514 -0.2159
 7773TIP3    H144734   0.154   0.742  15.017  1.5027 -1.4408 -2.0884
 7773TIP3    H244735   0.164   0.855  14.916  2.5596 -0.7378 -1.2080
 7774TIP3   OH244736   0.310   2.152  16.422 -0.2957 -0.1885 -0.2728
 7774TIP3    H144737   0.282   2.108  16.502  0.1621  0.1310  0.0725
 7774TIP3    H244738   0.386   2.204  16.449 -0.3213  0.1537 -0.8490
 7775TIP3   OH244739   4.425   0.941  15.518  0.3719 -0.1465  0.3176
 7775TIP3    H144740   4.347   0.972  15.563 -1.9257 -3.4375 -1.2175
 7775TIP3    H244741   4.453   0.864  15.569  1.3335 -0.2843 -0.3948
 7776TIP3   OH244742   6.386   5.931   7.174  0.0713 -0.5558 -0.1824
 7776TIP3    H144743   6.319   5.905   7.237 -0.0339  4.4221  1.9350
 7776TIP3    H244744   6.337   5.969   7.101  0.4410 -0.5718 -0.4415
 7777TIP3   OH244745   3.689   1.940  15.303  0.2047  0.1126 -0.1309
 7777TIP3    H144746   3.704   1.855  15.261  1.1550 -0.0111  0.4237
 7777TIP3    H244747   3.698   1.921  15.397  1.1420  0.9576 -0.0428
 7778TIP3   OH244748   1.790   3.627  11.555  0.3082 -0.1170  0.2264
 7778TIP3    H144749   1.836   3.575  11.621 -0.6436 -0.1663  0.8608
 7778TIP3    H244750   1.709   3.580  11.539 -0.1253  0.6636  0.0939
 7779TIP3   OH244751   6.294   5.380  14.714  0.4669 -0.1788  0.1433
 7779TIP3    H144752   6.312   5.311  14.778 -1.1290 -0.4233  0.3578
 7779TIP3    H244753   6.254   5.334  14.640  0.5944  0.3429 -0.2492
 7780TIP3   OH244754   2.012   1.676  12.872 -0.0040 -0.3370 -0.4801
 7780TIP3    H144755   1.932   1.648  12.827  0.0264 -0.6366 -0.3496
 7780TIP3    H244756   2.004   1.772  12.877 -1.4603 -0.5193  1.5509
 7781TIP3   OH244757   5.078   2.685  14.730 -0.0809 -0.0320  0.5297
 7781TIP3    H144758   5.002   2.644  14.690 -0.3758 -0.2932  1.3541
 7781TIP3    H244759   5.153   2.632  14.701 -0.3475 -0.5212  0.7368
 7782TIP3   OH244760   1.013   3.572  13.194  0.0517 -0.0326  0.1233
 7782TIP3    H144761   1.100   3.600  13.223  0.4078  0.4393 -1.3799
 7782TIP3    H244762   0.954   3.640  13.226  0.3352  0.0545  0.4663
 7783TIP3   OH244763   0.389   3.793   6.449  0.2201  0.1534  0.2992
 7783TIP3    H144764   0.435   3.782   6.532  0.5400 -1.3215 -0.0575
 7783TIP3    H244765   0.425   3.724   6.393  1.5749  2.4678 -1.7524
 7784TIP3   OH244766   4.731   1.187   2.805 -0.5619 -0.0373  0.4984
 7784TIP3    H144767   4.737   1.147   2.891  0.3487  1.6556  1.2631
 7784TIP3    H244768   4.648   1.235   2.806  0.0297  1.0060  0.9189
 7785TIP3   OH244769   3.788   1.743  12.808  0.8932  0.8272  0.3254
 7785TIP3    H144770   3.783   1.666  12.865 -1.5373  1.0169  0.4503
 7785TIP3    H244771   3.879   1.747  12.781  0.5793 -3.6238 -1.8304
 7786TIP3   OH244772   5.827   5.209   4.058 -0.3264  0.6271 -0.0497
 7786TIP3    H144773   5.876   5.290   4.042  0.1709  0.1580 -0.9510
 7786TIP3    H244774   5.740   5.226   4.023 -0.2487  0.8020 -0.1550
 7787TIP3   OH244775   2.705   3.218  14.307  0.4247  0.2013  0.0936
 7787TIP3    H144776   2.735   3.159  14.376  0.4083  1.0316  0.8187
 7787TIP3    H244777   2.636   3.271  14.349 -1.8487 -1.4515 -1.4402
 7788TIP3   OH244778   6.197   5.884  12.693 -0.3480 -0.4499  0.1499
 7788TIP3    H144779   6.217   5.854  12.781 -1.1025 -1.7551 -0.1094
 7788TIP3    H244780   6.232   5.973  12.689 -0.4362 -0.3316  1.8041
 7789TIP3   OH244781   6.474   0.074  11.992  0.4772  0.2256  0.0030
 7789TIP3    H144782   6.476   0.034  11.905  0.7331  0.1292  0.0543
 7789TIP3    H244783   6.469   0.168  11.975  0.5661  0.2091 -0.1155
 7790TIP3   OH244784   6.013   5.096   0.119 -0.1429 -0.1455 -0.2407
 7790TIP3    H144785   6.014   5.043   0.039 -1.7286  1.1691 -1.1700
 7790TIP3    H244786   6.060   5.176   0.095  1.1537 -0.6072  0.7679
 7791TIP3   OH244787   5.124   5.468  12.455 -0.4873  0.4059 -0.8537
 7791TIP3    H144788   5.036   5.459  12.419 -0.0805  0.0247 -1.7493
 7791TIP3    H244789   5.177   5.405  12.407  0.4920  1.3232 -1.0058
 7792TIP3   OH244790   2.783   1.811   6.001 -0.5195 -0.3003 -0.6172
 7792TIP3    H144791   2.770   1.905   6.018 -1.5506 -0.6793  0.8121
 7792TIP3    H244792   2.876   1.803   5.980 -0.3778  1.0133 -0.5505
 7793TIP3   OH244793   1.199   4.906   0.646  0.1242 -0.0883 -0.2073
 7793TIP3    H144794   1.209   4.847   0.572  0.1472  0.0290 -0.2978
 7793TIP3    H244795   1.104   4.913   0.659  0.1142  0.0999 -0.3913
 7794TIP3   OH244796   3.012   5.050  12.256 -0.1343  0.0088 -0.2971
 7794TIP3    H144797   3.013   5.016  12.167 -1.5654 -1.2903  0.1554
 7794TIP3    H244798   3.093   5.018  12.295  0.2329  0.1236 -0.9704
 7795TIP3   OH244799   0.052   6.528   2.536 -0.3800 -0.3767  0.9742
 7795TIP3    H144800  -0.024   6.483   2.572 -1.3277  0.3334 -0.0712
 7795TIP3    H244801   0.027   6.546   2.445 -0.0550  2.2301  1.3666
 7796TIP3   OH244802   1.043   1.942   2.794  0.1521  0.3283  0.0095
 7796TIP3    H144803   0.975   1.877   2.811  1.4141 -0.2881  3.0919
 7796TIP3    H244804   1.125   1.894   2.808  1.1386  2.0825  0.3288
 7797TIP3   OH244805   2.838   0.162   0.239  0.2563  0.3184  0.6541
 7797TIP3    H144806   2.763   0.154   0.181  0.4607  3.0206 -0.0558
 7797TIP3    H244807   2.910   0.118   0.193 -0.4544 -0.7430  0.5493
 7798TIP3   OH244808   1.908   4.447   2.795 -0.1485 -0.5394 -0.6193
 7798TIP3    H144809   1.855   4.407   2.726  0.2382 -0.6698 -0.8433
 7798TIP3    H244810   1.995   4.456   2.756 -0.4308  1.2990 -0.8776
 7799TIP3   OH244811   0.727   3.656   2.608 -0.2717  0.3383 -0.2089
 7799TIP3    H144812   0.804   3.678   2.556 -1.2542  1.4621 -1.2135
 7799TIP3    H244813   0.752   3.577   2.657  2.3679  2.0957  1.3544
 7800TIP3   OH244814   3.442   4.000   0.228  0.0822  0.9203 -0.4893
 7800TIP3    H144815   3.476   4.037   0.147  1.4476 -0.1772 -0.4539
 7800TIP3    H244816   3.441   3.905   0.212 -2.2189  0.8697 -0.1833
 7801TIP3   OH244817   6.722   6.620   2.240  0.1785  0.4733 -0.3183
 7801TIP3    H144818   6.644   6.657   2.281 -0.2286 -0.6298 -0.0916
 7801TIP3    H244819   6.692   6.587   2.155  0.1720 -0.9197  0.2223
 7802TIP3   OH244820   2.156   0.048  15.551 -0.2717 -0.6511 -0.4876
 7802TIP3    H144821   2.084   0.103  15.523 -1.1345 -1.9700 -0.9058
 7802TIP3    H244822   2.222   0.056  15.482 -0.6096 -0.5470 -0.7966
 7803TIP3   OH244823   2.762   2.996   4.627 -0.1813  0.1101  0.5977
 7803TIP3    H144824   2.761   2.901   4.617  0.0920  0.0410  1.1606
 7803TIP3    H244825   2.852   3.016   4.654  0.4798  0.8068 -2.0172
 7804TIP3   OH244826   6.711   3.138  15.570 -0.2816 -0.0824 -0.1607
 7804TIP3    H144827   6.766   3.217  15.574  0.0827 -0.2482 -1.6144
 7804TIP3    H244828   6.631   3.162  15.618  0.3225  0.7528  0.4525
 7805TIP3   OH244829   3.670   3.617   2.876  0.1438 -0.7350 -0.5634
 7805TIP3    H144830   3.579   3.602   2.851 -0.0801 -1.3713  0.5882
 7805TIP3    H244831   3.665   3.655   2.964  0.9376  0.6210 -1.1016
 7806TIP3   OH244832   1.685   2.930  15.934 -0.0478 -0.1223 -0.0750
 7806TIP3    H144833   1.639   3.009  15.906 -0.4670 -0.0911  0.6960
 7806TIP3    H244834   1.753   2.962  15.993  0.4850 -0.2392 -0.6200
 7807TIP3   OH244835   6.234   3.455  13.689  0.1751 -0.0797 -0.0397
 7807TIP3    H144836   6.246   3.474  13.782 -1.7168  0.8102  0.0425
 7807TIP3    H244837   6.155   3.401  13.686  0.0939  0.0921 -1.1673
 7808TIP3   OH244838   0.156   4.393   2.402  0.0458  0.2471 -0.0083
 7808TIP3    H144839   0.128   4.462   2.462 -0.8523  0.6336 -0.8580
 7808TIP3    H244840   0.167   4.316   2.457 -1.8838  0.3013  0.4839
 7809TIP3   OH244841   2.465   3.281   0.061 -0.1332 -0.0099  0.0477
 7809TIP3    H144842   2.484   3.189   0.081 -1.8399 -0.2946  0.4796
 7809TIP3    H244843   2.517   3.300  -0.017  2.9627 -0.3000  1.9842
 7810TIP3   OH244844   6.661   4.099   0.783 -0.0508  0.0773 -0.7664
 7810TIP3    H144845   6.683   4.187   0.814  1.1551  0.2834 -2.1430
 7810TIP3    H244846   6.704   4.040   0.846 -0.7107  0.4599  0.0535
 7811TIP3   OH244847   1.040   2.637   0.644  0.0904  0.3011  0.8231
 7811TIP3    H144848   1.039   2.549   0.606 -0.5800  0.8895 -0.5422
 7811TIP3    H244849   1.117   2.638   0.700 -0.0967 -1.2816  1.1310
 7812TIP3   OH244850   5.243   4.616   4.184  0.1030 -0.0720 -0.0274
 7812TIP3    H144851   5.329   4.574   4.187  0.4508  0.6124 -0.2902
 7812TIP3    H244852   5.189   4.556   4.131 -0.3328 -1.8181  2.3131
 7813TIP3   OH244853   2.013   6.277   2.322  0.3565 -0.7091  0.1993
 7813TIP3    H144854   2.024   6.186   2.350  0.6611 -0.8340 -0.3219
 7813TIP3    H244855   2.066   6.284   2.243 -0.9223 -0.5149 -0.6632
 7814TIP3   OH244856   0.782   3.390  15.291 -0.3642  0.6945 -0.7033
 7814TIP3    H144857   0.760   3.304  15.256  0.6193  0.0055  0.3571
 7814TIP3    H244858   0.699   3.423  15.327 -0.4928 -0.3134 -0.0430
 7815TIP3   OH244859   2.370   6.380  16.223 -0.4548  0.5330 -0.0664
 7815TIP3    H144860   2.403   6.467  16.199  0.3039  0.2562 -0.0296
 7815TIP3    H244861   2.276   6.384  16.203 -1.2433  2.6575  3.5537
 7816TIP3   OH244862   0.718   4.162  12.699 -0.3967  0.2545  0.1670
 7816TIP3    H144863   0.683   4.189  12.783  1.4210  2.4130  0.2844
 7816TIP3    H244864   0.772   4.085  12.719 -1.1029 -0.0853  0.7501
 7817TIP3   OH244865   0.140   3.836  12.079 -0.1556 -0.5019  0.3179
 7817TIP3    H144866   0.222   3.796  12.108  1.1982  2.2239  0.4584
 7817TIP3    H244867   0.106   3.880  12.157 -0.0768  1.0622 -0.5118
 7818TIP3   OH244868   4.070   6.264   3.655  0.1624  0.6177 -0.5502
 7818TIP3    H144869   4.062   6.279   3.561  1.2281  1.2145 -0.5534
 7818TIP3    H244870   3.980   6.250   3.685 -0.2525  1.1645 -1.5250
 7819TIP3   OH244871   0.365   4.739   4.798  0.3701  0.1411 -0.5405
 7819TIP3    H144872   0.350   4.722   4.705 -1.5777 -0.8703 -0.0508
 7819TIP3    H244873   0.441   4.684   4.820 -0.6004 -1.3983 -0.9848
 7820TIP3   OH244874   6.033   5.252   2.871 -0.3771 -0.0626  0.5997
 7820TIP3    H144875   6.052   5.288   2.784  0.2719 -0.8921  0.3834
 7820TIP3    H244876   6.066   5.318   2.932  1.3610 -0.5511  0.2134
 7821TIP3   OH244877   3.170   6.648  16.547 -0.1930  0.0749 -0.0416
 7821TIP3    H144878   3.082   6.610  16.542  0.9587 -2.6263 -0.7241
 7821TIP3    H244879   3.206   6.637  16.459  0.7746  1.3771  0.1708
 7822TIP3   OH244880   3.519   2.708   1.846  0.4890 -0.2997 -0.0139
 7822TIP3    H144881   3.438   2.721   1.894  0.0595  1.1303 -1.0877
 7822TIP3    H244882   3.533   2.613   1.846 -0.2062 -0.4125  1.7374
 7823TIP3   OH244883   2.826   2.083   4.823  0.0384 -0.2738 -0.5283
 7823TIP3    H144884   2.909   2.124   4.800 -0.6281  2.5540  1.7983
 7823TIP3    H244885   2.845   2.030   4.900  0.0890 -1.2335 -1.1966
 7824TIP3   OH244886   2.014   5.176  16.186  1.5513 -0.2471  0.0128
 7824TIP3    H144887   2.017   5.253  16.242 -2.1394 -1.0967  1.5589
 7824TIP3    H244888   2.073   5.113  16.227  1.1105  0.1878  1.3320
 7825TIP3   OH244889   4.540   2.933   3.186 -0.5074  0.4192 -0.3860
 7825TIP3    H144890   4.557   3.022   3.157 -0.7268  0.2254 -1.1451
 7825TIP3    H244891   4.453   2.913   3.150 -0.8097  0.1814  0.4605
 7826TIP3   OH244892   3.476   1.495  12.801 -0.1641  0.2382 -0.2604
 7826TIP3    H144893   3.537   1.436  12.845 -1.1547  0.5549  1.6025
 7826TIP3    H244894   3.389   1.463  12.827 -0.7424  1.7055 -0.3195
 7827TIP3   OH244895   0.946   5.964  16.843  0.5323 -0.5362 -0.7688
 7827TIP3    H144896   0.862   5.945  16.801  2.8185 -1.6701 -5.1401
 7827TIP3    H244897   0.941   6.058  16.864 -1.1696 -0.1760 -2.6105
 7828TIP3   OH244898   2.485   5.043  15.146 -0.2859 -0.7459  0.2139
 7828TIP3    H144899   2.458   5.094  15.223  0.0518  0.5330 -0.5062
 7828TIP3    H244900   2.568   5.083  15.119 -0.3698 -1.2455 -0.7771
 7829TIP3   OH244901   5.345   2.066   1.138 -0.4064  0.3112 -0.2500
 7829TIP3    H144902   5.383   1.989   1.181 -2.0326 -1.9008 -2.6334
 7829TIP3    H244903   5.285   2.103   1.202 -0.1432 -0.8132  0.6526
 7830TIP3   OH244904   1.407   4.333   5.097  0.1256  0.0160  0.3686
 7830TIP3    H144905   1.349   4.350   5.171  0.6929  2.1591  0.3522
 7830TIP3    H244906   1.399   4.239   5.081 -2.9263  0.1846  0.6859
 7831TIP3   OH244907   6.080   5.435   1.748  0.4123 -0.2586 -0.4106
 7831TIP3    H144908   6.020   5.361   1.758 -0.1345  0.1738 -0.4727
 7831TIP3    H244909   6.023   5.508   1.722  0.8980  0.2766  0.0414
 7832TIP3   OH244910   1.626   2.598  15.189  0.5538  0.3444  0.1136
 7832TIP3    H144911   1.613   2.589  15.283  0.1803  1.0966  0.1400
 7832TIP3    H244912   1.663   2.686  15.178  0.4534  0.3196 -0.4531
 7833TIP3   OH244913   0.189   0.394  10.884 -0.1048 -0.2030  0.2649
 7833TIP3    H144914   0.174   0.445  10.963 -2.1348 -1.9258  1.0096
 7833TIP3    H244915   0.216   0.308  10.915 -0.5916 -0.8005 -0.9333
 7834TIP3   OH244916   4.144   1.048  10.726 -0.2138 -0.3481 -0.0342
 7834TIP3    H144917   4.105   1.121  10.677  1.3458  0.2597 -0.3911
 7834TIP3    H244918   4.070   0.991  10.745 -1.2566  0.6693 -0.9023
 7835TIP3   OH244919   0.541   3.934  12.746  0.1846  0.6549 -0.0162
 7835TIP3    H144920   0.558   4.028  12.749  1.6326  0.5063 -2.7760
 7835TIP3    H244921   0.457   3.926  12.700 -0.8227  0.6445  1.7575
 7836TIP3   OH244922   2.333   5.644  12.235  0.0302 -0.3542 -0.4157
 7836TIP3    H144923   2.345   5.649  12.329  0.1869  0.7236 -0.4859
 7836TIP3    H244924   2.262   5.705  12.216 -0.3107 -0.9094 -0.9384
 7837TIP3   OH244925   0.490   4.004  10.721  0.0478  0.2857 -0.5351
 7837TIP3    H144926   0.480   4.082  10.775  3.1164  0.4106 -0.0916
 7837TIP3    H244927   0.570   4.019  10.671  0.7244 -2.6092 -0.3898
 7838TIP3   OH244928   0.671   1.708  13.896 -0.3061  0.0921  0.0458
 7838TIP3    H144929   0.705   1.743  13.814  1.5957 -0.5005  0.5515
 7838TIP3    H244930   0.601   1.768  13.920  0.9670  1.8994 -0.5848
 7839TIP3   OH244931   0.126   3.809  15.185 -0.2716 -0.6202  1.1004
 7839TIP3    H144932   0.136   3.885  15.128  0.1039 -0.7626  0.9745
 7839TIP3    H244933   0.039   3.774  15.164 -0.5998 -0.0070  1.4278
 7840TIP3   OH244934   2.533   4.345  16.238 -0.1401 -0.7316  0.3024
 7840TIP3    H144935   2.603   4.368  16.176 -1.5264  2.8294 -0.0476
 7840TIP3    H244936   2.569   4.369  16.324 -0.5784  0.2701  0.2100
 7841TIP3   OH244937   5.129   3.600   1.833 -0.0819  0.4374 -0.1248
 7841TIP3    H144938   5.197   3.634   1.775  1.7899 -0.5571  1.4012
 7841TIP3    H244939   5.156   3.627   1.921 -0.8741 -1.1818  0.6577
 7842TIP3   OH244940   0.941   4.529  16.620  0.1591  0.1386  0.5006
 7842TIP3    H144941   1.002   4.592  16.659  1.0190  0.8151 -1.8200
 7842TIP3    H244942   0.989   4.446  16.621 -0.3136 -0.1356  1.9922
 7843TIP3   OH244943   1.487   6.783   5.983  0.1780 -0.3363  0.0221
 7843TIP3    H144944   1.506   6.866   6.027 -0.3534 -0.4234  0.4223
 7843TIP3    H244945   1.525   6.716   6.040  0.1915 -0.3980 -0.0592
 7844TIP3   OH244946   1.495   5.187  16.416  0.1512 -0.1813 -0.6094
 7844TIP3    H144947   1.525   5.102  16.384 -1.8212 -1.0642 -0.1995
 7844TIP3    H244948   1.573   5.242  16.418  1.0534 -1.3547 -2.9003
 7845TIP3   OH244949   1.532   0.103  16.116 -0.1918  0.0362 -0.0086
 7845TIP3    H144950   1.443   0.138  16.121  0.4319  1.4898  1.3284
 7845TIP3    H244951   1.588   0.180  16.108  0.8743 -0.9351 -2.2984
 7846TIP3   OH244952   0.127   4.105   2.053  0.3310 -0.0285  0.2674
 7846TIP3    H144953   0.191   4.144   1.994  0.1719 -0.4197 -0.1636
 7846TIP3    H244954   0.103   4.176   2.112  1.4114  0.0229  0.6438
 7847TIP3   OH244955   4.387   3.531  12.586  0.3903  0.4118  0.0213
 7847TIP3    H144956   4.447   3.585  12.534  0.6536  1.1860  1.1160
 7847TIP3    H244957   4.318   3.507  12.524  0.5816  1.5017 -0.6330
 7848TIP3   OH244958   1.329   5.658   4.054 -0.7078 -0.5846  0.2686
 7848TIP3    H144959   1.296   5.676   3.966  0.4455 -0.8937 -0.2439
 7848TIP3    H244960   1.271   5.707   4.112 -1.4105 -0.2863 -0.6732
 7849TIP3   OH244961   4.179   5.275  10.884 -0.0364  0.1495  0.0211
 7849TIP3    H144962   4.085   5.277  10.865 -0.2337 -0.5092  0.9165
 7849TIP3    H244963   4.220   5.284  10.798 -0.9046  1.8049 -0.2491
 7850TIP3   OH244964   4.581   5.494   2.546 -0.2021  0.5291 -0.0450
 7850TIP3    H144965   4.519   5.422   2.559  0.0467  0.1690 -0.8583
 7850TIP3    H244966   4.651   5.456   2.494  0.4169  1.1001  0.3632
 7851TIP3   OH244967   2.001   3.843   5.787 -0.3050  0.1907  0.3091
 7851TIP3    H144968   1.999   3.801   5.874  0.8390 -1.7711 -0.5620
 7851TIP3    H244969   2.081   3.896   5.788  0.3046 -0.7026  0.0971
 7852TIP3   OH244970   0.714   5.064  16.476 -0.0593 -0.5197  0.1166
 7852TIP3    H144971   0.692   4.975  16.503 -2.3953  0.3146  1.1400
 7852TIP3    H244972   0.785   5.091  16.534  0.6177 -1.6892 -0.1617
 7853TIP3   OH244973   2.000   6.667   1.160 -0.7391 -0.1616  0.6468
 7853TIP3    H144974   1.985   6.635   1.249 -1.4669  0.4616  0.7582
 7853TIP3    H244975   2.094   6.658   1.147 -0.7644 -1.1832  1.1187
 7854TIP3   OH244976   4.736   4.546  14.514 -0.4667  0.2579 -0.0177
 7854TIP3    H144977   4.664   4.584  14.465 -1.7058  0.1444  1.6436
 7854TIP3    H244978   4.776   4.483  14.454 -0.4048  1.8564 -1.6746
 7855TIP3   OH244979   0.184   5.237   5.773  0.4461  0.0263  0.1993
 7855TIP3    H144980   0.212   5.202   5.858 -1.1231 -0.8433  0.3759
 7855TIP3    H244981   0.203   5.167   5.711  0.4329  0.1781  0.0241
 7856TIP3   OH244982   3.706   6.314  13.996 -0.1716  0.2793 -0.1414
 7856TIP3    H144983   3.685   6.403  13.970  0.0772  0.0639 -1.1117
 7856TIP3    H244984   3.662   6.259  13.931 -0.2303 -0.2966  0.3818
 7857TIP3   OH244985   4.373   5.471  14.674 -0.2066  0.0487  0.2431
 7857TIP3    H144986   4.450   5.414  14.680  0.2273  0.5308 -0.8316
 7857TIP3    H244987   4.404   5.550  14.630 -0.9840  0.8319  1.0790
 7858TIP3   OH244988   0.887   3.954   4.631 -0.3527  0.5950 -0.0427
 7858TIP3    H144989   0.905   4.036   4.584  3.3519 -2.0919 -3.6883
 7858TIP3    H244990   0.914   3.973   4.721 -1.0509  3.8049 -0.4297
 7859TIP3   OH244991   5.839   5.267   6.138  0.2060 -0.0121 -0.3314
 7859TIP3    H144992   5.744   5.268   6.148  0.1589  0.4015 -0.8181
 7859TIP3    H244993   5.853   5.237   6.048  0.5984 -2.4952  0.5261
 7860TIP3   OH244994   1.615   1.679  16.959 -0.8383 -0.3192  0.1246
 7860TIP3    H144995   1.665   1.677  17.041 -0.4749 -0.7940 -0.1095
 7860TIP3    H244996   1.659   1.617  16.902 -1.4760 -0.4702 -0.2163
 7861TIP3   OH244997   3.823   4.271  11.120 -0.0582 -0.0410 -0.3390
 7861TIP3    H144998   3.852   4.232  11.038  1.7063 -0.3389  0.3912
 7861TIP3    H244999   3.733   4.239  11.132 -0.0391 -0.6366 -1.7488
 7862TIP3   OH245000   3.877   4.603  12.342 -0.0376 -0.0632  0.8199
 7862TIP3    H145001   3.859   4.513  12.314  0.0473  0.2162 -0.1431
 7862TIP3    H245002   3.803   4.625  12.399 -0.6371 -0.3550  0.1671
 7863TIP3   OH245003   1.932   5.908   1.694 -0.3971  0.0453 -0.1688
 7863TIP3    H145004   1.911   5.995   1.729  0.1067 -0.0721  0.4396
 7863TIP3    H245005   2.009   5.923   1.639  0.7668 -0.2992  1.3385
 7864TIP3   OH245006   4.236   3.581   5.198 -0.0550  0.0949  0.6171
 7864TIP3    H145007   4.296   3.564   5.271  0.1760 -0.9900  0.1910
 7864TIP3    H245008   4.169   3.638   5.235  0.5667  0.3041  1.4352
 7865TIP3   OH245009   6.320   5.828   5.274 -0.3780  0.7212 -0.3762
 7865TIP3    H145010   6.296   5.749   5.323 -0.6422 -0.8554 -2.9607
 7865TIP3    H245011   6.318   5.898   5.339  0.0349 -1.4250  2.0069
 7866TIP3   OH245012   2.464   5.341  15.102 -0.2587 -0.3396  0.0186
 7866TIP3    H145013   2.389   5.337  15.161 -0.9710 -1.2478 -0.9213
 7866TIP3    H245014   2.435   5.294  15.023  0.7763  0.5676 -0.9242
 7867TIP3   OH245015   1.391   0.405  16.674 -0.1885  0.1393  0.3534
 7867TIP3    H145016   1.329   0.423  16.745 -2.2395  0.8083 -1.5505
 7867TIP3    H245017   1.429   0.490  16.653  1.4254 -0.2676  1.5102
 7868TIP3   OH245018   0.388   5.805  14.167  0.1501  0.1970 -0.1227
 7868TIP3    H145019   0.435   5.734  14.123 -1.5657 -0.5119 -0.8830
 7868TIP3    H245020   0.319   5.762  14.216 -0.2228  1.2626  0.3105
 7869TIP3   OH245021   0.505   6.036  14.245 -0.1074 -0.2758 -0.3713
 7869TIP3    H145022   0.470   6.108  14.298 -0.0511  0.0318 -0.7482
 7869TIP3    H245023   0.428   5.982  14.225 -0.3695  0.4138 -1.2211
 7870TIP3   OH245024   0.640   0.419   3.454 -0.5853 -0.2719 -0.0686
 7870TIP3    H145025   0.735   0.408   3.452 -0.3698  1.6941 -0.9637
 7870TIP3    H245026   0.616   0.400   3.545  0.4400 -2.4006 -0.2161
 7871TIP3   OH245027   0.794   5.568  14.958  0.0098 -0.1886  0.3173
 7871TIP3    H145028   0.812   5.499  14.894  2.2487 -0.5741  1.3236
 7871TIP3    H245029   0.701   5.557  14.979  0.3236 -2.9402  0.4551
 7872TIP3   OH245030   2.441   3.847  12.723 -0.2888  0.4143 -0.0847
 7872TIP3    H145031   2.399   3.835  12.808 -2.0650 -0.1688 -1.0145
 7872TIP3    H245032   2.406   3.776  12.668  1.1698  0.5052 -1.1845
 7873TIP3   OH245033   4.616   5.274  14.677  0.1078 -0.2173  0.1829
 7873TIP3    H145034   4.689   5.218  14.651  0.2201  0.1584 -0.3207
 7873TIP3    H245035   4.537   5.225  14.652  0.1220 -1.6851  2.8966
 7874TIP3   OH245036   4.261   5.205  13.788 -0.2674  0.2205  0.3369
 7874TIP3    H145037   4.354   5.206  13.809 -0.5639 -0.5189  1.7005
 7874TIP3    H245038   4.255   5.156  13.705  0.7847  2.2850 -1.0020
 7875TIP3   OH245039   4.003   6.218   5.938 -0.0408 -0.0612  0.4888
 7875TIP3    H145040   3.911   6.242   5.928 -0.0285 -0.1775  0.0974
 7875TIP3    H245041   4.002   6.126   5.963  0.0972 -1.2886 -3.7011
 7876TIP3   OH245042   2.780   2.018   2.035  0.3617 -0.5926  0.2597
 7876TIP3    H145043   2.836   1.998   2.111 -0.5478  4.1549  2.3454
 7876TIP3    H245044   2.835   2.070   1.978 -0.3877 -0.2230 -0.1253
 7877TIP3   OH245045   3.998   3.649  13.916  0.0622  0.3931 -0.2298
 7877TIP3    H145046   3.980   3.650  14.010 -1.0327 -0.0879 -0.4279
 7877TIP3    H245047   4.018   3.740  13.894  2.0716  0.2295  0.7813
 7878TIP3   OH245048   3.821   0.052   1.943 -0.0718  0.3483  0.2276
 7878TIP3    H145049   3.824   0.102   1.862 -1.5858  2.2257  1.3049
 7878TIP3    H245050   3.912   0.023   1.957  0.4577  1.1923 -1.3798
 7879TIP3   OH245051   6.379   2.661  15.816  0.0645 -0.5395  0.3038
 7879TIP3    H145052   6.353   2.577  15.779  0.9714 -1.1199  0.9817
 7879TIP3    H245053   6.413   2.711  15.742  1.3856 -1.5053  0.2610
 7880TIP3   OH245054   0.925   5.176  13.746  0.1393 -0.1901  0.3408
 7880TIP3    H145055   0.832   5.159  13.757 -0.1979  0.7849 -0.8973
 7880TIP3    H245056   0.954   5.206  13.832 -0.5860 -0.9282  0.8474
 7881TIP3   OH245057   0.057   1.308   5.548  0.6425  0.0736 -0.4252
 7881TIP3    H145058   0.080   1.400   5.564 -1.7885  0.4901  0.9077
 7881TIP3    H245059   0.037   1.304   5.454 -1.2038  1.4041 -0.1202
 7882TIP3   OH245060   5.993   6.505   1.726  0.5220 -0.3037 -0.0633
 7882TIP3    H145061   5.979   6.445   1.652 -0.4661  0.6378 -0.6543
 7882TIP3    H245062   6.012   6.589   1.685  1.2603 -0.0579  0.7685
 7883TIP3   OH245063   2.733   4.728  16.936  0.2229 -0.1009 -0.5171
 7883TIP3    H145064   2.747   4.679  17.018  0.0362 -0.0493 -0.4542
 7883TIP3    H245065   2.638   4.727  16.924  0.2194  0.2460 -0.5167
 7884TIP3   OH245066   0.862   0.437  13.259  0.0700  0.6224 -0.0004
 7884TIP3    H145067   0.779   0.395  13.239  0.7372 -1.8194  2.0975
 7884TIP3    H245068   0.840   0.505  13.323 -0.5467  1.1126 -0.7389
 7885TIP3   OH245069   4.643   2.584   2.977  0.3351  0.1554 -0.2613
 7885TIP3    H145070   4.656   2.493   3.005 -1.9373 -0.1065  0.1031
 7885TIP3    H245071   4.609   2.576   2.887  2.3580  0.7574 -1.0911
 7886TIP3   OH245072   2.895   2.467  14.424  0.3070  0.0230 -0.0757
 7886TIP3    H145073   2.821   2.502  14.373 -0.0422  0.2519  0.5895
 7886TIP3    H245074   2.940   2.409  14.362 -1.1037 -1.0453 -0.1566
 7887TIP3   OH245075   0.529   3.198   5.091  0.4829 -0.0751 -0.1100
 7887TIP3    H145076   0.480   3.210   5.172  0.9990 -0.7259  0.3061
 7887TIP3    H245077   0.462   3.179   5.025  0.2424 -2.5497  0.7734
 7888TIP3   OH245078   0.414   4.441   0.332 -0.2659 -0.3782 -0.2570
 7888TIP3    H145079   0.425   4.536   0.329 -0.4852 -0.3065  1.0234
 7888TIP3    H245080   0.420   4.413   0.240  1.7595  0.6304 -0.4491
 7889TIP3   OH245081   5.476   1.255  11.182  0.4612 -0.7991  0.2213
 7889TIP3    H145082   5.388   1.250  11.144  0.9542 -1.7225 -0.8293
 7889TIP3    H245083   5.512   1.167  11.172  2.3328  0.0849 -1.4102
 7890TIP3   OH245084   0.673   1.929  17.125  0.6203 -0.0896 -0.8418
 7890TIP3    H145085   0.658   1.837  17.147 -0.0440  0.3099  0.3993
 7890TIP3    H245086   0.764   1.932  17.094  1.2204 -0.8518  0.8248
 7891TIP3   OH245087   5.915   3.500   6.582 -0.6696  0.0691 -0.1406
 7891TIP3    H145088   5.845   3.565   6.593  1.3200  1.9901  1.6402
 7891TIP3    H245089   5.902   3.439   6.654 -0.4623  0.4568  0.2233
 7892TIP3   OH245090   3.152   0.699   6.214 -0.2362  0.1353 -0.1973
 7892TIP3    H145091   3.124   0.612   6.241 -0.9624  0.0167 -1.3204
 7892TIP3    H245092   3.072   0.743   6.186  0.0254  1.3984  0.9682
 7893TIP3   OH245093   2.221   6.535   0.538  0.6564 -0.9923 -0.4460
 7893TIP3    H145094   2.224   6.480   0.617  0.6670 -2.5980 -1.5518
 7893TIP3    H245095   2.313   6.558   0.522  0.6754 -0.8191 -0.1031
 7894TIP3   OH245096   3.148   6.626   3.882  0.2799 -0.0936  0.2667
 7894TIP3    H145097   3.175   6.591   3.967 -0.9549  1.6943  1.4200
 7894TIP3    H245098   3.057   6.596   3.873 -1.0129  3.2510  1.5645
 7895TIP3   OH245099   2.922   0.078   4.113  0.2603  0.2925 -0.5893
 7895TIP3    H145100   2.893   0.110   4.028 -0.1792 -1.0520 -0.9528
 7895TIP3    H245101   2.898   0.148   4.174 -0.3388  0.8199 -1.4197
 7896TIP3   OH245102   4.924   3.019  10.306 -0.0437 -0.1036 -0.2393
 7896TIP3    H145103   4.902   3.017  10.400 -0.5650 -0.3255 -0.3634
 7896TIP3    H245104   4.886   3.101  10.275  2.0963  1.1059  0.2090
 7897TIP3   OH245105   3.439   0.276   2.618  0.4388  0.1550  0.4748
 7897TIP3    H145106   3.354   0.280   2.573  0.1967  0.7298  0.9705
 7897TIP3    H245107   3.478   0.362   2.603  0.2206  0.4627  1.6185
 7898TIP3   OH245108   2.998   1.193   3.643  0.5074 -0.2026  0.0340
 7898TIP3    H145109   3.072   1.148   3.683  2.4092  1.5537 -1.3838
 7898TIP3    H245110   2.956   1.127   3.588  2.9778 -0.4293 -1.6588
 7899TIP3   OH245111   5.269   3.322   5.947 -0.3226  0.1711 -0.6334
 7899TIP3    H145112   5.274   3.417   5.958 -0.3253  0.1465 -0.4276
 7899TIP3    H245113   5.243   3.310   5.855 -0.7799  0.3722 -0.5270
 7900TIP3   OH245114   3.420   0.816   2.314 -0.1067  0.5153 -0.2623
 7900TIP3    H145115   3.490   0.861   2.267  2.0453 -1.9270  0.5453
 7900TIP3    H245116   3.373   0.768   2.246  0.1418  0.6527 -0.5331
 7901TIP3   OH245117   4.644   3.681  17.068 -0.6453  0.0285  0.1300
 7901TIP3    H145118   4.574   3.690  17.002 -0.1548  3.0434 -0.0483
 7901TIP3    H245119   4.603   3.707  17.150 -0.2907 -0.2067  0.3811
 7902TIP3   OH245120   0.519   6.096   4.050 -0.1861 -0.1297 -0.6802
 7902TIP3    H145121   0.596   6.046   4.024  2.3548  1.1879  3.7567
 7902TIP3    H245122   0.494   6.060   4.135 -3.0800  1.0282 -0.9862
 7903TIP3   OH245123   3.553   3.173   1.645  0.2784  0.4023  0.1669
 7903TIP3    H145124   3.620   3.182   1.578 -0.5103  1.1589 -0.5459
 7903TIP3    H245125   3.498   3.251   1.633  1.1871  1.5290  2.8835
 7904TIP3   OH245126   0.525   1.853  15.139 -0.2859  0.1393 -0.3237
 7904TIP3    H145127   0.564   1.929  15.096 -1.2795  1.4203  0.9960
 7904TIP3    H245128   0.551   1.862  15.231 -0.6064 -0.9884 -0.1178
 7905TIP3   OH245129   6.045   2.408  15.098 -0.3693  0.5649 -0.6695
 7905TIP3    H145130   5.992   2.471  15.147 -0.4349  0.9123 -1.1870
 7905TIP3    H245131   6.051   2.444  15.010 -0.0434  0.0638 -0.8586
 7906TIP3   OH245132   3.371   2.108   2.152 -0.2166  0.1650  0.0142
 7906TIP3    H145133   3.467   2.110   2.150 -0.0978 -0.7888  2.3789
 7906TIP3    H245134   3.347   2.053   2.078  1.1417 -0.5599  0.0935
 7907TIP3   OH245135   6.072   2.192  14.785  0.2865 -0.3791  0.1837
 7907TIP3    H145136   6.017   2.266  14.808 -0.1692 -1.0206  1.2085
 7907TIP3    H245137   6.085   2.145  14.867  0.5620 -1.4349 -0.4481
 7908TIP3   OH245138   2.090   2.062   1.284 -0.1985 -0.8164 -0.0366
 7908TIP3    H145139   2.099   1.967   1.293 -2.8561 -0.8489  3.4299
 7908TIP3    H245140   2.167   2.098   1.326  0.7152 -1.4242 -1.1688
 7909TIP3   OH245141   6.230   1.833  12.198  0.1418 -0.1105  0.0957
 7909TIP3    H145142   6.251   1.784  12.119 -3.1066  2.0731 -2.2112
 7909TIP3    H245143   6.189   1.769  12.256 -1.3149 -0.7891 -1.6739
 7910TIP3   OH245144   6.185   0.926  14.500  0.0211 -0.5964 -0.0273
 7910TIP3    H145145   6.164   0.855  14.440 -0.9643  1.8741 -2.7297
 7910TIP3    H245146   6.245   0.982  14.451 -0.4279  1.2486  1.4757
 7911TIP3   OH245147   2.172   2.483  15.146 -0.2834  0.0886 -0.2792
 7911TIP3    H145148   2.267   2.489  15.158 -0.4953  0.8835  1.2974
 7911TIP3    H245149   2.136   2.516  15.229 -1.9352  0.1660 -1.0030
 7912TIP3   OH245150   1.285   1.068   5.241 -0.2964  0.7302  0.3707
 7912TIP3    H145151   1.346   1.141   5.251 -1.1295  1.2163  2.1535
 7912TIP3    H245152   1.324   0.996   5.290  1.2919 -0.5718 -2.6651
 7913TIP3   OH245153   2.330   5.079  11.784 -0.2050 -0.4217 -0.3770
 7913TIP3    H145154   2.339   5.173  11.769 -0.9660 -0.0222  1.4714
 7913TIP3    H245155   2.311   5.042  11.698  1.0923  0.9861 -1.2791
 7914TIP3   OH245156   0.704   5.661   5.825  0.4960 -0.4977 -0.3719
 7914TIP3    H145157   0.709   5.608   5.904 -0.4349 -0.7643 -0.4793
 7914TIP3    H245158   0.778   5.721   5.831  0.0683 -0.0747  1.0340
 7915TIP3   OH245159   4.725   3.082   2.771  0.5960 -0.2597  0.5107
 7915TIP3    H145160   4.767   3.033   2.841 -0.0112 -0.0487  1.0324
 7915TIP3    H245161   4.796   3.106   2.712  1.1612 -0.1664  1.2165
 7916TIP3   OH245162   1.778   1.734   4.899  0.2677 -0.4884  0.2244
 7916TIP3    H145163   1.825   1.695   4.825 -0.0593 -0.7937  0.1780
 7916TIP3    H245164   1.804   1.681   4.975  0.8152 -0.0081  0.3785
 7917TIP3   OH245165   0.317   3.271  17.057  0.2972 -0.3248  0.1661
 7917TIP3    H145166   0.286   3.351  17.015  1.2040 -0.9492 -1.7550
 7917TIP3    H245167   0.269   3.200  17.013  0.5071 -0.9285  0.9017
 7918TIP3   OH245168   0.074   5.030   1.870 -0.0780  0.5806 -0.3017
 7918TIP3    H145169  -0.021   5.036   1.879 -0.2206 -1.1756 -0.3970
 7918TIP3    H245170   0.099   5.108   1.820 -1.6358  0.3528 -1.4659
 7919TIP3   OH245171   3.114   2.589   2.073  0.6109  0.1274 -0.1327
 7919TIP3    H145172   3.139   2.497   2.074  1.3104  0.2476 -2.8672
 7919TIP3    H245173   3.040   2.594   2.134  2.0377 -1.7527  1.8615
 7920TIP3   OH245174   4.006   6.592  14.466  0.3965  1.1112 -0.1386
 7920TIP3    H145175   3.992   6.574  14.372  2.5137 -0.8771 -0.1027
 7920TIP3    H245176   4.100   6.586  14.478  0.1559  1.5441  2.1187
 7921TIP3   OH245177   1.031   1.499   5.507  0.2729 -0.6675 -0.1999
 7921TIP3    H145178   1.102   1.561   5.518  0.0804 -0.3006 -0.9714
 7921TIP3    H245179   0.983   1.501   5.590  0.0500  0.4798 -0.3481
 7922TIP3   OH245180   2.853   6.299   5.852  0.1929  0.2775 -0.0257
 7922TIP3    H145181   2.784   6.346   5.900 -1.1947 -0.0508 -1.6686
 7922TIP3    H245182   2.926   6.296   5.914 -0.6385  2.1778  1.1133
 7923TIP3   OH245183   3.876   4.227  14.203 -0.2954  0.3632 -0.0082
 7923TIP3    H145184   3.837   4.221  14.290 -0.4665  0.0155 -0.1086
 7923TIP3    H245185   3.806   4.199  14.143 -0.9790  2.8969 -0.4600
 7924TIP3   OH245186   0.850   2.603   0.439  0.7726  0.6388 -0.5217
 7924TIP3    H145187   0.941   2.591   0.467  0.9335  1.1921 -0.7998
 7924TIP3    H245188   0.850   2.578   0.347  0.9657  2.0790 -0.9186
 7925TIP3   OH245189   1.123   3.801  13.318  0.0285 -0.0973 -0.5416
 7925TIP3    H145190   1.130   3.839  13.230 -0.7733 -0.5379 -0.8039
 7925TIP3    H245191   1.141   3.874  13.377 -1.9598  0.8323 -1.0396
 7926TIP3   OH245192   4.071   2.812  14.924  0.8657 -0.2223  0.1683
 7926TIP3    H145193   4.108   2.857  14.848  0.0165  0.6074  0.2422
 7926TIP3    H245194   3.976   2.819  14.913  0.7339  0.4059  1.5939
 7927TIP3   OH245195   4.668   6.541  13.653  0.1227  0.4767  0.3419
 7927TIP3    H145196   4.610   6.617  13.643  1.3869  1.4395  0.2443
 7927TIP3    H245197   4.755   6.575  13.634  0.5317 -1.3243 -1.1564
 7928TIP3   OH245198   6.312   0.826   1.134  0.0223  0.0625 -0.4588
 7928TIP3    H145199   6.349   0.850   1.218  0.5900 -0.1472 -0.6431
 7928TIP3    H245200   6.228   0.872   1.129 -1.6191 -2.5214  1.6717
 7929TIP3   OH245201   1.833   3.022   0.760  0.3735  0.1001  0.6034
 7929TIP3    H145202   1.926   3.033   0.740  0.1499  0.5309 -0.2341
 7929TIP3    H245203   1.831   2.955   0.829  1.2502 -0.4286  0.1270
 7930TIP3   OH245204   5.196   6.427  17.022  0.2895  0.1231 -0.0135
 7930TIP3    H145205   5.144   6.407  17.100  0.2411 -0.6933 -0.2539
 7930TIP3    H245206   5.146   6.495  16.977 -0.0685  0.0507  0.2733
 7931TIP3   OH245207   0.787   4.966   5.244 -0.2672 -0.3085  0.3356
 7931TIP3    H145208   0.693   4.979   5.237 -0.3153 -0.8714 -0.0529
 7931TIP3    H245209   0.798   4.879   5.281  0.1202 -1.3838 -2.2108
 7932TIP3   OH245210   3.119   4.688   2.914 -0.2885 -0.3035  0.1057
 7932TIP3    H145211   3.130   4.606   2.962 -2.1299 -0.0202  1.0586
 7932TIP3    H245212   3.026   4.708   2.923  0.0199  1.5496 -0.6947
 7933TIP3   OH245213   5.059   0.435  11.409 -0.0592  0.0365  0.4695
 7933TIP3    H145214   5.128   0.369  11.403 -0.6341 -0.3942 -1.4552
 7933TIP3    H245215   5.032   0.450  11.319 -3.3158 -0.6532  1.2822
 7934TIP3   OH245216   4.670   6.545  15.087  0.8386  0.1230  0.2779
 7934TIP3    H145217   4.701   6.629  15.053  0.4853 -0.0347 -0.4508
 7934TIP3    H245218   4.739   6.483  15.064  0.3160 -0.0994 -0.7235
 7935TIP3   OH245219   1.759   6.561  14.240 -0.1525  0.7150 -0.0884
 7935TIP3    H145220   1.850   6.564  14.210 -0.6169  1.2339 -1.4964
 7935TIP3    H245221   1.761   6.607  14.324  0.8800  0.7604 -0.1213
 7936TIP3   OH245222   1.975   0.893  16.395 -0.0293 -0.2919 -0.2031
 7936TIP3    H145223   2.055   0.935  16.363  0.5863 -0.9742  0.4300
 7936TIP3    H245224   1.956   0.937  16.479 -0.6054  0.2091 -0.5880
 7937TIP3   OH245225   0.801   3.602   3.250 -0.5242 -0.2694 -0.4613
 7937TIP3    H145226   0.768   3.674   3.304 -1.5139 -1.6870  0.8723
 7937TIP3    H245227   0.891   3.588   3.281 -1.2402 -1.3831  1.1970
 7938TIP3   OH245228   3.628   1.111   2.682  0.0606  0.2964  0.3379
 7938TIP3    H145229   3.566   1.117   2.755 -0.2847 -2.2051  0.3112
 7938TIP3    H245230   3.714   1.116   2.723 -0.1209 -1.7880  1.0500
 7939TIP3   OH245231   1.614   6.032  13.809  0.5168 -0.2805 -0.2972
 7939TIP3    H145232   1.571   6.115  13.786  2.5282  0.7905 -0.3643
 7939TIP3    H245233   1.674   6.055  13.880 -1.4876 -2.4397  2.1870
 7940TIP3   OH245234   2.706   5.872  16.420  0.2153 -0.0745  0.4851
 7940TIP3    H145235   2.771   5.920  16.472  0.6347  0.7887 -0.8044
 7940TIP3    H245236   2.622   5.900  16.454  0.4739  1.0751  0.1832
 7941TIP3   OH245237   1.884   5.231  15.790  0.1892 -0.3350  0.1451
 7941TIP3    H145238   1.891   5.325  15.775  0.4646 -0.6954 -2.1907
 7941TIP3    H245239   1.792   5.217  15.810  0.1100  0.4050  0.3248
 7942TIP3   OH245240   5.849   2.340   4.987 -0.8271 -0.3545  0.0075
 7942TIP3    H145241   5.757   2.364   4.984 -0.6601  0.2683 -0.3199
 7942TIP3    H245242   5.895   2.423   5.004 -0.2724 -0.5263 -0.6202
 7943TIP3   OH245243   5.657   5.355  13.368 -0.3809  0.1715 -0.1700
 7943TIP3    H145244   5.707   5.429  13.403 -1.4807  1.4174 -1.1921
 7943TIP3    H245245   5.569   5.390  13.355 -0.7514 -1.1519 -1.2819
 7944TIP3   OH245246   4.436   0.885  14.933  0.0516 -0.6904  0.6387
 7944TIP3    H145247   4.418   0.925  14.848  0.4095  0.0527  0.9045
 7944TIP3    H245248   4.518   0.837  14.921 -0.6327 -1.7640  0.1867
 7945TIP3   OH245249   6.489   2.441   0.966  0.5532  0.1786 -0.2459
 7945TIP3    H145250   6.427   2.398   0.907  1.4851  0.7492 -1.6580
 7945TIP3    H245251   6.574   2.428   0.925  1.0465  1.8349  0.2369
 7946TIP3   OH245252   4.017   1.362   4.863  0.0705 -0.0838 -0.0373
 7946TIP3    H145253   4.041   1.432   4.802 -1.3100 -0.9475 -1.6115
 7946TIP3    H245254   4.078   1.291   4.844 -1.2324 -0.8632 -1.3936
 7947TIP3   OH245255   3.816   1.899   0.443 -0.3089  0.0157  0.0346
 7947TIP3    H145256   3.763   1.945   0.378 -1.3215  2.0350  2.2238
 7947TIP3    H245257   3.904   1.898   0.405 -0.9619  0.7675 -1.5578
 7948TIP3   OH245258   0.694   4.350  12.074 -0.6969 -0.1137  0.0714
 7948TIP3    H145259   0.691   4.356  11.978 -0.4756  1.4453  0.1608
 7948TIP3    H245260   0.774   4.394  12.098 -0.8691 -0.3086  1.0112
 7949TIP3   OH245261   0.820   6.426   0.398 -1.3043 -0.4510 -0.0441
 7949TIP3    H145262   0.907   6.388   0.386 -0.9176 -0.0118  1.2924
 7949TIP3    H245263   0.812   6.490   0.326  0.6220  1.5186  1.4233
 7950TIP3   OH245264   4.990   4.628  12.344 -0.5579 -0.6293  0.1927
 7950TIP3    H145265   4.970   4.556  12.404 -2.1467 -1.4695 -1.2720
 7950TIP3    H245266   5.075   4.660  12.372 -0.6217 -1.9416  1.9766
 7951TIP3   OH245267   5.853   1.514  14.631 -0.2975 -0.3459  0.3050
 7951TIP3    H145268   5.865   1.537  14.723 -1.6126  0.2217  0.3557
 7951TIP3    H245269   5.899   1.431  14.620  0.5899  0.0155  1.2673
 7952TIP3   OH245270   6.631   6.487  16.945 -0.4271 -0.2514  0.2751
 7952TIP3    H145271   6.556   6.430  16.962 -0.2674 -1.3837 -2.5714
 7952TIP3    H245272   6.707   6.438  16.976 -0.7625  0.6890  2.7005
 7953TIP3   OH245273   0.765   0.977   2.110 -0.2116 -0.1272 -0.4596
 7953TIP3    H145274   0.686   1.026   2.134 -0.2451 -0.9376  1.1292
 7953TIP3    H245275   0.819   0.977   2.189  0.1923 -1.8518 -0.7214
 7954TIP3   OH245276   2.442   0.412   6.317  0.8236 -0.3064 -0.3071
 7954TIP3    H145277   2.522   0.365   6.293  0.2541 -1.0340 -0.8245
 7954TIP3    H245278   2.421   0.464   6.239  0.5515 -0.4718 -0.3473
 7955TIP3   OH245279   2.094   4.640  15.433  0.2968  0.1482 -0.1981
 7955TIP3    H145280   2.113   4.620  15.524  1.3166 -0.0754 -0.4587
 7955TIP3    H245281   2.121   4.563  15.385  1.3799  0.9433 -0.8754
 7956TIP3   OH245282   5.477   3.842   3.133 -0.5990  0.0588 -0.3734
 7956TIP3    H145283   5.478   3.823   3.040 -1.6595  0.3776 -0.4582
 7956TIP3    H245284   5.565   3.818   3.164 -0.5809 -1.0451 -1.2437
 7957TIP3   OH245285   6.104   2.867   1.244 -0.6160  0.1056  0.2239
 7957TIP3    H145286   6.143   2.841   1.327 -0.0814 -0.1847 -0.1072
 7957TIP3    H245287   6.095   2.784   1.195  0.3374  0.4380 -0.5297
 7958TIP3   OH245288   4.476   1.394  16.464 -0.0960  0.1951 -0.0917
 7958TIP3    H145289   4.535   1.339  16.414 -0.9978 -1.4320  0.5891
 7958TIP3    H245290   4.412   1.333  16.502 -0.6187  1.6059  1.3705
 7959TIP3   OH245291   4.688   5.893   0.572  0.7625  0.5268 -0.3060
 7959TIP3    H145292   4.628   5.853   0.634 -0.7697  1.0680 -1.4162
 7959TIP3    H245293   4.681   5.987   0.588  3.1017  0.4910  1.1580
 7960TIP3   OH245294   3.529   4.543   0.881 -0.1456  0.1307  0.1308
 7960TIP3    H145295   3.521   4.488   0.958  0.2965 -0.0663  0.0374
 7960TIP3    H245296   3.574   4.489   0.817  4.0859  1.9197  1.4177
 7961TIP3   OH245297   3.180   0.254  11.342 -0.2450  0.4937  0.0353
 7961TIP3    H145298   3.129   0.296  11.411 -1.7768 -1.3744  0.0684
 7961TIP3    H245299   3.183   0.162  11.367 -1.6144 -0.3809 -2.8702
 7962TIP3   OH245300   5.564   6.073  14.446 -0.0527  0.3762 -0.0562
 7962TIP3    H145301   5.637   6.122  14.407 -0.8389  0.8758 -0.9052
 7962TIP3    H245302   5.486   6.123  14.422 -0.7853 -0.8006 -0.1452
 7963TIP3   OH245303   1.810   6.711   3.878  0.5329  0.2885  0.5337
 7963TIP3    H145304   1.720   6.680   3.892  0.6975  0.6408  2.4742
 7963TIP3    H245305   1.862   6.660   3.939  1.4396  1.2283  0.5538
 7964TIP3   OH245306   6.093   3.181   4.995 -0.0912 -0.5113 -0.0631
 7964TIP3    H145307   6.009   3.177   4.950 -0.4349  0.6153  0.4743
 7964TIP3    H245308   6.152   3.129   4.940 -1.0153 -0.9011 -0.6924
 7965TIP3   OH245309   3.559   1.243  12.911  0.3201 -0.1839 -0.4343
 7965TIP3    H145310   3.472   1.220  12.943  0.0144 -0.1820 -1.2512
 7965TIP3    H245311   3.595   1.160  12.880  0.5626 -0.1624 -0.2122
 7966TIP3   OH245312   6.763   5.399  12.615  0.0506 -0.1030  0.4172
 7966TIP3    H145313   6.673   5.390  12.646  0.1349  1.7226  1.3019
 7966TIP3    H245314   6.812   5.334  12.665 -0.5414 -0.1134  0.9911
 7967TIP3   OH245315   0.624   2.691  13.958  0.0249  0.2166  0.3340
 7967TIP3    H145316   0.570   2.770  13.954 -0.5614 -0.2203 -0.7279
 7967TIP3    H245317   0.587   2.641  14.032 -0.4840  0.3111  0.1476
 7968TIP3   OH245318   1.382   5.380   4.619  0.0510 -0.2816  0.3908
 7968TIP3    H145319   1.304   5.365   4.672 -0.7958 -0.5326 -0.9262
 7968TIP3    H245320   1.454   5.350   4.675 -0.6268  1.3269  2.1977
 7969TIP3   OH245321   6.327   0.105  11.514 -0.0322 -0.0947  0.0866
 7969TIP3    H145322   6.268   0.155  11.458 -2.6467 -1.2275  1.7764
 7969TIP3    H245323   6.381   0.055  11.452 -1.4038  0.2914 -1.4515
 7970TIP3   OH245324   4.724   5.332   2.129 -0.3472 -0.4840 -0.3508
 7970TIP3    H145325   4.714   5.427   2.123 -0.1143 -0.4554 -0.3068
 7970TIP3    H245326   4.636   5.297   2.118 -0.1434 -0.3786 -2.5195
 7971TIP3   OH245327   3.592   6.720  14.745 -0.5255  0.4198  0.5644
 7971TIP3    H145328   3.604   6.651  14.809  0.7662  0.3107  0.2236
 7971TIP3    H245329   3.641   6.794  14.780  0.0386  0.4154 -0.2017
 7972TIP3   OH245330   4.750   6.748  15.913 -0.1824 -0.0120 -0.3113
 7972TIP3    H145331   4.684   6.680  15.906 -0.3086  0.1055 -0.2707
 7972TIP3    H245332   4.753   6.769  16.006  0.5564 -0.6511 -0.1825
 7973TIP3   OH245333   1.863   4.800   2.291 -0.2527 -0.3714  0.3509
 7973TIP3    H145334   1.811   4.721   2.275  0.0131  0.3417 -4.6617
 7973TIP3    H245335   1.952   4.775   2.267 -0.2520  1.5725 -1.7804
 7974TIP3   OH245336   6.006   6.250  12.641  0.8499  0.7280 -0.4057
 7974TIP3    H145337   5.954   6.211  12.572 -1.5643  0.1379  1.6852
 7974TIP3    H245338   6.077   6.296  12.595 -0.3598 -0.1206 -3.1933
 7975TIP3   OH245339   1.836   0.151  12.653  0.0765  0.4163  0.2352
 7975TIP3    H145340   1.747   0.160  12.617 -0.2576 -0.6948  0.7474
 7975TIP3    H245341   1.857   0.058  12.639 -0.1297 -0.0869  3.0875
 7976TIP3   OH245342   5.776   5.039   5.426 -0.0328 -0.7032  0.1563
 7976TIP3    H145343   5.689   5.035   5.466  0.5278 -3.0187  1.2538
 7976TIP3    H245344   5.761   5.023   5.333 -1.0581  1.8592 -0.1505
 7977TIP3   OH245345   1.522   0.704  15.409 -0.4140 -0.2110 -0.1856
 7977TIP3    H145346   1.504   0.629  15.466  1.4672  0.1266  0.8863
 7977TIP3    H245347   1.590   0.752  15.455  1.0182  0.1653 -2.6682
 7978TIP3   OH245348   1.575   2.033  14.393 -0.3521  1.3544  0.8218
 7978TIP3    H145349   1.526   2.006  14.315 -0.3696  1.8679  0.6507
 7978TIP3    H245350   1.586   2.127  14.382  1.2914  1.1385  0.5007
 7979TIP3   OH245351   5.592   5.846  11.732 -0.1509 -0.5323 -0.2461
 7979TIP3    H145352   5.505   5.822  11.701 -0.6825 -1.9387  2.1904
 7979TIP3    H245353   5.602   5.938  11.710 -1.4006 -0.9128 -2.4511
 7980TIP3   OH245354   2.236   0.610   6.350  0.0672  0.4065 -0.0903
 7980TIP3    H145355   2.306   0.545   6.361 -1.1783 -0.8563  0.5555
 7980TIP3    H245356   2.210   0.632   6.440 -2.2937 -1.3014 -0.2948
 7981TIP3   OH245357   3.564   5.315   2.420  0.0632  0.1001 -0.7096
 7981TIP3    H145358   3.614   5.273   2.350  0.3619 -0.4862 -0.1448
 7981TIP3    H245359   3.625   5.379   2.458  0.4813 -0.7938  0.1473
 7982TIP3   OH245360   5.948   6.534  13.619  0.0499  0.2559  0.3726
 7982TIP3    H145361   6.001   6.490  13.553  0.2505  1.0514 -0.0050
 7982TIP3    H245362   5.993   6.617  13.634 -0.3441  0.3485  1.0458
 7983TIP3   OH245363   0.344   0.298  14.682 -0.1927 -0.0497  0.2783
 7983TIP3    H145364   0.393   0.362  14.631 -1.7343  0.3158 -0.7719
 7983TIP3    H245365   0.381   0.304  14.770  1.0821  0.7853 -0.3027
 7984TIP3   OH245366   1.207   2.137   3.188  0.1700 -0.2142 -0.4748
 7984TIP3    H145367   1.155   2.057   3.176  1.1634 -1.3170  2.2923
 7984TIP3    H245368   1.297   2.106   3.199  0.5527  1.2547  0.7378
 7985TIP3   OH245369   0.480   0.745  14.041  0.2978 -0.0505  0.2778
 7985TIP3    H145370   0.549   0.724  14.104 -0.8211 -1.6279  1.0110
 7985TIP3    H245371   0.404   0.767  14.095 -0.6253 -1.2568 -0.4992
 7986TIP3   OH245372   5.112   4.484   2.727  0.0179 -0.2006 -0.1646
 7986TIP3    H145373   5.026   4.507   2.763 -0.0828 -0.5186 -0.2000
 7986TIP3    H245374   5.156   4.568   2.716 -0.1408 -0.0612  0.2213
 7987TIP3   OH245375   5.323   2.349  11.632 -0.2935 -0.5808 -0.0202
 7987TIP3    H145376   5.401   2.373  11.682 -0.2435 -0.3069 -0.2245
 7987TIP3    H245377   5.351   2.277  11.577 -0.3999 -1.0120  0.4860
 7988TIP3   OH245378   3.142   5.943  11.827 -0.2152 -0.3276 -0.6046
 7988TIP3    H145379   3.083   5.875  11.861  1.6820 -1.4514  0.5162
 7988TIP3    H245380   3.222   5.934  11.879  0.4475  2.0948 -1.1633
 7989TIP3   OH245381   2.846   1.933  12.435 -0.4199  0.4636  0.2503
 7989TIP3    H145382   2.852   1.843  12.466  0.7481  0.4257 -0.0577
 7989TIP3    H245383   2.793   1.927  12.355 -0.9456  0.1557  0.6194
 7990TIP3   OH245384   1.065   6.764  13.473 -0.1884 -0.5368  0.4939
 7990TIP3    H145385   1.155   6.755  13.505  0.0341 -0.5887 -0.1518
 7990TIP3    H245386   1.027   6.677  13.484  0.0551 -0.6924  0.1116
 7991TIP3   OH245387   1.955   4.413   4.983 -0.2374 -0.5413 -0.0275
 7991TIP3    H145388   1.984   4.329   5.020 -0.6435  0.0721  1.7138
 7991TIP3    H245389   2.028   4.473   4.998  0.1212 -0.6059 -1.4296
 7992TIP3   OH245390   4.921   3.169   4.807  0.1233 -0.0979  0.1660
 7992TIP3    H145391   4.933   3.178   4.902  1.1029  0.5955 -0.0071
 7992TIP3    H245392   5.007   3.191   4.771 -0.9206  2.1651 -1.0142
 7993TIP3   OH245393   0.920   1.650   1.341  0.1426 -0.6253  0.0193
 7993TIP3    H145394   0.966   1.588   1.284  0.5929 -1.3124  1.1159
 7993TIP3    H245395   0.988   1.686   1.398 -0.0556  1.1282 -0.8077
 7994TIP3   OH245396   4.797   2.653  14.513 -0.2306  0.1666 -0.3680
 7994TIP3    H145397   4.728   2.712  14.483  0.7050  1.7296  0.5056
 7994TIP3    H245398   4.768   2.622  14.598 -0.1162  0.4093 -0.2386
 7995TIP3   OH245399   0.657   5.406  15.994  1.1084  0.2819 -0.0902
 7995TIP3    H145400   0.696   5.494  15.990 -0.5504  1.0182 -0.5391
 7995TIP3    H245401   0.673   5.377  16.083  0.4605  1.6214  0.4811
 7996TIP3   OH245402   5.798   5.949   0.332  0.1679  0.1037 -0.1359
 7996TIP3    H145403   5.780   5.868   0.285 -0.3335  0.0420  0.1572
 7996TIP3    H245404   5.783   5.927   0.424  0.5920  0.3733 -0.0015
 7997TIP3   OH245405   1.206   1.776   5.116  0.1080  0.4373  0.2489
 7997TIP3    H145406   1.243   1.751   5.031  0.2337  2.2213 -0.2464
 7997TIP3    H245407   1.133   1.717   5.129  0.4036 -0.1903 -0.8657
 7998TIP3   OH245408   5.515   1.540  13.274  0.6879  0.0972 -0.6436
 7998TIP3    H145409   5.467   1.466  13.312 -0.5564  1.2818  0.1372
 7998TIP3    H245410   5.492   1.538  13.181  1.3299 -0.9925 -0.7871
 7999TIP3   OH245411   3.103   2.108  16.094  0.4872 -0.4952 -0.0952
 7999TIP3    H145412   3.062   2.095  16.009 -0.7455  0.3512  0.3534
 7999TIP3    H245413   3.031   2.100  16.157  0.8662  1.6776  0.6623
 8000TIP3   OH245414   3.781   4.482   0.107 -0.0911 -0.2760  0.2187
 8000TIP3    H145415   3.803   4.422   0.179 -0.4687 -0.9708 -0.2410
 8000TIP3    H245416   3.706   4.532   0.139 -1.6674 -2.1209 -0.5237
 8001TIP3   OH245417   6.294   1.392   5.237  0.4745  0.5293  0.1559
 8001TIP3    H145418   6.207   1.432   5.239  0.0422 -0.2841 -1.2424
 8001TIP3    H245419   6.336   1.420   5.318 -1.4813  0.0707  1.3630
 8002TIP3   OH245420   4.842   5.761  16.439  0.2971  0.3243 -0.4425
 8002TIP3    H145421   4.898   5.789  16.366  0.8713 -0.7617 -0.4262
 8002TIP3    H245422   4.853   5.666  16.442 -0.1676  0.3043  0.6997
 8003TIP3   OH245423   4.775   5.363  11.339 -0.2660  0.9238 -0.1673
 8003TIP3    H145424   4.832   5.308  11.393 -1.2620 -2.5496 -2.5070
 8003TIP3    H245425   4.692   5.315  11.336 -0.8587  2.0603 -3.1274
 8004TIP3   OH245426   3.657   5.214  13.149  0.7319 -0.3212 -0.4365
 8004TIP3    H145427   3.593   5.285  13.152  2.5786  1.3927 -0.1475
 8004TIP3    H245428   3.607   5.137  13.124 -1.6075  0.7647  0.7850
 8005TIP3   OH245429   4.579   5.332   0.685  0.3152  0.0909 -0.5130
 8005TIP3    H145430   4.570   5.289   0.770 -0.5240 -1.6018 -1.4277
 8005TIP3    H245431   4.635   5.273   0.634 -0.6538  0.1794 -1.7110
 8006TIP3   OH245432   4.332   1.302   4.963 -0.2789  0.3692 -0.4581
 8006TIP3    H145433   4.364   1.284   4.875  0.8436 -1.8732  0.3637
 8006TIP3    H245434   4.397   1.262   5.021  0.0379  3.4789  1.4717
 8007TIP3   OH245435   3.436   0.146  14.633 -0.3077  0.1256  0.2421
 8007TIP3    H145436   3.362   0.132  14.693  0.9821 -1.2684  1.5546
 8007TIP3    H245437   3.500   0.080  14.658  0.1423 -0.7131 -2.9435
 8008TIP3   OH245438   0.707   4.231  14.324 -0.2602  0.2990  0.7191
 8008TIP3    H145439   0.675   4.184  14.247  0.0348  2.2502 -0.6424
 8008TIP3    H245440   0.781   4.179  14.356 -0.2823 -0.4395 -0.4236
 8009TIP3   OH245441   2.343   2.576  13.064 -0.1777 -0.3442  0.3000
 8009TIP3    H145442   2.348   2.520  12.986  0.0167  1.1463 -0.7895
 8009TIP3    H245443   2.411   2.542  13.122  1.9047  0.5046 -1.5487
 8010TIP3   OH245444   0.850   1.171   1.287  0.1892 -0.4848 -0.5180
 8010TIP3    H145445   0.942   1.182   1.263 -0.2180  2.5244 -0.8657
 8010TIP3    H245446   0.813   1.119   1.215  0.9325  1.0210 -2.0203
 8011TIP3   OH245447   0.593   1.508   3.901 -0.1691 -0.3285 -0.6343
 8011TIP3    H145448   0.652   1.544   3.968  0.5001 -2.5255  0.0301
 8011TIP3    H245449   0.575   1.419   3.932 -1.2386 -0.7829 -2.5247
 8012TIP3   OH245450   4.399   4.793  16.584 -0.2220 -0.4793 -0.1765
 8012TIP3    H145451   4.324   4.734  16.582 -0.8139  0.2051  1.2110
 8012TIP3    H245452   4.472   4.740  16.553 -0.5454 -2.2709  2.0129
 8013TIP3   OH245453   1.439   0.028  14.000  0.4683  0.4209  0.0680
 8013TIP3    H145454   1.509   0.070  13.951  1.5109  1.2567  2.1697
 8013TIP3    H245455   1.455  -0.066  13.992  2.9093  0.6217  1.9417
 8014TIP3   OH245456   1.016   5.329   4.198 -0.0102  0.2157  0.1561
 8014TIP3    H145457   1.052   5.285   4.274 -0.1882 -0.3985 -0.1115
 8014TIP3    H245458   0.964   5.262   4.153 -0.4293  0.7410 -0.1563
 8015TIP3   OH245459   2.143   2.223  12.084  0.3258  0.2852  0.2066
 8015TIP3    H145460   2.180   2.264  12.162 -0.6206  0.6588  0.4712
 8015TIP3    H245461   2.187   2.266  12.010  0.4350  0.7066  0.5164
 8016TIP3   OH245462   3.619   0.211  12.082 -0.0465  0.4320  0.0701
 8016TIP3    H145463   3.639   0.154  12.156  1.1080  0.0516 -0.5209
 8016TIP3    H245464   3.565   0.158  12.024  2.0775 -0.5499 -1.0928
 8017TIP3   OH245465   2.554   4.331   2.091 -0.5997 -0.5061 -0.4351
 8017TIP3    H145466   2.611   4.387   2.143 -0.2002 -2.1688  0.9462
 8017TIP3    H245467   2.482   4.308   2.149  0.2170 -2.9766 -0.3347
 8018TIP3   OH245468   6.411   0.285  13.537 -0.4687 -0.0622 -0.0006
 8018TIP3    H145469   6.376   0.369  13.566 -0.8741 -0.2219 -0.0204
 8018TIP3    H245470   6.447   0.303  13.451  0.2280  0.2856  0.3590
 8019TIP3   OH245471   5.279   3.442  13.741 -0.2668 -0.3061  0.3609
 8019TIP3    H145472   5.352   3.504  13.749 -1.3672  1.1219 -0.4654
 8019TIP3    H245473   5.206   3.487  13.784 -1.2494 -0.7467 -0.8522
 8020TIP3   OH245474   6.783   1.549   0.366 -0.2576  0.0035  0.4381
 8020TIP3    H145475   6.785   1.507   0.279  2.8306  2.3849 -0.7142
 8020TIP3    H245476   6.718   1.619   0.357 -0.4026 -0.1505  0.2688
 8021TIP3   OH245477   3.213   0.257  15.005 -0.3098  0.5072  0.1441
 8021TIP3    H145478   3.259   0.323  14.952  0.3226  0.3939  0.5547
 8021TIP3    H245479   3.229   0.283  15.095 -0.6802  0.2072  0.2975
 8022TIP3   OH245480   0.494   4.983   4.067  0.2279  0.0709  0.7091
 8022TIP3    H145481   0.475   4.924   4.141  1.3730 -0.8404  0.2894
 8022TIP3    H245482   0.548   5.052   4.105  0.3040 -0.0704  0.8624
 8023TIP3   OH245483   4.702   4.762   1.948 -0.0535  0.6699  0.0647
 8023TIP3    H145484   4.769   4.782   1.883 -1.1644  3.3608 -0.2989
 8023TIP3    H245485   4.740   4.792   2.031 -0.7566  2.1238 -0.1305
 8024TIP3   OH245486   4.290   4.496  16.991 -0.0965 -0.0340 -0.6716
 8024TIP3    H145487   4.338   4.574  16.963  0.1175 -0.5078 -1.6326
 8024TIP3    H245488   4.358   4.433  17.014 -0.2633 -0.7259 -2.0896
 8025TIP3   OH245489   0.652   2.931  13.006  0.2098  0.0431 -0.1165
 8025TIP3    H145490   0.724   2.869  13.020 -0.8805 -1.5314 -1.3701
 8025TIP3    H245491   0.575   2.876  12.993 -1.1783  1.7149  0.8846
 8026TIP3   OH245492   5.332   4.049  15.074 -0.2859  0.0323  0.3844
 8026TIP3    H145493   5.360   3.985  15.008  0.5733  2.7295 -1.9279
 8026TIP3    H245494   5.366   4.014  15.156  0.7814 -2.1346 -0.9272
 8027TIP3   OH245495   4.215   4.793   5.353 -0.1682 -0.1609  0.3181
 8027TIP3    H145496   4.261   4.841   5.422 -0.3713 -1.1149  1.1207
 8027TIP3    H245497   4.269   4.716   5.338 -0.0507  0.1145 -0.6987
 8028TIP3   OH245498   3.933   1.427   1.027  0.4391 -0.0338  0.4529
 8028TIP3    H145499   3.935   1.517   1.058  1.0939  0.5829 -1.3317
 8028TIP3    H245500   3.960   1.432   0.935  1.0810 -2.1142  0.4979
 8029TIP3   OH245501   5.471   2.364  12.413  0.3755  0.1593 -0.6227
 8029TIP3    H145502   5.537   2.403  12.470 -1.8997  0.7287  1.7125
 8029TIP3    H245503   5.420   2.439  12.381  0.2543 -0.3529 -1.6620
 8030TIP3   OH245504   2.409   4.880  16.201  0.3698  0.4726  0.1752
 8030TIP3    H145505   2.468   4.809  16.228  1.8117  1.4078 -0.4847
 8030TIP3    H245506   2.397   4.866  16.107 -0.6603  0.1513  0.3502
 8031TIP3   OH245507   2.504   4.783  11.980  0.3845 -0.4156  0.1666
 8031TIP3    H145508   2.530   4.707  12.032  0.4005 -0.0874  0.6384
 8031TIP3    H245509   2.427   4.753  11.930  0.0873 -0.5884  0.7258
 8032TIP3   OH245510   3.313   6.702   0.068  0.4613 -0.8346 -0.4811
 8032TIP3    H145511   3.337   6.715  -0.023  1.0041  1.4464 -0.0566
 8032TIP3    H245512   3.396   6.684   0.113  0.4570 -0.0583 -0.1480
 8033TIP3   OH245513   0.565   3.258  11.808  0.4186  0.1691 -0.1019
 8033TIP3    H145514   0.543   3.191  11.873  0.0214  1.0941  0.7317
 8033TIP3    H245515   0.546   3.217  11.723  1.5031 -1.2547  0.3348
 8034TIP3   OH245516   2.694   2.226   5.404  0.4874 -0.5826  0.1516
 8034TIP3    H145517   2.717   2.258   5.491  2.1568 -1.1316 -0.0679
 8034TIP3    H245518   2.695   2.131   5.412  2.4755 -0.6677 -0.9080
 8035TIP3   OH245519   5.002   0.173   3.291 -0.1012 -0.2954  0.1670
 8035TIP3    H145520   5.065   0.150   3.359  0.6944 -1.4889 -0.9597
 8035TIP3    H245521   4.938   0.228   3.336 -0.5493 -2.4627  2.3044
 8036TIP3   OH245522   1.647   1.350  12.692 -0.2450 -0.1451  0.0297
 8036TIP3    H145523   1.658   1.277  12.753  1.3308  0.5741  0.6230
 8036TIP3    H245524   1.624   1.308  12.609 -1.4248 -1.1887  0.8654
 8037TIP3   OH245525   0.576   3.476   1.114 -0.3372  0.2740 -0.0897
 8037TIP3    H145526   0.509   3.430   1.063 -1.0801  0.2844  0.8580
 8037TIP3    H245527   0.644   3.412   1.129 -0.9606 -0.2625  0.4676
 8038TIP3   OH245528   1.180   2.511  12.081  0.2065  0.9008  0.3042
 8038TIP3    H145529   1.198   2.465  12.163  0.1025  2.4042  1.1938
 8038TIP3    H245530   1.188   2.444  12.013  0.9903 -0.2084  1.4740
 8039TIP3   OH245531   2.010   2.148  13.326 -0.3211 -0.6066 -0.0835
 8039TIP3    H145532   2.041   2.164  13.236 -0.3522  1.0558  0.1853
 8039TIP3    H245533   2.088   2.116  13.372  0.9021  2.8558  0.4059
 8040TIP3   OH245534   0.891   4.921  13.009  0.6008 -0.1686  0.4734
 8040TIP3    H145535   0.849   4.910  13.095 -0.4055  0.4104  0.0623
 8040TIP3    H245536   0.824   4.962  12.954  1.0473 -1.0484 -0.7542
 8041TIP3   OH245537   2.620   5.154   3.137 -0.1112  0.4420 -0.0565
 8041TIP3    H145538   2.711   5.177   3.157 -0.9671  1.6404  2.6459
 8041TIP3    H245539   2.577   5.237   3.120 -0.9264 -0.0463 -0.4133
 8042TIP3   OH245540   1.312   4.912  11.179 -0.2348  0.3693 -0.1576
 8042TIP3    H145541   1.348   4.824  11.168 -1.5510  0.0803 -2.7974
 8042TIP3    H245542   1.360   4.966  11.116 -1.2472  0.9540 -0.4465
 8043TIP3   OH245543   3.798   2.385  16.226 -0.7110  0.2377 -0.3485
 8043TIP3    H145544   3.859   2.421  16.162 -0.8923 -0.3094 -0.8336
 8043TIP3    H245545   3.834   2.299  16.248  0.3907  1.1780  1.7241
 8044TIP3   OH245546   2.814   3.146  16.169 -0.1395  0.3099 -0.2899
 8044TIP3    H145547   2.741   3.139  16.230  1.8658  1.4823  2.3585
 8044TIP3    H245548   2.879   3.083  16.202  0.7008  0.4557 -1.6153
 8045TIP3   OH245549   0.478   5.398   1.260  0.3092  0.0956 -0.0366
 8045TIP3    H145550   0.484   5.420   1.167  0.1084 -0.6209 -0.2198
 8045TIP3    H245551   0.544   5.453   1.302  2.1310 -1.3552 -0.9120
 8046TIP3   OH245552   1.331   5.263  14.231 -0.1850  0.2616  0.1221
 8046TIP3    H145553   1.307   5.197  14.165  2.9016 -0.9024  0.0441
 8046TIP3    H245554   1.339   5.344  14.181 -2.5304  0.4214 -0.0561
 8047TIP3   OH245555   4.750   5.945  12.792  0.2012 -0.0186 -0.3014
 8047TIP3    H145556   4.832   5.972  12.751  2.0017 -0.9259  2.5520
 8047TIP3    H245557   4.738   6.005  12.865 -1.5916 -0.0227 -0.5619
 8048TIP3   OH245558   3.840   0.687  12.218 -0.1668  0.4095  0.1522
 8048TIP3    H145559   3.852   0.622  12.287 -0.5748  0.0524 -0.1142
 8048TIP3    H245560   3.925   0.690  12.173 -0.0264  0.3510  0.4147
 8049TIP3   OH245561   2.418   1.893  15.855 -0.3770 -0.3799 -0.2253
 8049TIP3    H145562   2.459   1.934  15.931 -1.1818  0.8185 -0.4205
 8049TIP3    H245563   2.346   1.952  15.832 -1.0002 -1.4563 -1.0611
 8050TIP3   OH245564   3.540   6.049  11.668  0.5100  0.4544 -0.5446
 8050TIP3    H145565   3.489   5.979  11.626  0.7625 -0.5350  0.7739
 8050TIP3    H245566   3.617   6.004  11.703  0.7687  1.4299  0.1337
 8051TIP3   OH245567   6.013   3.725  15.212  0.6393 -0.5735  0.9343
 8051TIP3    H145568   5.991   3.637  15.244 -1.3248  0.3481  2.1862
 8051TIP3    H245569   6.023   3.777  15.291 -0.0736  0.7682  0.1463
 8052TIP3   OH245570   3.943   3.531  15.265  0.1819 -0.2431  0.8268
 8052TIP3    H145571   3.927   3.517  15.359  0.7213 -0.5303  0.8814
 8052TIP3    H245572   3.986   3.450  15.236  2.4403  0.8558  0.9328
 8053TIP3   OH245573   6.685   2.776  16.835  0.4685 -0.3784  0.1783
 8053TIP3    H145574   6.754   2.802  16.773 -0.5659  0.3179 -0.7021
 8053TIP3    H245575   6.677   2.852  16.893  1.0672 -0.8201  0.8383
 8054TIP3   OH245576   1.396   2.332  17.115 -0.0921 -0.2226  0.0536
 8054TIP3    H145577   1.355   2.360  17.034  1.5225  3.2763  0.3724
 8054TIP3    H245578   1.371   2.398  17.179  1.1590 -1.2736  1.6682
 8055TIP3   OH245579   2.799   4.538   5.692  0.4491  0.3473  0.1499
 8055TIP3    H145580   2.881   4.588   5.688  1.2832 -0.7992  1.9982
 8055TIP3    H245581   2.821   4.454   5.652  0.8605 -0.7901  2.6758
 8056TIP3   OH245582   2.453   6.504  15.308 -0.2718  0.4222 -0.0961
 8056TIP3    H145583   2.527   6.447  15.329  0.6662  0.7881 -2.3392
 8056TIP3    H245584   2.489   6.569  15.248 -2.6758 -0.1389 -2.2248
 8057TIP3   OH245585   1.017   0.372   0.968 -0.0906 -0.2179  0.1325
 8057TIP3    H145586   0.970   0.354   1.049 -0.6403  0.3660 -0.0498
 8057TIP3    H245587   0.991   0.461   0.944  1.3006  0.2091  0.1535
 8058TIP3   OH245588   4.890   3.052   5.654  0.6101 -0.4276  0.6161
 8058TIP3    H145589   4.928   3.061   5.741  0.4924  0.5084  0.5713
 8058TIP3    H245590   4.966   3.049   5.595  0.6540  0.3044  0.6309
 8059TIP3   OH245591   3.847   2.560  12.812 -0.7510 -0.3164  0.1277
 8059TIP3    H145592   3.781   2.596  12.870 -1.3253 -0.7504 -0.2437
 8059TIP3    H245593   3.905   2.509  12.869 -1.8843 -1.5539  0.1915
 8060TIP3   OH245594   0.230   2.190   1.317 -0.4103  0.2493  0.1929
 8060TIP3    H145595   0.244   2.171   1.410  0.4668 -0.0155  0.0122
 8060TIP3    H245596   0.279   2.270   1.301  0.2542 -0.2436 -0.2632
 8061TIP3   OH245597   5.819   0.969   2.942  0.3504  0.7152  0.6410
 8061TIP3    H145598   5.911   0.993   2.951  0.3258  1.0655 -0.0247
 8061TIP3    H245599   5.796   0.931   3.027  1.4749 -0.6875  0.3372
 8062TIP3   OH245600   4.506   1.813  11.730 -0.3228  0.1793  0.1118
 8062TIP3    H145601   4.547   1.742  11.779 -0.4188 -1.3329 -1.9199
 8062TIP3    H245602   4.413   1.791  11.728 -0.7620  1.7982  1.7737
 8063TIP3   OH245603   2.919   6.330   0.599 -0.1244 -0.0806  0.3224
 8063TIP3    H145604   2.982   6.274   0.644 -0.6540 -1.1154 -0.1952
 8063TIP3    H245605   2.962   6.415   0.593  0.0391  0.0353  2.5856
 8064TIP3   OH245606   2.351   3.346   2.966 -0.0388 -0.3512  0.4352
 8064TIP3    H145607   2.277   3.344   3.027 -0.4839 -1.6577 -0.1226
 8064TIP3    H245608   2.414   3.405   3.006 -1.3537  0.7333  0.9552
 8065TIP3   OH245609   1.099   4.398   2.176 -0.0087  0.0397  0.2790
 8065TIP3    H145610   1.048   4.364   2.102  0.4987 -0.1415  0.0142
 8065TIP3    H245611   1.168   4.451   2.135 -0.1973  0.5835  0.6510
 8066TIP3   OH245612   3.122   4.735   0.145 -0.3382  0.3411 -0.3207
 8066TIP3    H145613   3.104   4.798   0.075  0.6609 -0.3345 -1.1996
 8066TIP3    H245614   3.062   4.662   0.128 -0.1814  0.2293 -0.3892
 8067TIP3   OH245615   3.467   0.792  15.239 -0.0502 -0.7594  0.6168
 8067TIP3    H145616   3.500   0.824  15.155 -1.5360 -0.9281 -0.0473
 8067TIP3    H245617   3.521   0.716  15.259  0.3920 -0.6418 -0.1204
 8068TIP3   OH245618   6.724   3.591   1.563 -0.0576  0.1467 -0.0738
 8068TIP3    H145619   6.785   3.634   1.503 -0.0744  0.4670  0.1376
 8068TIP3    H245620   6.686   3.519   1.512  0.0188  0.3448 -0.4059
 8069TIP3   OH245621   5.210   3.624   5.264 -0.8059 -0.3507  0.1977
 8069TIP3    H145622   5.259   3.666   5.194  1.2117  0.2221  1.9122
 8069TIP3    H245623   5.137   3.683   5.283 -0.2492  0.4205 -0.0958
 8070TIP3   OH245624   5.425   3.434  14.039 -0.0437 -0.1794 -0.2771
 8070TIP3    H145625   5.511   3.434  14.080  0.5815 -1.2261 -1.5540
 8070TIP3    H245626   5.369   3.383  14.098  0.7943 -1.5076 -0.6153
 8071TIP3   OH245627   0.715   1.481   3.652 -0.7027  0.6024 -0.1434
 8071TIP3    H145628   0.805   1.512   3.645 -0.0848 -0.5692  2.0840
 8071TIP3    H245629   0.690   1.501   3.742 -1.7853 -1.3965  0.0268
 8072TIP3   OH245630   4.798   4.210   5.576  0.0379  0.0291  0.1222
 8072TIP3    H145631   4.884   4.201   5.535 -1.0910  0.3215 -2.3493
 8072TIP3    H245632   4.760   4.288   5.536 -1.0223  0.4512  1.9069
 8073TIP3   OH245633   5.346   1.437   0.708  0.4414  0.0217  0.3641
 8073TIP3    H145634   5.364   1.454   0.616  2.4931  0.9988  0.9004
 8073TIP3    H245635   5.302   1.352   0.710 -0.6686  0.5327 -1.5864
 8074TIP3   OH245636   0.279   5.612   3.299 -0.1649  0.1689 -0.3352
 8074TIP3    H145637   0.360   5.659   3.282 -1.3113  2.7725  1.1073
 8074TIP3    H245638   0.288   5.579   3.388  0.7106 -2.6380 -1.3978
 8075TIP3   OH245639   2.472   0.912   0.247 -0.0501  0.7077 -0.2399
 8075TIP3    H145640   2.486   0.818   0.240 -1.8188  0.5386 -1.8445
 8075TIP3    H245641   2.471   0.929   0.341 -0.8262 -1.0772  0.0981
 8076TIP3   OH245642   3.184   0.726  15.192 -0.3527 -0.1183 -0.5220
 8076TIP3    H145643   3.276   0.742  15.214 -0.4184 -0.0027 -0.3269
 8076TIP3    H245644   3.183   0.714  15.098  0.2317 -2.5992 -0.2356
 8077TIP3   OH245645   2.836   0.084  13.292 -0.3643  0.5206  0.4840
 8077TIP3    H145646   2.822   0.088  13.197  2.2531  0.2661  0.0494
 8077TIP3    H245647   2.909   0.023  13.303 -1.1580 -0.0619  2.7404
 8078TIP3   OH245648   1.652   0.568   2.840  0.0788  0.3944  0.2796
 8078TIP3    H145649   1.744   0.546   2.856  0.1746  0.3880 -0.2921
 8078TIP3    H245650   1.655   0.643   2.781 -0.2964 -0.1578 -0.4456
 8079TIP3   OH245651   3.404   5.707   1.263  0.2821  0.2819  0.0164
 8079TIP3    H145652   3.375   5.616   1.273 -0.8817  0.5988 -0.3392
 8079TIP3    H245653   3.446   5.710   1.178  0.4512  0.0377  0.0919
 8080TIP3   OH245654   2.047   4.484  14.080  0.1629 -0.1880  0.5005
 8080TIP3    H145655   2.072   4.463  13.990  1.5067  1.3665  0.5055
 8080TIP3    H245656   2.119   4.449  14.134 -0.5991 -1.0483  0.9861
 8081TIP3   OH245657   6.398   3.097  14.745  0.3525  0.0312 -0.3869
 8081TIP3    H145658   6.350   3.025  14.785  0.5662  0.3315  0.4238
 8081TIP3    H245659   6.461   3.124  14.812 -0.5474  1.7652 -0.2027
 8082TIP3   OH245660   2.110   0.395   2.934  0.5717 -0.5992 -0.0151
 8082TIP3    H145661   2.047   0.468   2.937  2.2758  0.9307 -0.4249
 8082TIP3    H245662   2.057   0.319   2.911 -1.3332  0.4172  0.8193
 8083TIP3   OH245663   6.322   1.300  12.964  0.4026  0.2158 -0.2075
 8083TIP3    H145664   6.414   1.287  12.942  0.7616  0.1090  1.3092
 8083TIP3    H245665   6.299   1.225  13.018  0.6308  2.3235  2.9624
 8084TIP3   OH245666   3.155   2.753  12.847  0.1683 -0.1210  0.2588
 8084TIP3    H145667   3.192   2.742  12.935 -1.7744  0.3417  1.1662
 8084TIP3    H245668   3.090   2.683  12.839 -0.5085  0.5623 -0.3425
 8085TIP3   OH245669   6.454   4.745  15.714  0.0720  0.3194 -0.1998
 8085TIP3    H145670   6.434   4.838  15.726  0.6782  0.5612 -1.0309
 8085TIP3    H245671   6.496   4.719  15.797 -0.8431  0.5716  0.3495
 8086TIP3   OH245672   2.443   5.787   4.868  0.0610 -0.1720  0.4244
 8086TIP3    H145673   2.466   5.850   4.799 -1.0101 -0.0565  0.1638
 8086TIP3    H245674   2.427   5.841   4.945 -3.4455  0.1611 -0.4502
 8087TIP3   OH245675   6.306   1.735  16.590  0.1201  0.7510 -0.0614
 8087TIP3    H145676   6.368   1.703  16.655 -0.1515  0.9330  0.2888
 8087TIP3    H245677   6.344   1.817  16.558 -0.4039  1.3631  0.8516
 8088TIP3   OH245678   0.803   3.262  15.946  0.5149 -0.7762 -0.3105
 8088TIP3    H145679   0.864   3.204  15.992  0.2052 -0.8877 -0.0413
 8088TIP3    H245680   0.849   3.346  15.943  1.0428 -1.0802 -0.8737
 8089TIP3   OH245681   6.002   0.610   3.814 -0.0350 -0.1692 -0.1011
 8089TIP3    H145682   5.989   0.529   3.863  1.9627 -0.2614  0.3161
 8089TIP3    H245683   5.980   0.587   3.723  1.2143 -1.3764 -0.1074
 8090TIP3   OH245684   4.526   4.741  16.934  0.0244  0.1895  0.3451
 8090TIP3    H145685   4.590   4.757  16.865 -0.4129 -1.4841 -0.4862
 8090TIP3    H245686   4.575   4.752  17.016  1.1304 -0.0973 -0.2688
 8091TIP3   OH245687   1.956   1.537  13.740  0.3355  0.2426  0.1343
 8091TIP3    H145688   1.997   1.544  13.826  0.6894  1.5233 -0.1255
 8091TIP3    H245689   1.964   1.444  13.718  1.6388  0.1678  0.8177
 8092TIP3   OH245690   0.316   0.181  14.098  0.1517  0.0473  0.4234
 8092TIP3    H145691   0.222   0.171  14.109  0.1607 -0.3901  0.1126
 8092TIP3    H245692   0.351   0.183  14.187 -0.0876 -0.3606  0.5236
 8093TIP3   OH245693   4.391   6.283  12.498  0.1000 -0.2506 -0.1592
 8093TIP3    H145694   4.328   6.256  12.431  0.9479 -1.9029 -0.3058
 8093TIP3    H245695   4.470   6.233  12.478  1.3686  1.5451  0.2271
 8094TIP3   OH245696   5.164   0.759   0.812  0.6824 -0.4682  0.1834
 8094TIP3    H145697   5.256   0.773   0.792  0.4091  0.5516 -0.3984
 8094TIP3    H245698   5.164   0.693   0.881  1.9048  0.4020  1.0455
 8095TIP3   OH245699   5.589   6.526   2.258 -0.2002 -0.7236 -0.2246
 8095TIP3    H145700   5.658   6.460   2.247  0.3910  0.0052 -0.9622
 8095TIP3    H245701   5.512   6.487   2.216 -0.1422 -1.3796  0.2609
 8096TIP3   OH245702   3.094   0.178   1.227  0.0782  0.1547 -0.0197
 8096TIP3    H145703   3.007   0.151   1.257  0.3777 -0.1846  0.5343
 8096TIP3    H245704   3.136   0.214   1.304  0.7654 -0.5112 -0.0782
 8097TIP3   OH245705   0.747   1.168   0.404  0.5039  0.4753  0.1182
 8097TIP3    H145706   0.761   1.122   0.321  2.3540 -1.5044  1.4773
 8097TIP3    H245707   0.825   1.223   0.413  1.1265 -0.5758  1.3190
 8098TIP3   OH245708   5.939   3.374  16.601  0.0904 -0.0145  0.1173
 8098TIP3    H145709   6.004   3.438  16.574  0.6174 -0.5606  0.0736
 8098TIP3    H245710   5.967   3.292  16.559 -1.1427 -0.0546 -0.6689
 8099TIP3   OH245711   6.270   0.045   5.399  0.2324 -0.1515  0.1038
 8099TIP3    H145712   6.346   0.068   5.345 -2.4479  0.5001 -3.5625
 8099TIP3    H245713   6.278  -0.050   5.412  1.9133 -0.0110  0.2174
 8100TIP3   OH245714   1.511   1.855   0.088 -0.0972  0.1209  0.6255
 8100TIP3    H145715   1.530   1.917   0.158 -1.1446  1.1032  0.0575
 8100TIP3    H245716   1.436   1.893   0.042 -0.8198 -1.6260  0.3322
 8101TIP3   OH245717   1.233   0.575  14.949  0.1343 -0.0059 -0.1203
 8101TIP3    H145718   1.306   0.636  14.963  1.0321 -0.9270 -0.7389
 8101TIP3    H245719   1.170   0.597  15.017 -0.6704  3.2822 -1.8114
 8102TIP3   OH245720   0.432   1.930  12.774 -0.0395  0.0760 -0.1564
 8102TIP3    H145721   0.397   1.928  12.685  0.7048  1.6263 -0.5075
 8102TIP3    H245722   0.355   1.931  12.831 -0.5179 -1.6501 -0.7431
 8103TIP3   OH245723   1.022   6.340   5.052  0.2410 -0.1358  0.3882
 8103TIP3    H145724   1.045   6.395   4.977 -2.6488  0.2980 -0.2363
 8103TIP3    H245725   0.940   6.297   5.026  0.0986 -1.3062  2.6271
 8104TIP3   OH245726   0.195   1.331  16.868 -0.4635  0.2784  0.8626
 8104TIP3    H145727   0.254   1.290  16.805  0.9355  3.2829  0.1332
 8104TIP3    H245728   0.237   1.318  16.953 -0.5174 -0.6391  0.7452
 8105TIP3   OH245729   6.016   0.923   0.454  0.2595 -0.2721 -0.2384
 8105TIP3    H145730   5.981   0.911   0.366  1.0033 -0.4629 -0.5083
 8105TIP3    H245731   6.110   0.909   0.445  0.2596 -0.8936  0.7002
 8106TIP3   OH245732   6.636   6.132  15.171 -0.2322 -0.3402 -0.0952
 8106TIP3    H145733   6.626   6.109  15.263 -0.2718 -0.9124 -0.2430
 8106TIP3    H245734   6.678   6.056  15.131  2.5559  1.0479  0.0514
 8107TIP3   OH245735   1.040   0.491   3.792 -0.0162  0.1939  0.0431
 8107TIP3    H145736   0.965   0.467   3.737  1.4972  0.1232 -2.0384
 8107TIP3    H245737   1.068   0.576   3.758  0.7436  0.2961  0.9327
 8108TIP3   OH245738   2.804   1.197   3.279  0.0920 -0.2151  0.4354
 8108TIP3    H145739   2.895   1.224   3.289 -0.0208  0.3262  0.0229
 8108TIP3    H245740   2.792   1.128   3.345  0.0755  1.5211  2.3171
 8109TIP3   OH245741   0.404   4.597  12.895  0.2095  0.5466 -0.7086
 8109TIP3    H145742   0.483   4.570  12.848  0.1514 -0.2406 -0.3601
 8109TIP3    H245743   0.427   4.681  12.935  0.2869  1.1913 -2.0643
 8110TIP3   OH245744   5.772   5.557   0.368  0.4245 -0.8903 -0.4623
 8110TIP3    H145745   5.776   5.612   0.290 -0.6693 -0.2591 -0.0913
 8110TIP3    H245746   5.678   5.547   0.385  0.6487  1.1833  2.3121
 8111TIP3   OH245747   0.829   5.090  14.621  0.7161  0.0056  0.0522
 8111TIP3    H145748   0.836   5.141  14.541 -1.6819  1.1820  0.5236
 8111TIP3    H245749   0.778   5.013  14.595 -0.4446  0.6049  0.5085
 8112TIP3   OH245750   0.440   2.880   2.012  0.2731  0.1192 -0.3107
 8112TIP3    H145751   0.445   2.952   1.949 -1.4210  0.2234 -0.3624
 8112TIP3    H245752   0.393   2.811   1.965  1.7825 -0.9860 -0.2148
 8113TIP3   OH245753   6.786   3.945   1.554 -0.0083  0.0799  0.0348
 8113TIP3    H145754   6.829   3.903   1.480 -1.7238 -1.1252 -0.2811
 8113TIP3    H245755   6.711   3.990   1.516 -0.5588 -0.0507  0.9583
 8114TIP3   OH245756   6.237   5.150  12.563  0.5905 -0.0386 -0.3648
 8114TIP3    H145757   6.249   5.114  12.651 -2.3644 -0.1158  0.0551
 8114TIP3    H245758   6.212   5.075  12.509 -1.6026  0.6762 -0.3686
 8115TIP3   OH245759   0.584   2.321   3.890 -0.3200 -0.4661  0.2845
 8115TIP3    H145760   0.627   2.305   3.807  0.4312  2.3529  0.0815
 8115TIP3    H245761   0.635   2.272   3.954  0.5030 -0.7527 -0.5935
 8116TIP3   OH245762   3.764   0.038  11.068 -0.3563  0.3087 -0.3268
 8116TIP3    H145763   3.753  -0.015  11.146 -0.7766  0.3678 -0.3452
 8116TIP3    H245764   3.846   0.007  11.028 -0.3965 -0.0474 -0.1254
 8117TIP3   OH245765   6.401   2.075  12.705 -0.2026  0.0623 -0.4188
 8117TIP3    H145766   6.408   1.980  12.705 -0.8546  0.0027  1.2171
 8117TIP3    H245767   6.400   2.099  12.612 -2.6199 -1.7222 -0.9034
 8118TIP3   OH245768   2.599   0.121  12.309 -0.2242  0.2895 -0.4319
 8118TIP3    H145769   2.570   0.212  12.294  1.2187  0.8507  0.1169
 8118TIP3    H245770   2.694   0.125  12.302 -0.0874 -1.0081  0.6108
 8119TIP3   OH245771   2.891   5.212   6.025 -0.2259  0.6656  0.2343
 8119TIP3    H145772   2.879   5.266   6.102 -0.0449  1.3836 -0.2415
 8119TIP3    H245773   2.981   5.179   6.031 -0.6298 -0.3391  0.9971
 8120TIP3   OH245774   0.525   3.354   4.082 -0.1736 -0.0934 -0.3659
 8120TIP3    H145775   0.489   3.383   3.997  0.0429 -0.3079 -0.5284
 8120TIP3    H245776   0.613   3.392   4.085 -1.9669  4.3206  2.0092
 8121TIP3   OH245777   5.238   0.328   1.809 -0.0581  0.0537 -0.1422
 8121TIP3    H145778   5.321   0.375   1.796 -1.4100  3.2669  2.0481
 8121TIP3    H245779   5.264   0.247   1.852  2.0048  1.0067  0.5103
 8122TIP3   OH245780   0.225   4.709   4.052 -0.6286  0.0456 -0.8912
 8122TIP3    H145781   0.199   4.619   4.031 -2.1512  0.1281  0.5441
 8122TIP3    H245782   0.163   4.764   4.003  0.1755  0.3306 -1.6109
 8123TIP3   OH245783   5.391   3.779  16.516  0.0697 -0.2208 -0.1088
 8123TIP3    H145784   5.331   3.707  16.499  1.2667 -0.9906 -1.1731
 8123TIP3    H245785   5.348   3.830  16.584 -2.1324 -0.3056 -1.4065
 8124TIP3   OH245786   6.364   3.757   5.855  0.2887 -0.4059  0.1060
 8124TIP3    H145787   6.454   3.753   5.888  0.1769 -1.1051  0.3368
 8124TIP3    H245788   6.345   3.851   5.851  2.0041 -0.1167 -2.6598
 8125TIP3   OH245789   0.333   1.157  15.235  0.3511  0.2051 -0.4007
 8125TIP3    H145790   0.270   1.224  15.261  0.2528 -0.0395 -0.0119
 8125TIP3    H245791   0.401   1.205  15.187 -0.8050  0.2793 -2.0002
 8126TIP3   OH245792   1.826   5.804  12.795  0.0473 -0.0464 -0.0613
 8126TIP3    H145793   1.861   5.784  12.882 -0.5908 -1.6910 -0.1661
 8126TIP3    H245794   1.786   5.722  12.766 -0.9057  0.8621 -1.3563
 8127TIP3   OH245795   3.355   5.037  10.994  0.6304  0.2264 -0.1951
 8127TIP3    H145796   3.365   4.966  10.930  1.8606 -0.7993  1.1276
 8127TIP3    H245797   3.410   5.107  10.960 -1.0082  0.8038 -1.7948
 8128TIP3   OH245798   4.222   0.322   4.025 -0.4752  0.5563  0.1161
 8128TIP3    H145799   4.297   0.358   4.072  0.1432 -0.1292 -0.3438
 8128TIP3    H245800   4.226   0.363   3.938  0.6975 -1.2090 -0.6867
 8129TIP3   OH245801   1.984   2.735   5.359  0.4046  0.4144 -0.6308
 8129TIP3    H145802   1.896   2.771   5.346  0.9789  1.9995 -0.2048
 8129TIP3    H245803   1.969   2.648   5.397 -0.9781  0.5758 -0.7899
 8130TIP3   OH245804   2.737   4.463   3.346 -0.2062  0.2256 -0.0909
 8130TIP3    H145805   2.662   4.476   3.404  0.8620  0.5302  1.2347
 8130TIP3    H245806   2.809   4.440   3.404  0.4036 -1.5083 -1.4855
 8131TIP3   OH245807   1.399   1.818  13.541 -0.8883  0.6290 -0.2615
 8131TIP3    H145808   1.494   1.820  13.532 -0.6005 -0.6163  2.0959
 8131TIP3    H245809   1.377   1.902  13.583 -1.0276  1.6009 -2.2318
 8132TIP3   OH245810   1.680   1.295   4.209 -0.3007  0.6218  0.8979
 8132TIP3    H145811   1.648   1.232   4.145 -3.1201  1.4031  1.4797
 8132TIP3    H245812   1.767   1.319   4.177 -0.1407 -1.7701 -0.5851
 8133TIP3   OH245813   6.043   5.705  11.741 -0.2045  0.3172  0.0761
 8133TIP3    H145814   5.951   5.715  11.767  0.2595  0.4218  1.7291
 8133TIP3    H245815   6.066   5.617  11.771 -0.5428 -0.8189 -2.8245
 8134TIP3   OH245816   0.989   2.867  11.386  0.1709 -0.3369  0.2727
 8134TIP3    H145817   0.948   2.785  11.414 -1.7929  0.4902 -0.0701
 8134TIP3    H245818   1.013   2.851  11.294  1.8679 -1.2661  0.8445
 8135TIP3   OH245819   2.594   4.191   3.297  0.1700  0.3802  0.3624
 8135TIP3    H145820   2.614   4.279   3.332  0.3364  1.0033 -1.2736
 8135TIP3    H245821   2.679   4.147   3.294  0.2790  0.6089 -0.0004
 8136TIP3   OH245822   2.860   6.745  16.102  0.4546  0.0486  0.1982
 8136TIP3    H145823   2.907   6.714  16.024 -2.7635 -1.1795 -1.3897
 8136TIP3    H245824   2.798   6.810  16.067 -0.5304  0.0075  1.8349
 8137TIP3   OH245825   0.332   3.691  11.704 -0.2732 -0.3723  0.0204
 8137TIP3    H145826   0.335   3.649  11.618  3.1737  1.7146 -0.9297
 8137TIP3    H245827   0.342   3.619  11.766 -1.5981 -1.7462 -1.3004
 8138TIP3   OH245828   0.430   4.808   4.259  0.5502  0.2837  0.4613
 8138TIP3    H145829   0.360   4.810   4.325  0.4664 -0.2688  0.3915
 8138TIP3    H245830   0.388   4.773   4.181  0.8606  0.1257  0.3636
 8139TIP3   OH245831   4.381   6.279  16.861 -0.5140  0.3830 -0.4336
 8139TIP3    H145832   4.463   6.292  16.813  0.7055  0.9292  1.7469
 8139TIP3    H245833   4.387   6.190  16.895 -0.1541  0.9111  0.9283
 8140TIP3   OH245834   6.249   5.635  16.405 -0.1083  0.1768 -0.0211
 8140TIP3    H145835   6.275   5.582  16.330 -2.0764 -0.9743  0.0524
 8140TIP3    H245836   6.281   5.587  16.481 -3.8615 -2.2421  0.1729
 8141TIP3   OH245837   5.996   0.472   2.843 -0.3777 -0.6846  0.3129
 8141TIP3    H145838   6.019   0.381   2.861 -1.1213 -0.5965  1.8416
 8141TIP3    H245839   5.931   0.467   2.774 -0.8616 -1.3582  0.8098
 8142TIP3   OH245840   6.104   6.151   2.168 -0.5066 -0.2263 -0.3232
 8142TIP3    H145841   6.157   6.225   2.138 -1.6747  0.7114 -0.1697
 8142TIP3    H245842   6.152   6.073   2.140 -0.0022  0.6034 -1.8370
 8143TIP3   OH245843   1.024   2.822  10.848 -0.2336  0.2005  0.2692
 8143TIP3    H145844   0.968   2.762  10.799 -1.0802  1.2779 -0.1034
 8143TIP3    H245845   1.068   2.873  10.780 -1.6877  1.9615  0.6084
 8144TIP3   OH245846   4.679   2.841  12.429 -0.3112  0.5961  0.3524
 8144TIP3    H145847   4.755   2.899  12.425 -0.2249  0.4144 -0.8142
 8144TIP3    H245848   4.611   2.888  12.380 -1.2170  1.1305  2.0697
 8145TIP3   OH245849   3.701   1.044   1.960 -0.2167 -0.0351  0.3774
 8145TIP3    H145850   3.728   1.116   1.902 -0.0375  0.8965  1.5997
 8145TIP3    H245851   3.767   0.976   1.946  0.2737  0.4947  0.0764
 8146TIP3   OH245852   1.255   4.068  11.934  0.4987  0.0019  0.2345
 8146TIP3    H145853   1.317   3.999  11.954  0.9132  0.5312  0.7948
 8146TIP3    H245854   1.236   4.109  12.019  1.1092  1.2893 -0.2422
 8147TIP3   OH245855   5.968   5.936   3.877  0.3493  0.0214 -0.5566
 8147TIP3    H145856   5.996   5.971   3.793 -1.4332 -2.0647 -2.0694
 8147TIP3    H245857   5.878   5.907   3.863  0.3499 -1.2948  1.7684
 8148TIP3   OH245858   5.025   3.555   0.766  0.0650  0.0674  0.5294
 8148TIP3    H145859   4.993   3.599   0.846 -1.6148 -0.4706  0.1700
 8148TIP3    H245860   5.004   3.463   0.780  0.6371 -0.1643 -0.1383
 8149TIP3   OH245861   1.335   4.931   2.745  0.9428 -0.5688 -0.9131
 8149TIP3    H145862   1.385   5.008   2.773 -0.3595  0.0139 -0.1139
 8149TIP3    H245863   1.312   4.950   2.654  0.3864  0.1469 -0.6381
 8150TIP3   OH245864   6.334   5.027   4.126 -0.2048 -0.6634  0.3317
 8150TIP3    H145865   6.306   5.118   4.140 -0.8449 -0.9853  1.1828
 8150TIP3    H245866   6.253   4.980   4.107  0.4631 -0.4912 -3.2800
 8151TIP3   OH245867   3.578   4.521   5.911  0.3948  0.1451 -0.3049
 8151TIP3    H145868   3.527   4.440   5.915 -0.2907  0.5667 -0.5830
 8151TIP3    H245869   3.641   4.505   5.840  0.5159 -0.2914 -0.1020
 8152TIP3   OH245870   0.675   6.475   5.120  0.1069  0.6131 -0.8893
 8152TIP3    H145871   0.745   6.421   5.085  1.0375 -0.3123  2.2635
 8152TIP3    H245872   0.596   6.420   5.115  0.5678 -0.1417 -0.0072
 8153TIP3   OH245873   1.370   2.937  16.379 -0.3233  0.2080 -0.1119
 8153TIP3    H145874   1.320   2.954  16.299  1.4648  0.2676 -1.2442
 8153TIP3    H245875   1.389   3.025  16.414 -1.9623  0.1727  0.9746
 8154TIP3   OH245876   5.715   1.636   6.067 -0.4043  0.5685 -0.3247
 8154TIP3    H145877   5.651   1.707   6.071  0.7620  1.6075  0.0332
 8154TIP3    H245878   5.672   1.564   6.114 -1.3882  1.1938 -0.2385
 8155TIP3   OH245879   3.843   4.477  16.024 -0.2613  0.1687  0.3095
 8155TIP3    H145880   3.922   4.505  16.071  0.3243 -0.1409 -0.4900
 8155TIP3    H245881   3.874   4.450  15.938 -1.3601  0.9223 -0.3419
 8156TIP3   OH245882   4.645   4.757   4.602  0.2944 -0.1483  0.5058
 8156TIP3    H145883   4.698   4.835   4.585 -0.8683  0.9464  1.7886
 8156TIP3    H245884   4.594   4.745   4.522 -1.1923  1.7803  1.1274
 8157TIP3   OH245885   0.627   4.866  12.423 -1.2968  0.1440  0.3879
 8157TIP3    H145886   0.656   4.808  12.352 -0.2507 -0.0180  0.9387
 8157TIP3    H245887   0.552   4.913  12.386 -2.2346 -1.6169 -0.0421
 8158TIP3   OH245888   1.678   0.206   4.057  0.3806 -0.1687 -0.2252
 8158TIP3    H145889   1.643   0.265   4.123  1.1041  0.5903 -0.5021
 8158TIP3    H245890   1.679   0.258   3.976  1.1406 -0.5131 -0.4454
 8159TIP3   OH245891   1.006   4.815   3.978 -0.0312  0.1705 -0.9946
 8159TIP3    H145892   0.942   4.861   3.924 -0.7542  2.0835  1.3706
 8159TIP3    H245893   0.955   4.745   4.021  0.1669 -0.3045 -1.5400
 8160TIP3   OH245894   6.457   0.829   2.079 -0.2572  0.0667  0.5365
 8160TIP3    H145895   6.425   0.831   1.989  1.0280  0.3926  0.0779
 8160TIP3    H245896   6.380   0.805   2.132 -1.3979  1.5194 -0.4546
 8161TIP3   OH245897   6.346   5.771  14.559 -0.8576  0.0394  0.3743
 8161TIP3    H145898   6.274   5.810  14.510 -2.5281 -3.1195  0.1512
 8161TIP3    H245899   6.415   5.758  14.493 -1.2557  0.2267 -0.0841
 8162TIP3   OH245900   3.888   4.400  12.623 -0.5655 -0.1293 -0.4344
 8162TIP3    H145901   3.978   4.375  12.603 -0.6890 -0.0808 -1.0857
 8162TIP3    H245902   3.839   4.376  12.544 -1.0218  0.3811 -0.3100
 8163TIP3   OH245903   2.179   4.076  11.843 -0.1586 -0.0578 -0.2209
 8163TIP3    H145904   2.190   4.169  11.859  0.4575  0.0300 -1.1365
 8163TIP3    H245905   2.268   4.040  11.847 -0.5636 -0.9285  2.0496
 8164TIP3   OH245906   3.961   5.982  16.227 -0.1359  0.6729 -0.2543
 8164TIP3    H145907   4.023   5.927  16.275  1.4549  0.3053 -2.6694
 8164TIP3    H245908   3.903   6.016  16.295 -1.8731 -4.8031  1.2343
 8165TIP3   OH245909   1.270   3.606   4.895 -0.0836 -0.9624  0.0482
 8165TIP3    H145910   1.225   3.643   4.820 -0.8201 -0.6594  0.6357
 8165TIP3    H245911   1.202   3.590   4.960  0.7764  0.5266  1.3563
 8166TIP3   OH245912   0.816   4.794   0.813  0.0224 -0.2145  0.2398
 8166TIP3    H145913   0.785   4.754   0.732  1.4147 -1.9723  0.5277
 8166TIP3    H245914   0.737   4.827   0.856 -0.7931  0.0971 -1.4951
 8167TIP3   OH245915   0.918   5.101  16.674  0.0042 -0.1377 -0.3784
 8167TIP3    H145916   0.972   5.026  16.698 -1.7494 -1.4376 -0.3771
 8167TIP3    H245917   0.858   5.113  16.748  1.3296  2.3217  0.3560
 8168TIP3   OH245918   4.954   2.287  12.472 -0.1981  0.2718 -0.2285
 8168TIP3    H145919   5.004   2.368  12.481  1.1956 -0.4078 -1.6510
 8168TIP3    H245920   4.997   2.239  12.401 -1.9232 -1.0400 -0.4402
 8169TIP3   OH245921   2.478   4.431  11.160  0.0823 -0.3136  0.4578
 8169TIP3    H145922   2.513   4.345  11.187  0.6040 -0.4103 -0.5140
 8169TIP3    H245923   2.498   4.488  11.234  1.7595 -0.5167  0.1906
 8170TIP3   OH245924   4.350   2.049   2.889  0.3820 -0.2508 -0.0096
 8170TIP3    H145925   4.366   1.961   2.922  2.2912  0.3644  0.7607
 8170TIP3    H245926   4.367   2.043   2.795  1.0094 -0.5884  0.1208
 8171TIP3   OH245927   4.986   4.904   1.103 -0.2645 -0.4955  0.3238
 8171TIP3    H145928   5.036   4.824   1.088  1.5520  0.3821  1.5960
 8171TIP3    H245929   5.009   4.961   1.030 -2.4656 -1.5263 -1.2317
 8172TIP3   OH245930   6.613   1.961  11.939 -0.0858  0.0045 -0.4702
 8172TIP3    H145931   6.583   2.013  12.014  1.9228 -0.5592  0.7680
 8172TIP3    H245932   6.665   2.022  11.887  3.1510 -0.8851  1.5243
 8173TIP3   OH245933   3.665   5.924   2.303  0.5419 -0.5152  0.0136
 8173TIP3    H145934   3.636   5.844   2.259 -2.2914  0.3331  0.2520
 8173TIP3    H245935   3.699   5.893   2.387  0.8144 -1.6081 -0.4871
 8174TIP3   OH245936   3.856   3.357   2.431  0.2797 -0.4854  0.0480
 8174TIP3    H145937   3.919   3.301   2.475  1.5453  0.2959 -0.7460
 8174TIP3    H245938   3.816   3.409   2.501  0.1718 -1.3087  0.6024
 8175TIP3   OH245939   6.050   4.524  17.108 -0.1248 -0.1597  0.0963
 8175TIP3    H145940   5.995   4.463  17.060  0.2053 -0.5283  0.1834
 8175TIP3    H245941   6.059   4.599  17.049  1.3849 -1.1641 -1.0096
 8176TIP3   OH245942   0.770   3.354   3.338  0.3229  0.2997  0.1114
 8176TIP3    H145943   0.863   3.364   3.357  1.1494 -1.6779 -2.6961
 8176TIP3    H245944   0.748   3.430   3.284  1.2129 -1.1403 -2.3127
 8177TIP3   OH245945   3.704   2.599   2.956  0.1608  0.2145  0.3671
 8177TIP3    H145946   3.674   2.540   3.026 -0.5380  0.5035  0.3161
 8177TIP3    H245947   3.766   2.546   2.905  0.4159 -0.1044  1.0061
 8178TIP3   OH245948   2.740   6.368  15.272 -0.1744  0.1350  0.7044
 8178TIP3    H145949   2.755   6.307  15.200 -2.0083  0.4851  0.0263
 8178TIP3    H245950   2.802   6.440  15.256  2.1453 -1.5942  1.6225
 8179TIP3   OH245951   4.269   3.546  16.675  0.3313  0.4663 -0.1076
 8179TIP3    H145952   4.180   3.574  16.698  0.3086  0.3753 -0.0886
 8179TIP3    H245953   4.285   3.588  16.590  0.9151  1.8665  0.6881
 8180TIP3   OH245954   3.593   1.625  12.335  0.8989  0.3304  0.2935
 8180TIP3    H145955   3.553   1.712  12.332 -0.0109 -0.1159 -1.0964
 8180TIP3    H245956   3.536   1.574  12.393  1.4607  0.6772  1.1484
 8181TIP3   OH245957   6.080   3.605  12.036  0.7955 -0.5659 -0.7280
 8181TIP3    H145958   6.000   3.605  11.984  0.3744  0.4261 -0.1150
 8181TIP3    H245959   6.058   3.556  12.115  0.3322  0.8745  0.0735
 8182TIP3   OH245960   5.810   2.404   3.759  0.3586  0.0464 -0.1420
 8182TIP3    H145961   5.895   2.375   3.792 -1.4544 -1.8738  3.2088
 8182TIP3    H245962   5.762   2.323   3.742 -1.2700  1.0888 -0.6432
 8183TIP3   OH245963   6.038   2.289  12.940  0.4006 -0.0376  0.1088
 8183TIP3    H145964   6.054   2.327  12.854  1.2189 -0.4921  0.0553
 8183TIP3    H245965   5.945   2.303  12.956  0.6605  1.9098  0.0355
 8184TIP3   OH245966   1.792   6.031  14.041 -0.0061  0.6175 -0.1212
 8184TIP3    H145967   1.869   5.982  14.070  0.2746  0.7685 -0.6027
 8184TIP3    H245968   1.727   6.017  14.109  0.7207  1.1519  0.6844
 8185TIP3   OH245969   6.362   6.425  12.981 -0.0622 -0.1437 -0.0713
 8185TIP3    H145970   6.422   6.495  13.008  0.6930  0.5474 -3.3207
 8185TIP3    H245971   6.279   6.469  12.964 -0.3117 -0.4324  0.4137
 8186TIP3   OH245972   6.346   2.952  15.732 -0.4998  0.0443 -0.1497
 8186TIP3    H145973   6.321   2.889  15.800 -0.0215 -1.9592 -1.7762
 8186TIP3    H245974   6.411   2.905  15.679 -3.0172  0.4448 -3.7531
 8187TIP3   OH245975   4.718   1.381  11.236  0.3074 -0.1879 -0.2086
 8187TIP3    H145976   4.782   1.336  11.180  2.1790  0.7624  1.1143
 8187TIP3    H245977   4.768   1.410  11.312 -1.2303  2.5694 -0.1720
 8188TIP3   OH245978   3.970   0.795   0.115 -0.1059  0.3515  0.0685
 8188TIP3    H145979   4.040   0.747   0.071  1.6638  0.9613  2.1151
 8188TIP3    H245980   3.971   0.882   0.075 -0.9077 -0.1689 -1.1248
 8189TIP3   OH245981   6.654   1.363  14.193 -0.6339 -0.5817  0.2793
 8189TIP3    H145982   6.597   1.420  14.244 -1.7520 -2.7549  1.5741
 8189TIP3    H245983   6.619   1.368  14.104 -0.3024  1.2285  0.2352
 8190TIP3   OH245984   4.411   1.793  14.499  0.0506  0.4898 -0.0864
 8190TIP3    H145985   4.461   1.734  14.442  1.5719  0.9959  0.6903
 8190TIP3    H245986   4.425   1.880  14.462  0.4379  0.7321  0.6297
 8191TIP3   OH245987   3.197   3.738   1.738 -0.0317 -0.3681 -0.1855
 8191TIP3    H145988   3.168   3.648   1.723 -0.6229 -0.0831 -0.7957
 8191TIP3    H245989   3.170   3.785   1.659 -1.7071  0.8162  1.0467
 8192TIP3   OH245990   6.673   3.025  16.983 -0.6827  0.4296  0.5810
 8192TIP3    H145991   6.756   3.029  17.030 -0.8379  1.4556  0.7823
 8192TIP3    H245992   6.615   3.084  17.032 -1.8650 -1.1291  1.0906
 8193TIP3   OH245993   0.133   4.721   3.009 -0.6476  0.5077 -0.3338
 8193TIP3    H145994   0.072   4.794   3.021 -0.4822  0.4331  1.0661
 8193TIP3    H245995   0.186   4.721   3.089 -0.4729 -0.9750 -0.4337
 8194TIP3   OH245996   1.454   1.587  12.312  0.0941  0.6355 -0.1785
 8194TIP3    H145997   1.388   1.655  12.324 -0.6218  0.4815 -2.8777
 8194TIP3    H245998   1.537   1.631  12.325 -0.4816  1.0388  2.3401
 8195TIP3   OH245999   2.151   0.460  14.441  0.3081  0.0540  0.2947
 8195TIP3    H146000   2.239   0.450  14.478 -0.6987  0.9224  3.0076
 8195TIP3    H246001   2.137   0.555  14.437 -0.9144 -0.0899  0.9092
 8196TIP3   OH246002   0.287   0.514   1.408 -0.4387  0.2161 -0.1438
 8196TIP3    H146003   0.320   0.600   1.382  1.2081  0.4731  2.5807
 8196TIP3    H246004   0.307   0.508   1.501  0.9786 -3.7598 -0.6065
 8197TIP3   OH246005   3.725   1.946   3.332 -0.0450  0.0508  0.0203
 8197TIP3    H146006   3.659   1.955   3.401 -1.3324  0.9040 -1.2915
 8197TIP3    H246007   3.779   2.025   3.340 -0.0830  0.0615  0.1699
 8198TIP3   OH246008   1.152   5.192  15.264 -0.1345  0.4481 -0.4911
 8198TIP3    H146009   1.125   5.112  15.309  1.7682  0.2472  0.3519
 8198TIP3    H246010   1.070   5.238  15.244 -1.1784 -1.1049  0.1200
 8199TIP3   OH246011   3.923   3.773  11.561  0.0544  0.4157  0.0460
 8199TIP3    H146012   3.906   3.752  11.469 -0.4929  2.5453 -0.3746
 8199TIP3    H246013   3.854   3.727  11.609 -0.2884  0.1162 -0.7141
 8200TIP3   OH246014   3.433   3.962   4.969 -0.4752  0.0089  0.1434
 8200TIP3    H146015   3.473   3.983   4.884  2.1718  0.4483  1.4376
 8200TIP3    H246016   3.478   4.019   5.031 -2.3543 -0.3316  1.8701
 8201TIP3   OH246017   3.936   1.435  10.657 -0.6437  0.0792 -0.2161
 8201TIP3    H146018   3.907   1.366  10.597  0.2856  1.4369 -2.2876
 8201TIP3    H246019   3.856   1.464  10.700 -1.5274 -0.0658 -1.7267
 8202TIP3   OH246020   6.191   1.755   0.032  0.1175  0.3026  0.2006
 8202TIP3    H146021   6.231   1.831   0.076 -1.9045  0.1867  2.3519
 8202TIP3    H246022   6.113   1.736   0.084  1.1859 -3.9806  0.3978
 8203TIP3   OH246023   2.375   1.348   5.331  0.3961  0.3188  0.4468
 8203TIP3    H146024   2.398   1.437   5.303 -2.9307  0.9007 -0.6244
 8203TIP3    H246025   2.459   1.309   5.356  1.9418  3.7776  1.0494
 8204TIP3   OH246026   4.663   0.878   1.971 -0.5815 -0.4631 -0.0314
 8204TIP3    H146027   4.679   0.798   1.921  0.2422 -1.3386  1.6250
 8204TIP3    H246028   4.695   0.859   2.059  1.2650  2.3003 -0.0449
 8205TIP3   OH246029   2.163   2.504   4.864  0.0296  0.4018 -0.4326
 8205TIP3    H146030   2.130   2.500   4.954  0.2611 -2.4190 -0.4182
 8205TIP3    H246031   2.093   2.547   4.814 -0.4690  1.1884  0.9199
 8206TIP3   OH246032   4.272   5.620  16.142 -0.0074 -0.1586  0.0734
 8206TIP3    H146033   4.257   5.541  16.091  0.5762  0.5610 -1.2214
 8206TIP3    H246034   4.221   5.607  16.222 -0.9990 -1.2501 -0.7281
 8207TIP3   OH246035   2.772   2.106  14.413 -0.6769 -0.5334 -0.9516
 8207TIP3    H146036   2.765   2.192  14.370 -0.1580 -1.3646 -2.7403
 8207TIP3    H246037   2.682   2.082  14.434 -0.6164  2.0433  2.8876
 8208TIP3   OH246038   0.528   1.478   1.876 -0.2090 -0.6355  0.1918
 8208TIP3    H146039   0.573   1.518   1.950 -1.3908 -1.5575  1.4170
 8208TIP3    H246040   0.599   1.447   1.819  0.7040  1.2678  0.2554
 8209TIP3   OH246041   4.657   6.319  10.989 -0.2173 -0.5603  0.6522
 8209TIP3    H146042   4.736   6.342  10.940 -1.1533  0.7440 -0.2800
 8209TIP3    H246043   4.689   6.292  11.075  1.2403 -0.0447  0.2825
 8210TIP3   OH246044   3.858   1.532   4.382  0.4505 -0.2510  0.3411
 8210TIP3    H146045   3.768   1.502   4.394  0.7511 -0.8295  1.1899
 8210TIP3    H246046   3.869   1.536   4.287  0.2448 -2.4156  0.1932
 8211TIP3   OH246047   2.068   1.069   3.557 -0.3571 -0.2743 -0.2715
 8211TIP3    H146048   2.067   0.975   3.573  0.6487 -0.0333  1.2662
 8211TIP3    H246049   2.009   1.081   3.483 -0.3945 -2.1255 -0.5610
 8212TIP3   OH246050   6.046   2.397   3.369  0.3518 -0.7794 -0.0495
 8212TIP3    H146051   6.079   2.485   3.391  0.5609 -0.6784 -0.7623
 8212TIP3    H246052   6.098   2.370   3.293 -1.2212 -0.6240 -1.1972
 8213TIP3   OH246053   4.671   0.450  13.875  0.2261  0.2347 -0.1655
 8213TIP3    H146054   4.714   0.468  13.958 -1.5329  2.4872  0.2969
 8213TIP3    H246055   4.601   0.388  13.897  0.8084 -0.4652 -0.2682
 8214TIP3   OH246056   0.299   4.593  14.084 -0.1565 -0.7099  0.2744
 8214TIP3    H146057   0.260   4.594  13.996  1.1678 -0.4862 -0.3291
 8214TIP3    H246058   0.225   4.591  14.144 -1.0753 -1.4355 -0.8648
 8215TIP3   OH246059   0.143   4.596  13.841 -0.3011  0.2499 -0.2508
 8215TIP3    H146060   0.067   4.538  13.839 -0.3251  0.3141 -2.0085
 8215TIP3    H246061   0.123   4.665  13.777  0.9792  0.5943 -0.3014
 8216TIP3   OH246062   3.007   2.683  12.431  0.6779  0.1091 -0.3331
 8216TIP3    H146063   2.986   2.745  12.361  1.0351 -0.0197 -0.5524
 8216TIP3    H246064   3.099   2.700  12.451  1.0655 -1.0676 -1.1069
 8217TIP3   OH246065   4.269   6.783   1.259 -0.2264  0.6695  0.2993
 8217TIP3    H146066   4.182   6.760   1.292 -0.7365  0.9791 -0.7879
 8217TIP3    H246067   4.327   6.776   1.335 -1.3512  1.2768  1.2230
 8218TIP3   OH246068   4.356   2.273  14.890  0.2919  0.1731 -0.5519
 8218TIP3    H146069   4.419   2.336  14.855  1.7935 -2.1716 -2.2268
 8218TIP3    H246070   4.304   2.246  14.813 -0.7972 -0.1142  0.2635
 8219TIP3   OH246071   4.984   3.252  16.628  0.2995  0.1367  0.3325
 8219TIP3    H146072   4.991   3.163  16.594  1.2501 -0.5238  2.1966
 8219TIP3    H246073   5.074   3.274  16.654  0.1368  1.7726 -0.4415
 8220TIP3   OH246074   5.011   4.123   5.254 -0.0917  0.1776 -0.0165
 8220TIP3    H146075   4.993   4.185   5.325 -0.1214  2.7039 -2.1569
 8220TIP3    H246076   4.958   4.154   5.181 -0.9824 -3.0813 -0.8429
 8221TIP3   OH246077   1.271   5.381  13.482 -0.7698  0.3865  0.2631
 8221TIP3    H146078   1.338   5.449  13.471  0.0465 -0.8570 -3.0475
 8221TIP3    H246079   1.200   5.409  13.424 -0.7541 -1.1437 -0.5226
 8222TIP3   OH246080   1.350   2.757  14.940 -0.0578 -0.0823  0.6790
 8222TIP3    H146081   1.259   2.751  14.910  0.3575 -1.9884 -0.2398
 8222TIP3    H246082   1.399   2.703  14.880  1.9062  1.8534  0.4911
 8223TIP3   OH246083   0.244   0.688  12.081  0.0070 -0.4177 -0.1352
 8223TIP3    H146084   0.182   0.758  12.059 -0.5495 -1.3817 -1.6380
 8223TIP3    H246085   0.197   0.607  12.064  1.6627 -1.1707 -1.3185
 8224TIP3   OH246086   2.550   6.153  13.234 -0.3378 -0.2120  0.1089
 8224TIP3    H146087   2.540   6.218  13.304 -0.2188 -0.6048  0.4885
 8224TIP3    H246088   2.511   6.195  13.157 -1.2348 -0.1179  0.6095
 8225TIP3   OH246089   6.043   0.660   2.530  0.2373  0.1704  0.0463
 8225TIP3    H146090   6.112   0.726   2.536 -0.7973  1.2505  0.2627
 8225TIP3    H246091   6.085   0.579   2.558  0.9393  1.1763  2.0113
 8226TIP3   OH246092   0.168   2.021   1.637  0.4478  0.4084 -0.0280
 8226TIP3    H146093   0.183   1.959   1.566  1.5235 -0.0239  0.5659
 8226TIP3    H246094   0.194   1.973   1.716 -1.3400  0.6470  0.7442
 8227TIP3   OH246095   1.527   4.463   2.029  0.6308 -0.2690  0.3235
 8227TIP3    H146096   1.472   4.535   1.998  1.1925  0.2883  0.6080
 8227TIP3    H246097   1.525   4.399   1.958  0.4086  0.1842 -0.0804
 8228TIP3   OH246098   2.661   0.444   3.458  0.0070  0.0326 -0.7716
 8228TIP3    H146099   2.645   0.447   3.363  0.3282 -2.0079 -0.8924
 8228TIP3    H246100   2.622   0.362   3.487 -0.9332  1.0817  1.0580
 8229TIP3   OH246101   2.091   6.264  12.006  0.7068  0.5075 -0.3110
 8229TIP3    H146102   2.105   6.186  12.060 -1.4757 -0.5731 -1.2346
 8229TIP3    H246103   2.135   6.244  11.923 -0.4906 -0.0851 -0.8183
 8230TIP3   OH246104   5.853   2.122   0.536  0.0782  0.2837 -0.5829
 8230TIP3    H146105   5.864   2.181   0.610 -1.5126  0.8394 -0.7572
 8230TIP3    H246106   5.837   2.036   0.576  0.1199  0.4092 -0.2944
 8231TIP3   OH246107   3.419   2.885   0.252  0.1118 -0.1789  0.0061
 8231TIP3    H146108   3.328   2.876   0.280  0.3539  1.1738  1.2963
 8231TIP3    H246109   3.414   2.937   0.172 -0.1258  1.9341  1.3425
 8232TIP3   OH246110   4.554   6.415  16.145 -0.4947 -0.7091 -0.1030
 8232TIP3    H146111   4.632   6.391  16.095  0.6196  2.3920  0.0232
 8232TIP3    H246112   4.588   6.466  16.219 -2.7123  3.2049 -1.6039
 8233TIP3   OH246113   1.294   4.220   2.572 -0.5493 -0.0902 -0.2772
 8233TIP3    H146114   1.285   4.129   2.602  0.7584 -0.3237 -0.5548
 8233TIP3    H246115   1.309   4.212   2.478 -3.2615  0.5706 -0.8180
 8234TIP3   OH246116   0.181   6.616  15.125  0.0304 -0.0276 -0.6064
 8234TIP3    H146117   0.198   6.549  15.191  0.5221  0.0598 -0.6475
 8234TIP3    H246118   0.180   6.569  15.042  1.0984  0.1210 -0.7115
 8235TIP3   OH246119   5.135   3.247   4.443  0.6973 -0.2574 -0.2977
 8235TIP3    H146120   5.115   3.161   4.481  3.0771  0.0536  1.7259
 8235TIP3    H246121   5.194   3.288   4.505  1.2065  2.0637 -2.2424
 8236TIP3   OH246122   2.326   5.700  15.628 -1.0061 -0.2927 -0.4361
 8236TIP3    H146123   2.300   5.608  15.639  0.3448 -0.7589 -1.0370
 8236TIP3    H246124   2.354   5.728  15.715 -2.9453  0.0623  0.1131
 8237TIP3   OH246125   3.540   1.371  16.149 -0.5632  0.4580  0.9165
 8237TIP3    H146126   3.629   1.407  16.148  0.5048 -2.0829 -0.8219
 8237TIP3    H246127   3.496   1.414  16.076  0.6817 -1.6034 -1.1071
 8238TIP3   OH246128   4.926   5.287   1.645 -0.9325  0.8296  0.4272
 8238TIP3    H146129   4.962   5.348   1.709 -1.6595  1.9992 -0.2534
 8238TIP3    H246130   4.988   5.291   1.572 -1.1952  1.0800  0.2144
 8239TIP3   OH246131   5.198   4.739  12.070  0.2015  0.3759 -0.6061
 8239TIP3    H146132   5.260   4.802  12.033 -0.8521  0.1260 -2.8804
 8239TIP3    H246133   5.154   4.701  11.994 -0.9744 -1.2713  0.8546
 8240TIP3   OH246134   1.882   2.057   5.397  0.2543  0.3209  0.5658
 8240TIP3    H146135   1.854   2.148   5.404 -1.5275 -0.1673  0.0573
 8240TIP3    H246136   1.936   2.055   5.317 -1.3811  0.5540 -0.5784
 8241TIP3   OH246137   3.582   3.530  11.543  0.1428  0.1758  0.4248
 8241TIP3    H146138   3.673   3.518  11.569  0.7582 -0.2441 -1.7967
 8241TIP3    H246139   3.582   3.610  11.491 -0.5555 -0.3519 -0.4034
 8242TIP3   OH246140   4.305   1.422   1.984 -0.4017  0.2658  0.3044
 8242TIP3    H146141   4.321   1.451   2.073 -2.2857  2.8390 -0.1340
 8242TIP3    H246142   4.341   1.492   1.929 -3.0600  0.8218 -0.8238
 8243TIP3   OH246143   6.721   5.922  14.000  0.4190 -0.1069  0.7961
 8243TIP3    H146144   6.650   5.974  14.037 -1.1024 -2.7244  1.6690
 8243TIP3    H246145   6.782   5.909  14.073  0.5982  0.0933  0.6833
 8244TIP3   OH246146   0.012   6.078   5.490  0.4308 -0.1842  0.5841
 8244TIP3    H146147  -0.045   6.050   5.562 -1.1369  1.6320  0.0878
 8244TIP3    H246148  -0.006   6.015   5.420 -1.3641  0.6550  0.2622
 8245TIP3   OH246149   6.067   6.584  15.918  0.0689 -0.0995  0.5975
 8245TIP3    H146150   5.988   6.597  15.970 -0.2723 -1.1302  0.3469
 8245TIP3    H246151   6.059   6.495  15.883  0.3712  0.5049 -1.0815
 8246TIP3   OH246152   6.606   5.531   3.415 -0.1402  0.5348  0.5884
 8246TIP3    H146153   6.518   5.546   3.381 -0.2720 -0.7622  0.3420
 8246TIP3    H246154   6.593   5.487   3.499  0.2777 -1.3202 -0.2810
 8247TIP3   OH246155   5.651   6.576  13.614 -0.0319  0.0714 -0.3614
 8247TIP3    H146156   5.736   6.552  13.649 -0.0180  1.1524  0.3481
 8247TIP3    H246157   5.590   6.512  13.652  0.0186  1.0796  1.4327
 8248TIP3   OH246158   5.979   3.444   1.705  0.1914  0.5254  0.6283
 8248TIP3    H146159   5.947   3.442   1.615  0.5685 -1.3397  0.5228
 8248TIP3    H246160   6.072   3.420   1.698  0.2125  0.3253  1.5189
 8249TIP3   OH246161   3.957   6.157   0.813 -0.1244 -0.0971  0.3128
 8249TIP3    H146162   3.943   6.216   0.739  0.1027 -1.0020 -0.4573
 8249TIP3    H246163   3.937   6.070   0.779  0.2119 -0.5533  1.2500
 8250TIP3   OH246164   3.181   1.329  15.357  0.4905 -0.1570  0.3301
 8250TIP3    H146165   3.145   1.252  15.401  1.5356 -0.5911  0.4547
 8250TIP3    H246166   3.231   1.374  15.425  1.4414 -0.3850 -0.2137
 8251TIP3   OH246167   1.217   4.575  11.696  0.6305 -0.1959  0.2330
 8251TIP3    H146168   1.222   4.482  11.718 -2.1379 -1.1233 -2.6676
 8251TIP3    H246169   1.136   4.605  11.736 -0.1856  0.1256 -1.6255
 8252TIP3   OH246170   4.978   0.411   0.873  0.1689 -0.4135  0.1420
 8252TIP3    H146171   4.986   0.367   0.788  0.0907  0.6236 -0.4124
 8252TIP3    H246172   4.910   0.477   0.859  2.0226  1.5695  0.2287
 8253TIP3   OH246173   0.154   4.840  13.639 -0.0979 -0.0608  0.9810
 8253TIP3    H146174   0.203   4.836  13.557 -0.4928  0.3594  0.7238
 8253TIP3    H246175   0.149   4.933  13.659  0.6151 -0.2061  1.8529
 8254TIP3   OH246176   4.421   6.075   5.076 -0.2755  0.2551 -0.1527
 8254TIP3    H146177   4.389   6.166   5.080 -2.1021 -0.3764  0.1235
 8254TIP3    H246178   4.427   6.049   5.168 -1.0932 -0.3422 -0.2628
 8255TIP3   OH246179   2.660   2.757  15.442  0.6335 -0.0921  0.6066
 8255TIP3    H146180   2.645   2.755  15.536  2.5600  0.5920  0.9491
 8255TIP3    H246181   2.717   2.832  15.428 -0.8958  0.7588 -1.3184
 8256TIP3   OH246182   5.382   6.131  14.849 -0.0271  0.0189  0.3397
 8256TIP3    H146183   5.327   6.155  14.775 -1.1072 -0.1006  1.0952
 8256TIP3    H246184   5.411   6.042  14.830  0.8442  0.4987 -0.6075
 8257TIP3   OH246185   5.840   5.696   3.027 -0.5899 -0.1726 -0.0051
 8257TIP3    H146186   5.786   5.619   3.014  0.4208 -1.0750  0.9981
 8257TIP3    H246187   5.782   5.760   3.069 -0.8321 -1.2141  1.2773
 8258TIP3   OH246188   4.208   5.426  15.210  0.0796  0.6860  0.3468
 8258TIP3    H146189   4.147   5.388  15.273 -0.4916 -1.0371 -1.1787
 8258TIP3    H246190   4.152   5.463  15.142  0.6913  2.1535  0.6363
 8259TIP3   OH246191   6.658   6.159  13.468 -0.1960 -0.5638 -0.4912
 8259TIP3    H146192   6.672   6.156  13.563 -0.4355  0.2068 -0.4269
 8259TIP3    H246193   6.727   6.104  13.432  0.4643 -0.1225  0.0790
 8260TIP3   OH246194   1.267   4.173   1.255 -0.1717 -0.1812 -0.7544
 8260TIP3    H146195   1.269   4.123   1.174 -3.6159 -0.1216 -0.9656
 8260TIP3    H246196   1.277   4.108   1.324  0.6418 -0.4875 -1.1524
 8261TIP3   OH246197   3.462   6.099   1.245  0.2395  0.4203  0.5067
 8261TIP3    H146198   3.537   6.090   1.303  0.4875 -0.8288  0.0089
 8261TIP3    H246199   3.497   6.139   1.165  0.2838  0.2729  0.4528
 8262TIP3   OH246200   5.568   2.059   4.639 -0.0852 -0.5548  0.1050
 8262TIP3    H146201   5.574   1.969   4.607 -0.4484 -0.7514  0.5742
 8262TIP3    H246202   5.580   2.113   4.561  1.1990 -0.9896 -0.0167
 8263TIP3   OH246203   5.828   5.247  13.726 -0.0396 -0.6296  0.2344
 8263TIP3    H146204   5.800   5.336  13.746  1.2831 -0.2674  0.5309
 8263TIP3    H246205   5.750   5.193  13.739 -0.2209  0.1320  2.5521
 8264TIP3   OH246206   1.323   3.236   2.123 -0.2341  0.2491 -0.4296
 8264TIP3    H146207   1.358   3.321   2.149 -2.3032  0.8186  0.6464
 8264TIP3    H246208   1.274   3.206   2.199 -1.1731 -0.9844 -1.4998
 8265TIP3   OH246209   5.237   0.933   2.587  0.2480 -0.6056  0.7133
 8265TIP3    H146210   5.273   0.989   2.518 -0.0248  2.0701  2.6548
 8265TIP3    H246211   5.314   0.892   2.626  0.6710  0.2263  0.7723
 8266TIP3   OH246212   1.580   2.536  12.219 -0.1833  0.2766  0.3402
 8266TIP3    H146213   1.538   2.460  12.178 -0.7451  0.7406  0.0494
 8266TIP3    H246214   1.513   2.605  12.215 -0.0938  0.4534  1.6320
 8267TIP3   OH246215   6.654   0.642   3.893  0.3040 -0.7505  0.2050
 8267TIP3    H146216   6.742   0.666   3.922 -0.3100  0.0480  1.4509
 8267TIP3    H246217   6.603   0.637   3.973 -0.5547 -2.2483 -0.4146
 8268TIP3   OH246218   5.575   1.333   2.313 -0.0484  0.2449  0.1119
 8268TIP3    H146219   5.481   1.338   2.329  0.0075  0.1470  0.4724
 8268TIP3    H246220   5.585   1.261   2.250 -0.0660 -0.8231  1.3058
 8269TIP3   OH246221   4.175   4.457  12.813  0.4055 -0.1397  0.2198
 8269TIP3    H146222   4.266   4.446  12.841  0.1300 -0.9141  0.8266
 8269TIP3    H246223   4.179   4.450  12.718  0.9884 -0.1889  0.2433
 8270TIP3   OH246224   1.176   6.328   3.903  0.3759  0.2867 -0.4338
 8270TIP3    H146225   1.238   6.390   3.864  0.6090 -1.0788 -2.2480
 8270TIP3    H246226   1.131   6.288   3.829 -1.0373 -0.4341  0.7891
 8271TIP3   OH246227   2.064   0.240  15.223  0.7310  0.3733 -0.0811
 8271TIP3    H146228   2.040   0.156  15.184 -0.1167  0.6723 -0.2117
 8271TIP3    H246229   2.122   0.281  15.158  0.4082  0.2878 -0.4243
 8272TIP3   OH246230   6.779   4.859   0.157 -0.0378 -0.4141 -0.2023
 8272TIP3    H146231   6.808   4.767   0.158  0.5145 -0.2339  0.8448
 8272TIP3    H246232   6.703   4.860   0.214  0.7068  0.0180  0.7889
 8273TIP3   OH246233   6.687   4.810   2.845 -0.5206  0.9153 -1.2695
 8273TIP3    H146234   6.686   4.732   2.899 -0.2229  1.2294 -0.8037
 8273TIP3    H246235   6.681   4.883   2.907  3.3596  1.4128 -1.3414
 8274TIP3   OH246236   2.536   5.164  13.164  0.5468  0.3827 -0.3689
 8274TIP3    H146237   2.466   5.143  13.226  1.5286 -0.1475  0.5783
 8274TIP3    H246238   2.593   5.225  13.211 -0.0542  2.0106 -1.6599
 8275TIP3   OH246239   3.689   2.691   0.952  0.4049 -0.2963  0.6393
 8275TIP3    H146240   3.670   2.771   1.000  2.6208  0.6645 -0.0206
 8275TIP3    H246241   3.784   2.689   0.945  0.2543 -1.5593 -1.7292
 8276TIP3   OH246242   1.748   0.861  11.214 -0.3165  0.9162 -0.2168
 8276TIP3    H146243   1.667   0.898  11.249  1.0817  2.2207  1.6905
 8276TIP3    H246244   1.781   0.927  11.154  0.0015  0.9369 -0.0197
 8277TIP3   OH246245   4.273   0.232  13.369 -0.1968 -0.0040  0.7422
 8277TIP3    H146246   4.346   0.266  13.420 -2.0077  1.1019  2.6852
 8277TIP3    H246247   4.214   0.193  13.434 -0.1717 -3.1832 -1.0185
 8278TIP3   OH246248   2.635   0.726   4.285  0.0906 -0.0878 -0.7526
 8278TIP3    H146249   2.623   0.644   4.238  0.1217 -1.3503  1.3494
 8278TIP3    H246250   2.667   0.699   4.372 -0.9806  2.0630  0.3492
 8279TIP3   OH246251   1.814   0.508  16.897 -0.9152  1.2524  0.5566
 8279TIP3    H146252   1.790   0.481  16.808 -1.5520  0.1477  1.0532
 8279TIP3    H246253   1.895   0.460  16.915 -0.6690  1.6421  0.4992
 8280TIP3   OH246254   2.560   1.969  14.545 -0.0285  0.2295 -0.1087
 8280TIP3    H146255   2.466   1.981  14.557 -0.2097 -2.2107  1.1086
 8280TIP3    H246256   2.568   1.882  14.505  1.7550  0.0442  0.6260
 8281TIP3   OH246257   1.440   1.481  16.328  0.3364 -0.1803  0.1678
 8281TIP3    H146258   1.371   1.525  16.378 -0.5162 -0.3434 -0.8367
 8281TIP3    H246259   1.402   1.468  16.241  0.2793 -3.5191  0.6212
 8282TIP3   OH246260   3.168   4.266  13.964 -0.1216 -1.0298  0.2468
 8282TIP3    H146261   3.099   4.201  13.953 -0.5001 -0.4538 -0.8864
 8282TIP3    H246262   3.143   4.338  13.905  2.5037 -1.6835 -1.7819
 8283TIP3   OH246263   4.419   6.030   0.890  0.1237 -0.3128 -0.0214
 8283TIP3    H146264   4.342   5.974   0.895 -0.3899  0.2405 -1.4977
 8283TIP3    H246265   4.484   5.987   0.945 -0.5963 -1.8157 -0.3272
 8284TIP3   OH246266   0.167   3.124  14.060  0.6159  0.4418 -0.3593
 8284TIP3    H146267   0.079   3.162  14.064  0.7914  0.7525  0.6198
 8284TIP3    H246268   0.224   3.191  14.099  1.2606  0.1528 -0.7870
 8285TIP3   OH246269   4.503   1.280   2.506 -0.1195 -0.2464 -0.2301
 8285TIP3    H146270   4.449   1.357   2.522 -0.0715 -0.0239 -1.0934
 8285TIP3    H246271   4.571   1.282   2.574 -0.9293 -0.2847  0.5896
 8286TIP3   OH246272   0.848   0.747   5.811  0.6698  0.4407  0.3028
 8286TIP3    H146273   0.926   0.719   5.763  0.9617  1.2288  0.3192
 8286TIP3    H246274   0.843   0.686   5.885  0.1042 -0.8884 -0.8182
 8287TIP3   OH246275   4.046   0.899  14.882 -0.3060 -0.1311  0.1560
 8287TIP3    H146276   4.003   0.863  14.805  0.9704 -1.0389 -0.1425
 8287TIP3    H246277   4.014   0.989  14.888  0.1525  0.1792 -1.8588
 8288TIP3   OH246278   6.303   1.486  12.207  0.5933  0.2827 -0.4836
 8288TIP3    H146279   6.383   1.508  12.254  0.1292  2.2111 -0.5701
 8288TIP3    H246280   6.333   1.463  12.119  1.1224  0.3011 -0.3097
 8289TIP3   OH246281   3.439   2.378   4.210  0.4969 -0.1884 -0.1120
 8289TIP3    H146282   3.381   2.314   4.253  0.2299 -0.2866 -0.6179
 8289TIP3    H246283   3.526   2.355   4.242  0.3213 -0.3865  0.2309
 8290TIP3   OH246284   0.025   1.825   1.999  0.1849  0.3704  0.4688
 8290TIP3    H146285   0.114   1.843   2.026  1.1109 -0.4470 -1.9330
 8290TIP3    H246286   0.033   1.763   1.927 -2.3312  0.0407  0.3986
 8291TIP3   OH246287   2.594   6.107   2.260 -0.1624 -0.3799  0.1880
 8291TIP3    H146288   2.510   6.152   2.252  0.4898  0.7553 -0.3923
 8291TIP3    H246289   2.650   6.170   2.305  0.4115 -1.0855  0.4582
 8292TIP3   OH246290   6.558   5.021   1.843  0.4170  0.1351 -0.6163
 8292TIP3    H146291   6.483   4.963   1.844  1.3385 -1.0479  0.1896
 8292TIP3    H246292   6.569   5.044   1.751 -2.6134  2.5541 -0.4504
 8293TIP3   OH246293   0.376   4.885   5.977 -0.0780 -0.1592 -0.2725
 8293TIP3    H146294   0.298   4.833   5.960 -0.5046  0.3600  0.0630
 8293TIP3    H246295   0.434   4.827   6.026  0.6641 -1.2807 -2.4016
 8294TIP3   OH246296   3.193   6.689   2.278 -0.3589 -0.2847  0.5230
 8294TIP3    H146297   3.190   6.756   2.346  0.0512  1.6490 -1.3149
 8294TIP3    H246298   3.286   6.684   2.254 -0.7995  0.8276 -1.5574
 8295TIP3   OH246299   6.421   1.472   0.497  0.3457 -0.2775 -0.3726
 8295TIP3    H146300   6.412   1.445   0.405  2.6790 -0.0919 -0.6947
 8295TIP3    H246301   6.504   1.433   0.525  0.2391  0.6755  1.2929
 8296TIP3   OH246302   0.296   4.837   2.480  0.1264  1.0282 -0.4155
 8296TIP3    H146303   0.324   4.751   2.450 -1.3445  0.2805  0.3328
 8296TIP3    H246304   0.268   4.823   2.571  0.1880  2.3584 -0.1786
 8297TIP3   OH246305   4.304   5.643  11.569  0.0410 -0.2095  0.4264
 8297TIP3    H146306   4.358   5.576  11.612 -1.1941 -0.4792  1.5906
 8297TIP3    H246307   4.230   5.656  11.629 -1.6048 -0.4080 -1.5230
 8298TIP3   OH246308   4.574   0.934   0.395  0.1062  0.0221  0.7215
 8298TIP3    H146309   4.557   0.976   0.479 -0.5429  1.2391 -0.0054
 8298TIP3    H246310   4.656   0.972   0.364  0.4659 -0.5947  0.9042
 8299TIP3   OH246311   1.044   2.008  13.733 -0.0011 -0.2176 -0.2827
 8299TIP3    H146312   1.049   2.033  13.640 -4.4461 -0.7496 -0.8029
 8299TIP3    H246313   1.038   1.912  13.731 -0.5261 -0.2071  0.4836
 8300TIP3   OH246314   3.101   4.627  17.004 -0.0943  0.4739 -0.2770
 8300TIP3    H146315   3.076   4.680  16.927  0.3744 -0.0984 -0.8289
 8300TIP3    H246316   3.193   4.648  17.018  0.2347 -0.5961 -0.8193
 8301TIP3   OH246317   4.526   2.613  16.664  0.3512  0.1524 -0.3607
 8301TIP3    H146318   4.532   2.692  16.717  0.6632 -0.2682  0.2448
 8301TIP3    H246319   4.435   2.583  16.675  0.2872  0.3208 -0.4337
 8302TIP3   OH246320   5.834   4.497  16.367 -0.0357 -0.4909 -0.4725
 8302TIP3    H146321   5.782   4.515  16.288 -0.5351 -0.5015 -0.1520
 8302TIP3    H246322   5.803   4.410  16.396 -1.4762  0.4719  0.9863
 8303TIP3   OH246323   2.058   1.364   0.768 -0.3379 -0.4250 -0.1083
 8303TIP3    H146324   1.989   1.377   0.832  1.0574  3.0188  0.8240
 8303TIP3    H246325   2.013   1.364   0.683 -1.9420 -2.8852  0.7108
 8304TIP3   OH246326   6.158   0.415   2.596  0.3637  0.7300 -0.1385
 8304TIP3    H146327   6.233   0.358   2.577 -0.0747 -0.6616  2.1072
 8304TIP3    H246328   6.166   0.435   2.689 -1.7591  0.9838  0.0159
 8305TIP3   OH246329   2.896   2.382  15.446  0.2547 -0.0668 -0.6141
 8305TIP3    H146330   2.963   2.319  15.472  1.0463  1.0541  0.0679
 8305TIP3    H246331   2.886   2.368  15.352 -1.2310 -2.7901 -0.1344
 8306TIP3   OH246332   0.040   5.321   3.389  0.4132  0.1275 -0.2796
 8306TIP3    H146333   0.080   5.346   3.305 -0.7720  1.3048 -0.5202
 8306TIP3    H246334   0.020   5.405   3.431  0.8073 -0.4603  1.0966
 8307TIP3   OH246335   3.157   0.258  13.389 -0.5356 -0.5372 -0.1889
 8307TIP3    H146336   3.205   0.281  13.468 -1.4291 -0.2866  0.2796
 8307TIP3    H246337   3.080   0.211  13.420 -1.2239  0.1296 -0.8641
 8308TIP3   OH246338   0.278   2.500   1.605 -0.0998  0.3452 -1.1498
 8308TIP3    H146339   0.222   2.431   1.641  0.3630 -0.7347 -2.4666
 8308TIP3    H246340   0.360   2.492   1.654 -1.4127  2.6421  1.5550
 8309TIP3   OH246341   1.858   5.052   2.526  0.4126  0.1636  0.4398
 8309TIP3    H146342   1.950   5.077   2.520  1.1762 -2.5438 -0.0879
 8309TIP3    H246343   1.812   5.107   2.463  2.2247 -0.8538 -1.7977
 8310TIP3   OH246344   5.627   3.519  11.895 -0.4414  0.1006 -0.0909
 8310TIP3    H146345   5.670   3.449  11.945 -0.6246  0.9275  1.2247
 8310TIP3    H246346   5.678   3.597  11.914 -1.8735  0.8723  0.5892
 8311TIP3   OH246347   0.174   4.655   5.634 -0.1260  0.0095 -0.1582
 8311TIP3    H146348   0.217   4.574   5.662  0.5265 -0.2814 -1.9210
 8311TIP3    H246349   0.229   4.688   5.562 -1.2423  1.1838 -0.4969
 8312TIP3   OH246350   3.110   2.183  15.539  0.2352 -1.1233  0.0208
 8312TIP3    H146351   3.163   2.241  15.593 -3.3129  0.7861  1.5886
 8312TIP3    H246352   3.095   2.106  15.595  1.0988 -1.5541 -0.3304
 8313TIP3   OH246353   5.732   6.420   5.343 -0.6017  0.3380 -0.1468
 8313TIP3    H146354   5.755   6.368   5.420 -1.7027  1.3784  0.9053
 8313TIP3    H246355   5.757   6.509   5.365 -0.1105  0.5110 -1.3474
 8314TIP3   OH246356   3.739   0.728  13.762 -0.0796  0.4716  0.0332
 8314TIP3    H146357   3.671   0.746  13.827 -0.8713  0.2040 -0.7136
 8314TIP3    H246358   3.701   0.660  13.706  0.1463  1.4682 -1.3701
 8315TIP3   OH246359   3.999   6.128   4.863  0.2189  0.0643  0.1973
 8315TIP3    H146360   4.048   6.045   4.862  1.2021  0.6223  0.8819
 8315TIP3    H246361   4.065   6.194   4.883 -0.4884  1.0714 -0.7932
 8316TIP3   OH246362   1.181   4.291   0.443  0.3591  0.1362 -0.1250
 8316TIP3    H146363   1.175   4.322   0.352  1.2533 -0.6707 -0.4581
 8316TIP3    H246364   1.179   4.196   0.436 -1.6204  0.0772  0.8555
 8317TIP3   OH246365   2.156   6.057  14.075  0.6651 -0.5091  0.8407
 8317TIP3    H146366   2.113   5.973  14.090  1.8782 -0.9686  1.8340
 8317TIP3    H246367   2.239   6.050  14.122  0.1359  1.8108  2.2085
 8318TIP3   OH246368   2.414   2.728  16.534 -0.2250  0.1787 -0.0765
 8318TIP3    H146369   2.509   2.735  16.542 -0.0546 -0.2891 -1.4258
 8318TIP3    H246370   2.396   2.635  16.548 -0.2748 -0.0404 -1.4725
 8319TIP3   OH246371   1.259   6.207   3.220  0.1614  0.2778 -0.1208
 8319TIP3    H146372   1.293   6.262   3.150 -1.0267  0.8492 -0.2717
 8319TIP3    H246373   1.322   6.136   3.229  1.1623  1.0966 -0.6474
 8320TIP3   OH246374   1.008   3.409  17.091  0.2561  0.0677  0.4472
 8320TIP3    H146375   1.036   3.389  17.180  1.3531 -1.2458 -0.1741
 8320TIP3    H246376   0.935   3.350  17.073 -0.8162  1.2349  0.9241
 8321TIP3   OH246377   6.023   1.821   0.232  0.1706  0.1014 -0.5026
 8321TIP3    H146378   5.987   1.891   0.178 -0.5931  1.3166  1.5475
 8321TIP3    H246379   6.087   1.864   0.288 -0.8901 -0.6752  1.3580
 8322TIP3   OH246380   3.796   4.551   2.243 -0.0383  0.1460 -0.2288
 8322TIP3    H146381   3.776   4.460   2.266  1.9149  0.0784  1.3644
 8322TIP3    H246382   3.887   4.549   2.216 -0.0906  1.5902 -0.5336
 8323TIP3   OH246383   5.642   1.665   3.627  0.7178 -0.4542  0.0911
 8323TIP3    H146384   5.614   1.662   3.535 -0.2788  1.9359  0.3138
 8323TIP3    H246385   5.588   1.599   3.671  0.8061 -1.2072 -0.8996
 8324TIP3   OH246386   6.674   3.596  10.683 -0.5507 -0.4070  0.0823
 8324TIP3    H146387   6.676   3.588  10.588 -0.2642  0.1476  0.0433
 8324TIP3    H246388   6.657   3.507  10.714 -0.6109 -0.5936 -0.4836
 8325TIP3   OH246389   5.179   3.323  12.680  0.3583  0.3542  0.0441
 8325TIP3    H146390   5.109   3.303  12.742  0.3123 -0.5423 -0.2848
 8325TIP3    H246391   5.158   3.410  12.646  0.3036  0.7809  1.1681
 8326TIP3   OH246392   0.361   1.304  17.060 -0.5795  0.2869 -0.3377
 8326TIP3    H146393   0.448   1.340  17.043 -1.8742  2.8118 -1.9854
 8326TIP3    H246394   0.352   1.308  17.155  1.7422 -1.6691  0.0267
 8327TIP3   OH246395   1.111   2.034   5.371  0.0505  0.0279  0.1571
 8327TIP3    H146396   1.086   1.980   5.447 -0.3624  0.9851  0.7112
 8327TIP3    H246397   1.031   2.042   5.320  0.6678 -1.8227 -1.1621
 8328TIP3   OH246398   5.420   0.488  13.011 -0.1940 -0.1651 -0.4768
 8328TIP3    H146399   5.427   0.582  13.029 -1.0527 -0.0807 -0.6035
 8328TIP3    H246400   5.511   0.459  13.005  0.2011 -0.1037  3.4593
 8329TIP3   OH246401   6.163   1.905   1.073  0.0511  0.1924 -0.0746
 8329TIP3    H146402   6.075   1.902   1.112  1.0808 -1.6410  2.2590
 8329TIP3    H246403   6.152   1.865   0.987 -1.2289 -1.0901  0.6423
 8330TIP3   OH246404   4.385   5.312   6.563  0.2562  0.0759  0.0279
 8330TIP3    H146405   4.411   5.373   6.632 -0.7699  0.5302  0.0074
 8330TIP3    H246406   4.465   5.262   6.545  1.1369  1.4848 -0.0468
 8331TIP3   OH246407   6.065   3.124  15.974 -0.0299  0.4920  0.3018
 8331TIP3    H146408   5.994   3.067  16.002 -1.3477  1.1796 -1.5150
 8331TIP3    H246409   6.131   3.065  15.939 -0.9791 -0.0205 -0.6886
 8332TIP3   OH246410   4.495   1.588   3.443 -0.3157  0.4918 -0.4895
 8332TIP3    H146411   4.576   1.630   3.417 -1.0802  1.3579 -1.5181
 8332TIP3    H246412   4.432   1.660   3.449 -0.9608 -0.1431  0.4749
 8333TIP3   OH246413   1.790   6.483   0.261  0.1160  0.4442  0.0654
 8333TIP3    H146414   1.827   6.530   0.186  1.1833 -0.2891  0.1246
 8333TIP3    H246415   1.763   6.552   0.322  0.1938  1.0167 -0.5447
 8334TIP3   OH246416   2.713   4.733   3.274 -0.1159 -0.3035 -0.5600
 8334TIP3    H146417   2.735   4.641   3.259  0.8360 -0.2710  0.5807
 8334TIP3    H246418   2.726   4.745   3.368 -0.4088  0.9526 -0.6800
 8335TIP3   OH246419   4.148   6.265  16.102  0.3998 -0.0271 -0.4031
 8335TIP3    H146420   4.136   6.322  16.026  0.5529 -1.3403 -1.4285
 8335TIP3    H246421   4.173   6.180  16.065  0.6920 -0.6252  1.1238
 8336TIP3   OH246422   3.982   0.889  11.996 -0.2206  0.4795 -0.2281
 8336TIP3    H146423   3.913   0.930  11.945  1.3332  0.8995 -2.0750
 8336TIP3    H246424   3.993   0.802  11.955 -0.0443  0.2087  0.3913
 8337TIP3   OH246425   2.537   3.056   1.229  0.1461  0.6138  0.6195
 8337TIP3    H146426   2.481   2.979   1.222  1.8079 -0.4757 -1.1268
 8337TIP3    H246427   2.479   3.130   1.212 -0.9238 -0.4499 -0.4450
 8338TIP3   OH246428   5.279   6.296   4.317  0.2114  0.3371 -0.5843
 8338TIP3    H146429   5.321   6.217   4.353  2.0246  0.6974 -1.8616
 8338TIP3    H246430   5.306   6.298   4.225 -2.6621  0.5846 -1.4448
 8339TIP3   OH246431   0.018   0.499  15.470 -0.1014 -0.2541  0.2030
 8339TIP3    H146432   0.057   0.508  15.383 -0.2312 -1.4677  0.0124
 8339TIP3    H246433  -0.050   0.432  15.459 -2.8455  2.4245  0.3192
 8340TIP3   OH246434   0.783   2.964   2.308 -0.0593 -0.2055 -0.3667
 8340TIP3    H146435   0.773   2.948   2.402  0.8428  0.3834 -0.1638
 8340TIP3    H246436   0.878   2.968   2.295 -0.1556 -1.0899 -1.4380
 8341TIP3   OH246437   0.659   6.271  10.958  0.8174 -0.0500 -0.1579
 8341TIP3    H146438   0.622   6.223  11.032 -0.6998  1.3341  0.0132
 8341TIP3    H246439   0.697   6.203  10.902  2.3273 -1.0985  2.0379
 8342TIP3   OH246440   2.132   3.347  14.288 -0.0704  0.3119  0.0108
 8342TIP3    H146441   2.146   3.431  14.332 -0.4121 -0.0253  0.7831
 8342TIP3    H246442   2.210   3.335  14.234 -0.1635  1.2685 -0.3460
 8343TIP3   OH246443   1.036   5.246   5.120 -0.2318 -0.2139  0.5428
 8343TIP3    H146444   0.993   5.297   5.052 -0.9949 -1.0404  0.4037
 8343TIP3    H246445   0.968   5.231   5.186  0.4212  0.3389  1.3640
 8344TIP3   OH246446   4.532   1.263  14.784 -0.7308 -0.4138 -0.1230
 8344TIP3    H146447   4.514   1.206  14.709  0.2997  0.1434 -0.7906
 8344TIP3    H246448   4.615   1.231  14.819  0.7206  1.7414 -1.5203
 8345TIP3   OH246449   2.528   5.378  16.490 -0.0197  0.1520 -0.1445
 8345TIP3    H146450   2.531   5.426  16.572  0.9080  0.6039 -0.4354
 8345TIP3    H246451   2.617   5.382  16.456 -0.3636 -0.1434 -1.1100
 8346TIP3   OH246452   6.596   0.406  13.232  0.4384 -0.2882 -0.0351
 8346TIP3    H146453   6.515   0.408  13.182  0.1569 -2.6052  0.2615
 8346TIP3    H246454   6.664   0.393  13.166  0.5326  1.1428 -0.2323
 8347TIP3   OH246455   1.436   3.443  12.880 -0.9024  0.6716 -0.5328
 8347TIP3    H146456   1.408   3.534  12.874 -0.6164  0.7007 -1.5350
 8347TIP3    H246457   1.391   3.409  12.958 -1.5526  1.4749 -0.5483
 8348TIP3   OH246458   0.610   3.317  14.702  0.2762  0.5256 -0.1243
 8348TIP3    H146459   0.693   3.345  14.741 -0.4135  1.3011  0.8161
 8348TIP3    H246460   0.587   3.237  14.750  0.1046  0.7322  0.1415
 8349TIP3   OH246461   6.203   2.244   4.133  0.1528 -0.1195 -0.4491
 8349TIP3    H146462   6.230   2.227   4.223  1.2757  0.8541 -0.5837
 8349TIP3    H246463   6.183   2.337   4.130 -0.3643 -0.2423 -1.0880
 8350TIP3   OH246464   2.457   3.837   6.256  0.2412 -0.1579 -0.1278
 8350TIP3    H146465   2.529   3.899   6.251 -0.3212  0.5157  0.1406
 8350TIP3    H246466   2.443   3.809   6.165 -0.9148  1.7253 -0.5499
 8351TIP3   OH246467   5.131   4.964  14.916 -0.5097 -0.3784 -0.0349
 8351TIP3    H146468   5.199   4.896  14.921  1.1133  1.2942  1.2779
 8351TIP3    H246469   5.053   4.922  14.952 -0.1409 -2.2416 -1.3044
 8352TIP3   OH246470   3.239   1.138  11.774 -0.1306  0.9234 -0.0391
 8352TIP3    H146471   3.269   1.207  11.715  0.1279  2.0774  1.4063
 8352TIP3    H246472   3.164   1.177  11.819 -0.1483  0.1638  0.6014
 8353TIP3   OH246473   0.490   5.390  12.510 -0.0703  0.5018  0.2385
 8353TIP3    H146474   0.542   5.312  12.492 -0.2643  0.2714  0.6855
 8353TIP3    H246475   0.548   5.463  12.485  0.0593  0.2192 -0.3097
 8354TIP3   OH246476   2.141   4.261   2.395 -0.1472  0.6987  0.8311
 8354TIP3    H146477   2.146   4.169   2.418  1.1860  1.2635  2.9269
 8354TIP3    H246478   2.050   4.285   2.412 -0.6258 -0.3531 -0.2283
 8355TIP3   OH246479   2.083   6.213  15.426  0.3680 -0.5366 -0.3280
 8355TIP3    H146480   2.033   6.137  15.456  0.7991 -1.0623 -0.9298
 8355TIP3    H246481   2.018   6.283  15.419 -0.3773 -1.3217 -1.4947
 8356TIP3   OH246482   5.431   3.290   3.777  0.0359  0.0965 -0.2450
 8356TIP3    H146483   5.512   3.338   3.791  0.4793 -0.3875 -1.1194
 8356TIP3    H246484   5.393   3.330   3.699 -1.0462  0.9583  0.7096
 8357TIP3   OH246485   1.775   4.732   3.698 -0.4881 -0.2682  0.3737
 8357TIP3    H146486   1.688   4.740   3.736 -0.9734  1.0131 -0.9668
 8357TIP3    H246487   1.760   4.720   3.604  0.7153 -2.6868  0.4738
 8358TIP3   OH246488   4.730   2.457   5.663 -0.0650 -0.2886  0.0927
 8358TIP3    H146489   4.759   2.491   5.578 -3.1031  1.4220 -0.3442
 8358TIP3    H246490   4.811   2.438   5.710  1.7313  2.3049 -1.7981
 8359TIP3   OH246491   1.840   0.914  16.163 -0.4372  0.0139 -0.7861
 8359TIP3    H146492   1.896   0.990  16.179 -0.7131  0.7036 -2.8507
 8359TIP3    H246493   1.810   0.887  16.250  0.6957  1.4753  0.0826
 8360TIP3   OH246494   5.775   5.771  11.903 -0.3024  0.7473 -0.0980
 8360TIP3    H146495   5.814   5.855  11.929 -1.2882  0.8819  0.9872
 8360TIP3    H246496   5.709   5.794  11.839 -1.1425  0.8898  0.8103
 8361TIP3   OH246497   2.202   1.403  15.494 -0.0648 -1.0412 -0.2023
 8361TIP3    H146498   2.148   1.392  15.572  1.0044  0.1257  0.7182
 8361TIP3    H246499   2.160   1.348  15.428 -2.3171 -0.2576  0.5245
 8362TIP3   OH246500   3.554   1.087  11.976 -0.3572  0.4824  0.1160
 8362TIP3    H146501   3.475   1.059  11.930 -0.3839 -0.5498  0.7815
 8362TIP3    H246502   3.553   1.039  12.058  1.2761 -0.0270 -0.1374
 8363TIP3   OH246503   3.903   2.019   3.620  0.5006  0.2085 -0.0236
 8363TIP3    H146504   3.934   1.940   3.575 -1.0206 -0.7039  0.4738
 8363TIP3    H246505   3.814   1.997   3.648 -0.0137  2.1802 -0.0374
 8364TIP3   OH246506   4.451   5.613  15.611  0.3133  0.3521  0.2225
 8364TIP3    H146507   4.438   5.627  15.517 -1.5683  1.6494  0.6492
 8364TIP3    H246508   4.519   5.676  15.635 -0.5284  1.3408  0.0639
 8365TIP3   OH246509   3.282   0.587   3.283 -0.1729 -0.8023  0.9045
 8365TIP3    H146510   3.213   0.523   3.265 -0.1434 -0.0472 -2.0249
 8365TIP3    H246511   3.360   0.550   3.241 -0.2971  1.3953 -1.3785
 8366TIP3   OH246512   6.549   1.300   0.781 -0.9325 -0.3825 -0.1494
 8366TIP3    H146513   6.573   1.306   0.689  0.5949 -3.3918 -0.0142
 8366TIP3    H246514   6.617   1.349   0.827 -0.0113 -1.3810 -0.4275
 8367TIP3   OH246515   5.711   6.621  12.134 -0.3369  0.4115  0.4622
 8367TIP3    H146516   5.752   6.537  12.113 -0.8106  0.4272 -0.5550
 8367TIP3    H246517   5.751   6.647  12.217 -0.9737 -1.3433  1.3497
 8368TIP3   OH246518   1.833   5.416   5.176 -0.0305  0.3443  0.2714
 8368TIP3    H146519   1.891   5.453   5.243 -0.8314  2.9278 -0.4049
 8368TIP3    H246520   1.890   5.402   5.100  0.2140  0.4401  0.4363
 8369TIP3   OH246521   2.038   1.401   4.341 -0.6616  0.3604  0.3090
 8369TIP3    H146522   1.958   1.452   4.349 -1.4871 -0.4808 -2.1142
 8369TIP3    H246523   2.087   1.443   4.271 -0.0010 -0.4390  0.2758
 8370TIP3   OH246524   2.669   4.640   1.436  0.1945  0.4599 -0.5229
 8370TIP3    H146525   2.630   4.597   1.512 -0.6567  0.7795 -0.7639
 8370TIP3    H246526   2.682   4.731   1.463  3.2621 -0.2233  0.4477
 8371TIP3   OH246527   4.930   2.408  11.231  0.3690 -0.2685  0.0908
 8371TIP3    H146528   4.843   2.371  11.221 -0.7516  2.4855 -0.8587
 8371TIP3    H246529   4.989   2.334  11.222 -1.7224 -1.7203 -2.3965
 8372TIP3   OH246530   4.963   5.586  16.054  0.2259  0.3633 -0.2162
 8372TIP3    H146531   4.933   5.518  15.994 -0.9356  1.7895 -1.2888
 8372TIP3    H246532   5.028   5.542  16.109 -1.9991 -2.1643  0.5271
 8373TIP3   OH246533   3.132   5.489  13.651 -0.4233  0.1430  0.2378
 8373TIP3    H146534   3.212   5.442  13.625 -0.4390 -0.4271  1.1859
 8373TIP3    H246535   3.145   5.508  13.745 -1.0760  0.7110  0.2186
 8374TIP3   OH246536   3.956   6.467  11.411 -0.1490 -0.3299 -0.2758
 8374TIP3    H146537   3.888   6.436  11.351  0.3783 -1.0090 -0.5333
 8374TIP3    H246538   3.912   6.475  11.495 -0.8305  0.3681 -0.6919
 8375TIP3   OH246539   4.135   0.497   5.638 -0.0880  0.0167 -0.0659
 8375TIP3    H146540   4.120   0.592   5.634 -0.9993 -0.1865 -1.9535
 8375TIP3    H246541   4.155   0.480   5.730 -2.7404  1.6174  0.8722
 8376TIP3   OH246542   1.849   5.163   3.554  0.4326 -0.1849 -0.1527
 8376TIP3    H146543   1.884   5.243   3.593  1.5248 -1.4916  1.6533
 8376TIP3    H246544   1.772   5.191   3.505  0.3435  1.8640  1.1082
 8377TIP3   OH246545   4.284   5.372   3.977 -0.5542 -0.2627  0.1683
 8377TIP3    H146546   4.278   5.277   3.987  1.3919 -0.6782 -2.1845
 8377TIP3    H246547   4.221   5.393   3.908 -0.1431 -0.0012 -0.1279
 8378TIP3   OH246548   0.086   5.460   2.297 -0.1686 -0.2811 -0.1318
 8378TIP3    H146549   0.087   5.501   2.383  1.9211  0.1780 -0.3418
 8378TIP3    H246550   0.146   5.386   2.305  0.3495 -0.0028 -1.2791
 8379TIP3   OH246551   6.104   2.371   1.845  0.4383 -0.2021  0.7624
 8379TIP3    H146552   6.156   2.316   1.787  2.2374  0.5650  1.6204
 8379TIP3    H246553   6.143   2.357   1.932 -0.2918  0.9699  1.2883
 8380TIP3   OH246554   4.770   3.182   0.151 -0.4033 -0.7046  0.3035
 8380TIP3    H146555   4.814   3.252   0.199 -1.1891  0.7380 -1.0530
 8380TIP3    H246556   4.837   3.114   0.141  1.1659  0.9614 -0.7179
 8381TIP3   OH246557   4.084   4.695  16.724 -0.4711 -0.1768  0.5303
 8381TIP3    H146558   4.083   4.650  16.640  0.9534 -1.8925  1.3841
 8381TIP3    H246559   4.145   4.644  16.778 -1.6427  0.6495  2.7200
 8382TIP3   OH246560   1.343   1.493  16.063  0.0718  0.4350  0.5327
 8382TIP3    H146561   1.374   1.554  15.996 -0.2508  0.7768  0.6944
 8382TIP3    H246562   1.275   1.541  16.110 -2.2912 -1.0990 -1.2394
 8383TIP3   OH246563   6.500   6.261  15.880  0.3034  0.2814 -0.3093
 8383TIP3    H146564   6.584   6.220  15.859 -0.5476 -0.8318 -1.6759
 8383TIP3    H246565   6.522   6.352  15.901  1.6871  0.4397 -2.2822
 8384TIP3   OH246566   1.187   3.722   2.571 -0.3050 -0.4777  0.1999
 8384TIP3    H146567   1.132   3.797   2.594 -1.8443 -1.5537  0.1180
 8384TIP3    H246568   1.261   3.760   2.524 -2.5485  0.7486 -2.4725
 8385TIP3   OH246569   3.898   1.335  11.407  0.0997  0.3654  0.0183
 8385TIP3    H146570   3.887   1.263  11.469 -0.1571  0.1477 -0.2760
 8385TIP3    H246571   3.980   1.377  11.433  0.1698  0.0641  0.2908
 8386TIP3   OH246572   3.959   1.811   1.854  1.1322 -0.2969 -0.0822
 8386TIP3    H146573   3.869   1.787   1.831  0.8992  0.3682  0.1302
 8386TIP3    H246574   4.013   1.748   1.807  0.6246  0.5237 -1.8135
 8387TIP3   OH246575   2.196   4.760   2.689 -0.6585 -0.1846  0.2949
 8387TIP3    H146576   2.256   4.832   2.674 -0.1567 -0.7490 -0.4609
 8387TIP3    H246577   2.110   4.796   2.671 -0.2739 -0.2197 -1.7826
 8388TIP3   OH246578   4.914   1.765  15.826 -0.1796  0.0128  0.1101
 8388TIP3    H146579   4.964   1.844  15.804  1.3845 -1.2018 -0.7774
 8388TIP3    H246580   4.849   1.796  15.889 -0.2100  2.2005 -0.9334
 8389TIP3   OH246581   6.175   5.005  13.147  1.0648 -0.9275  0.8195
 8389TIP3    H146582   6.264   5.028  13.174  1.3622 -1.9227  0.7202
 8389TIP3    H246583   6.124   5.085  13.159  2.0065 -0.3132  0.7372
 8390TIP3   OH246584   0.468   0.911   2.056  0.3809  0.0656 -0.2278
 8390TIP3    H146585   0.451   0.987   2.111  1.2919  0.5327 -0.5690
 8390TIP3    H246586   0.417   0.927   1.976  0.7620  0.4414 -0.3988
 8391TIP3   OH246587   4.904   4.870  13.744 -0.1248 -0.0289  0.0248
 8391TIP3    H146588   4.855   4.863  13.663  1.7252 -0.7924 -1.0567
 8391TIP3    H246589   4.944   4.957  13.741 -0.3168  0.0707  0.2848
 8392TIP3   OH246590   1.809   4.922  13.829  0.0698 -0.3492 -0.4116
 8392TIP3    H146591   1.820   4.844  13.883  2.4607 -0.0278 -0.3821
 8392TIP3    H246592   1.885   4.977  13.851  0.0959  0.5850 -2.7577
 8393TIP3   OH246593   0.081   1.226   0.908 -0.1234 -0.2056  0.4209
 8393TIP3    H146594   0.015   1.200   0.843 -0.4172 -0.7467  0.9275
 8393TIP3    H246595   0.164   1.204   0.867 -0.2464  0.6252 -0.2854
 8394TIP3   OH246596   0.465   4.831   1.190  0.2992  0.1476 -0.8526
 8394TIP3    H146597   0.394   4.882   1.230  0.0959  0.7013 -1.8929
 8394TIP3    H246598   0.444   4.740   1.211 -0.6239  0.3183 -1.0111
 8395TIP3   OH246599   3.360   3.121   5.825 -0.0558  0.2466 -0.6171
 8395TIP3    H146600   3.290   3.171   5.785 -0.3175  0.3260 -0.0664
 8395TIP3    H246601   3.386   3.172   5.902  0.6757  0.2722 -0.8728
 8396TIP3   OH246602   6.450   4.685   0.612 -0.1402  0.0028 -0.7997
 8396TIP3    H146603   6.444   4.615   0.548  0.7518 -0.4078 -0.4503
 8396TIP3    H246604   6.418   4.646   0.694  1.2526 -0.3008 -0.3858
 8397TIP3   OH246605   5.510   1.346  14.865  0.3079  0.0544 -0.6775
 8397TIP3    H146606   5.532   1.261  14.828 -2.6962 -1.2196  0.3389
 8397TIP3    H246607   5.582   1.365  14.926  1.4005 -1.3618 -1.4932
 8398TIP3   OH246608   4.619   3.739   6.513  0.1151  0.0990  0.4172
 8398TIP3    H146609   4.529   3.771   6.505 -0.1696 -1.1209 -1.6109
 8398TIP3    H246610   4.636   3.695   6.430  1.6491 -2.1155  1.8581
 8399TIP3   OH246611   4.457   2.097  13.876 -0.1392 -0.4153  0.3083
 8399TIP3    H146612   4.367   2.085  13.906  0.5746 -3.1231  1.4364
 8399TIP3    H246613   4.511   2.057  13.944  1.8724 -0.0187 -1.0061
 8400TIP3   OH246614   4.183   0.187   5.115 -0.1436  0.4991  0.1120
 8400TIP3    H146615   4.093   0.172   5.084  0.6599 -1.1611 -1.5122
 8400TIP3    H246616   4.236   0.125   5.065  2.0308  2.0623  0.4287
 8401TIP3   OH246617   3.899   1.950  11.657  0.0901  0.0378  0.2392
 8401TIP3    H146618   3.852   2.033  11.653 -0.0723  0.0418  1.9340
 8401TIP3    H246619   3.837   1.889  11.696  0.7907 -0.4384  0.6240
 8402TIP3   OH246620   5.206   1.553  16.214  0.4155 -0.2955  0.0937
 8402TIP3    H146621   5.162   1.471  16.194  0.3233 -0.5543  1.3019
 8402TIP3    H246622   5.138   1.606  16.256  0.9399 -0.2501  0.8879
 8403TIP3   OH246623   1.814   0.327  16.348  0.2002  0.0247 -0.1290
 8403TIP3    H146624   1.821   0.255  16.285 -1.8989  0.3504 -0.7453
 8403TIP3    H246625   1.904   0.358  16.359  0.7886 -1.0874 -1.7277
 8404TIP3   OH246626   3.947   3.586   0.078  0.0425 -0.1044  0.0831
 8404TIP3    H146627   3.992   3.641   0.014  3.1136 -3.7681 -1.1574
 8404TIP3    H246628   3.872   3.550   0.031 -0.1292  0.5156 -0.1166
 8405TIP3   OH246629   1.944   1.039  13.537 -0.3584  0.0440 -0.0642
 8405TIP3    H146630   1.992   1.002  13.463 -0.5254 -1.2577  0.4637
 8405TIP3    H246631   1.886   0.969  13.565 -0.4227  0.5921  1.1928
 8406TIP3   OH246632   5.898   5.767  12.824  0.5681 -0.1178  0.1895
 8406TIP3    H146633   5.993   5.772  12.815  0.6490 -0.9568  0.4990
 8406TIP3    H246634   5.879   5.812  12.906  1.0234 -2.4885  1.6731
 8407TIP3   OH246635   3.434   3.450   5.049 -0.6004 -0.1381  0.0164
 8407TIP3    H146636   3.377   3.378   5.022 -1.2805  0.3033  0.2600
 8407TIP3    H246637   3.382   3.529   5.035  0.3491  0.3596 -0.8146
 8408TIP3   OH246638   6.173   5.323  10.722  0.1659  0.1504 -0.3155
 8408TIP3    H146639   6.220   5.354  10.645 -0.9996 -2.2573 -2.0506
 8408TIP3    H246640   6.084   5.357  10.712 -0.2622 -1.0370 -0.5731
 8409TIP3   OH246641   4.696   2.555  14.752 -0.2908 -0.1495  0.8529
 8409TIP3    H146642   4.636   2.580  14.822 -1.3596 -1.9157  0.5782
 8409TIP3    H246643   4.669   2.467  14.726  0.0415  0.4859 -1.8215
 8410TIP3   OH246644   2.150   0.767   2.758 -0.2373  0.0816  0.1315
 8410TIP3    H146645   2.120   0.694   2.705 -1.7227  1.3627 -0.8539
 8410TIP3    H246646   2.183   0.831   2.694 -0.8459  1.1072  0.8186
 8411TIP3   OH246647   4.588   4.172  13.201  0.0807  0.0170 -0.0101
 8411TIP3    H146648   4.673   4.143  13.232 -0.2108 -1.1925 -0.2961
 8411TIP3    H246649   4.607   4.222  13.121  0.4490 -1.1253 -0.6484
 8412TIP3   OH246650   5.471   2.659  13.281  0.1522  0.2686 -0.6272
 8412TIP3    H146651   5.477   2.717  13.357  1.1864 -1.1345  0.3813
 8412TIP3    H246652   5.417   2.586  13.311  2.1161 -1.2190 -0.6252
 8413TIP3   OH246653   4.557   0.094  11.156  0.1201 -0.2358 -0.7817
 8413TIP3    H146654   4.499   0.169  11.144  1.9837  0.9308 -2.7871
 8413TIP3    H246655   4.528   0.030  11.090 -0.1391 -0.4584 -0.4560
 8414TIP3   OH246656   1.561   3.815  12.346  0.1721 -0.4821  0.3014
 8414TIP3    H146657   1.601   3.809  12.433 -2.3029 -1.6521  1.4133
 8414TIP3    H246658   1.473   3.849  12.363  0.3392  1.2105 -1.9812
 8415TIP3   OH246659   2.556   2.867  13.803 -0.1921  0.0138  0.1627
 8415TIP3    H146660   2.501   2.876  13.881 -0.3770  0.6107 -0.0300
 8415TIP3    H246661   2.629   2.926  13.818  0.5697 -1.0274  0.5616
 8416TIP3   OH246662   2.624   2.530   0.203 -0.1340  0.5715 -0.3378
 8416TIP3    H146663   2.620   2.477   0.124  1.2981 -0.3829  0.2040
 8416TIP3    H246664   2.589   2.615   0.178  1.0701  0.5333 -2.1998
 8417TIP3   OH246665   4.664   4.534   6.157  0.0798 -0.2551  0.3139
 8417TIP3    H146666   4.692   4.573   6.075  0.1063 -1.7340 -0.4060
 8417TIP3    H246667   4.652   4.441   6.137  0.0537 -0.6409  1.9679
 8418TIP3   OH246668   1.767   3.692   3.855  0.0480 -0.4424 -0.4727
 8418TIP3    H146669   1.822   3.656   3.925  1.2318 -1.0752 -1.7075
 8418TIP3    H246670   1.710   3.755   3.900  1.6871  0.1314  0.8594
 8419TIP3   OH246671   4.770   0.464  17.113 -0.0109 -0.0898 -0.0755
 8419TIP3    H146672   4.840   0.529  17.103  0.0320 -0.2173 -0.6158
 8419TIP3    H246673   4.796   0.393  17.055 -1.3507  0.4980 -1.4132
 8420TIP3   OH246674   2.319   4.997   5.665 -0.2044  0.2693  0.1518
 8420TIP3    H146675   2.343   4.933   5.732  1.4287  0.8975  0.1989
 8420TIP3    H246676   2.286   4.944   5.593 -2.5935 -0.3721  1.6730
 8421TIP3   OH246677   4.392   4.657   6.126 -0.2309 -0.3424 -0.1468
 8421TIP3    H146678   4.392   4.688   6.217  0.8361  0.0609 -0.2855
 8421TIP3    H246679   4.481   4.672   6.095 -0.4254 -1.0604 -1.0699
 8422TIP3   OH246680   3.703   0.541  16.926 -0.0835  0.3980  0.3422
 8422TIP3    H146681   3.702   0.457  16.971  1.8660  0.2149  0.0664
 8422TIP3    H246682   3.790   0.577  16.943  0.7682  0.2850 -3.2937
 8423TIP3   OH246683   6.233   4.752   2.279 -0.2787  0.1725 -0.0446
 8423TIP3    H146684   6.152   4.709   2.252 -0.5656 -0.5459  1.8961
 8423TIP3    H246685   6.300   4.684   2.271 -0.2360  0.1717  0.2963
 8424TIP3   OH246686   6.320   3.649   6.524  0.0970  0.0167  0.4430
 8424TIP3    H146687   6.271   3.670   6.603 -1.6029 -2.1044 -0.0294
 8424TIP3    H246688   6.358   3.733   6.497 -0.5374  1.0515  2.6426
 8425TIP3   OH246689   2.150   1.364  17.125  0.6378  0.5371 -0.2610
 8425TIP3    H146690   2.185   1.432  17.182 -1.2180  0.8982  0.4874
 8425TIP3    H246691   2.144   1.406  17.039 -1.4758  1.6761  0.4158
 8426TIP3   OH246692   1.250   0.989  15.080  0.2528  0.6630  0.0320
 8426TIP3    H146693   1.301   1.004  15.000 -0.3971 -0.3954 -0.5938
 8426TIP3    H246694   1.253   0.894  15.093  1.6768  0.9557  2.1655
 8427TIP3   OH246695   4.508   0.308   3.124  0.4658  0.2647  0.3141
 8427TIP3    H146696   4.491   0.314   3.218  0.2535 -0.5138  0.3250
 8427TIP3    H246697   4.559   0.228   3.114 -0.4824 -0.2583 -0.3730
 8428TIP3   OH246698   1.187   4.481  14.097  0.3421  0.0605 -0.1726
 8428TIP3    H146699   1.132   4.403  14.089  1.2835 -0.7419  0.9950
 8428TIP3    H246700   1.130   4.547  14.134  0.3498 -1.0217  1.8719
 8429TIP3   OH246701   2.019   2.589   3.140  0.6157 -0.1076  0.1336
 8429TIP3    H146702   1.935   2.544   3.131  0.5618 -0.0334  0.2627
 8429TIP3    H246703   2.052   2.560   3.225 -0.1426  1.3159  0.9231
 8430TIP3   OH246704   5.140   3.348   2.677 -0.1941 -0.2603 -0.0547
 8430TIP3    H146705   5.219   3.300   2.700 -0.1205  0.0487  0.3420
 8430TIP3    H246706   5.167   3.406   2.606  0.0581  0.2078  0.4235
 8431TIP3   OH246707   4.858   4.223  15.966 -0.0638  0.4708 -0.2635
 8431TIP3    H146708   4.865   4.314  15.937  1.9707 -0.4184 -2.7028
 8431TIP3    H246709   4.948   4.197  15.984 -0.6600 -1.0214  0.6317
 8432TIP3   OH246710   5.560   1.463  10.999  0.1525 -0.1479  0.2623
 8432TIP3    H146711   5.501   1.398  11.037 -0.6946 -0.6136 -1.8067
 8432TIP3    H246712   5.568   1.438  10.907  0.4752  2.2032 -0.3824
 8433TIP3   OH246713   6.157   2.605   0.417  0.2521 -0.2250  0.1920
 8433TIP3    H146714   6.237   2.619   0.366 -0.7005 -2.7411 -2.1776
 8433TIP3    H246715   6.093   2.666   0.380  0.2197 -0.4228 -0.0827
 8434TIP3   OH246716   3.696   2.930   1.075  0.3229  0.3286  0.6435
 8434TIP3    H146717   3.784   2.967   1.066  0.1243  0.4150 -1.0803
 8434TIP3    H246718   3.638   3.006   1.072 -0.0869 -0.0607 -2.9466
 8435TIP3   OH246719   0.738   2.489  17.113  0.5314  0.4505 -0.2401
 8435TIP3    H146720   0.653   2.533  17.111  0.2759 -0.0248  0.0235
 8435TIP3    H246721   0.788   2.535  17.180  1.0833  1.8293 -1.5879
 8436TIP3   OH246722   6.461   4.092  12.877 -0.3516  0.6743  1.1416
 8436TIP3    H146723   6.520   4.028  12.836 -2.7576 -0.4833 -0.6450
 8436TIP3    H246724   6.504   4.176  12.864  1.1458 -0.1942  0.3121
 8437TIP3   OH246725   4.307   5.510  12.845  0.3871 -0.5849  0.3516
 8437TIP3    H146726   4.318   5.469  12.931  0.5523  0.7828  0.9960
 8437TIP3    H246727   4.393   5.546  12.825  0.5035 -1.4170 -0.6690
 8438TIP3   OH246728   0.195   5.515   6.617  0.3425  0.5519 -0.2938
 8438TIP3    H146729   0.117   5.466   6.593  0.8740 -0.7112  0.4882
 8438TIP3    H246730   0.162   5.587   6.671 -0.0834 -1.5643  2.3953
 8439TIP3   OH246731   5.000   0.780  14.266  0.2233  0.4894 -0.1597
 8439TIP3    H146732   4.937   0.721  14.306  0.3351  1.5709  1.7270
 8439TIP3    H246733   5.014   0.746  14.178 -1.3510 -0.9949  0.1443
 8440TIP3   OH246734   1.003   2.339  12.486 -0.1602 -0.4205 -0.2958
 8440TIP3    H146735   1.015   2.345  12.391 -1.1015 -0.3139 -0.4136
 8440TIP3    H246736   0.989   2.246  12.502 -0.1090 -0.4247 -0.2744
 8441TIP3   OH246737   1.913   4.982   0.807  0.2993 -0.5265 -0.0741
 8441TIP3    H146738   1.902   4.975   0.902 -0.4266 -2.2994 -0.2820
 8441TIP3    H246739   1.965   4.905   0.783 -0.0928 -0.4392 -1.2107
 8442TIP3   OH246740   5.795   6.721   5.467  0.0909  1.2698  0.3759
 8442TIP3    H146741   5.730   6.767   5.414  0.2568  1.0375 -0.0317
 8442TIP3    H246742   5.879   6.755   5.436  0.2037  0.8696  0.2384
 8443TIP3   OH246743   6.492   6.545   1.528 -0.2143 -0.1516 -0.5261
 8443TIP3    H146744   6.546   6.622   1.511 -2.1587  1.5627  0.9772
 8443TIP3    H246745   6.520   6.515   1.615  0.1929 -0.8697 -0.8991
 8444TIP3   OH246746   3.889   1.317  10.910 -0.5962  0.7890  0.1797
 8444TIP3    H146747   3.837   1.241  10.885 -1.5883  1.2665  0.7460
 8444TIP3    H246748   3.849   1.390  10.862 -0.4766  1.1670  0.6472
 8445TIP3   OH246749   4.968   0.327   4.387 -0.5939 -0.0091 -0.0936
 8445TIP3    H146750   4.931   0.267   4.451  0.2811  0.0525  0.4736
 8445TIP3    H246751   5.058   0.341   4.415 -0.0295 -0.3892 -1.6224
 8446TIP3   OH246752   2.072   5.146   0.531  0.3753 -0.7059 -0.3285
 8446TIP3    H146753   2.036   5.232   0.554  1.5642 -0.0340 -0.8951
 8446TIP3    H246754   1.996   5.090   0.522 -0.3933  0.1445  0.6317
 8447TIP3   OH246755   1.200   2.503   3.794 -0.7052  0.0252  0.2769
 8447TIP3    H146756   1.265   2.438   3.768  1.1012  0.5289  3.2548
 8447TIP3    H246757   1.189   2.559   3.717  2.1090 -0.3427 -0.4374
 8448TIP3   OH246758   5.040   6.002  14.898  0.2145 -0.2513  0.2564
 8448TIP3    H146759   5.016   5.916  14.934 -2.4329  1.1434  1.9897
 8448TIP3    H246760   5.080   6.048  14.972  0.7768  0.3446 -0.4140
 8449TIP3   OH246761   6.246   3.877  16.270 -0.1196  0.0526  0.5352
 8449TIP3    H146762   6.317   3.813  16.276  0.0826  0.2634  0.4044
 8449TIP3    H246763   6.273   3.948  16.328 -0.6881 -0.3084  1.2389
 8450TIP3   OH246764   0.609   1.851   0.606 -0.1289 -0.2119 -0.0091
 8450TIP3    H146765   0.693   1.843   0.562 -0.6429  0.1351 -1.0792
 8450TIP3    H246766   0.629   1.891   0.690  0.6894  0.5411 -0.5581
 8451TIP3   OH246767   4.630   1.525  13.537 -0.2367  0.0366  0.0637
 8451TIP3    H146768   4.569   1.473  13.485 -1.9647  1.5500  0.5504
 8451TIP3    H246769   4.631   1.484  13.623  1.7078 -1.7433 -0.7572
 8452TIP3   OH246770   1.910   2.042  14.371  0.7452 -0.2463  0.9337
 8452TIP3    H146771   1.845   2.064  14.304  1.6056  0.0279  0.1677
 8452TIP3    H246772   1.888   1.953  14.397 -0.2154  0.0091  1.0215
 8453TIP3   OH246773   2.879   0.856   0.182  0.3582 -0.4714  0.1002
 8453TIP3    H146774   2.944   0.870   0.113 -1.4475  0.5491 -1.4760
 8453TIP3    H246775   2.806   0.814   0.136 -1.6505  1.9689  0.9798
 8454TIP3   OH246776   3.257   3.504  14.974 -0.8105 -0.0543 -0.0328
 8454TIP3    H146777   3.179   3.554  14.999 -0.9794 -0.3230 -0.0239
 8454TIP3    H246778   3.226   3.414  14.965  0.1945 -0.8063  3.4213
 8455TIP3   OH246779   2.358   6.592  13.963  0.1949  0.7253  0.0070
 8455TIP3    H146780   2.371   6.499  13.946 -0.2509  0.9976 -1.8725
 8455TIP3    H246781   2.366   6.600  14.058 -0.0344 -1.2697  0.2093
 8456TIP3   OH246782   2.338   2.265   0.796 -0.4210  0.3825 -0.0751
 8456TIP3    H146783   2.250   2.231   0.778 -0.6250  1.5199 -1.3122
 8456TIP3    H246784   2.324   2.356   0.820  0.4894  0.8173 -1.1418
 8457TIP3   OH246785   4.417   0.963   5.358 -1.1843 -0.8662  0.5981
 8457TIP3    H146786   4.498   0.931   5.318 -0.2476  0.3519  1.4871
 8457TIP3    H246787   4.405   0.907   5.435  0.2107  0.5777  1.8978
 8458TIP3   OH246788   3.127   1.126  13.997 -0.5845 -0.1339  0.2263
 8458TIP3    H146789   3.116   1.057  14.063 -2.6600  0.0818  0.1084
 8458TIP3    H246790   3.105   1.207  14.042  1.6097  0.4574  0.2901
 8459TIP3   OH246791   1.967   1.672  14.825 -0.0684  0.6024 -0.2907
 8459TIP3    H146792   1.935   1.760  14.841  0.4622  0.6278  0.6166
 8459TIP3    H246793   2.026   1.681  14.751  1.6561  1.3649  1.1563
 8460TIP3   OH246794   0.291   6.283  14.038  0.3720  0.9335  1.0244
 8460TIP3    H146795   0.287   6.289  13.943  0.6497  0.2303  0.9636
 8460TIP3    H246796   0.322   6.369  14.066 -0.3712  1.3616  0.5272
 8461TIP3   OH246797   1.977   0.686  15.657  0.4955 -0.1455  0.5438
 8461TIP3    H146798   2.044   0.743  15.694  1.9887 -2.3882  1.3435
 8461TIP3    H246799   1.986   0.604  15.704 -0.1647 -1.7852 -2.1068
 8462TIP3   OH246800   1.231   4.197  13.620  0.3408 -0.0454 -0.1042
 8462TIP3    H146801   1.215   4.248  13.700  2.1526  2.5402 -1.3031
 8462TIP3    H246802   1.151   4.209  13.568  0.6555  1.4027 -0.2693
 8463TIP3   OH246803   1.844   4.984  16.046  0.0833 -0.1795  0.0062
 8463TIP3    H146804   1.860   5.074  16.076 -0.0381  0.5068 -1.9423
 8463TIP3    H246805   1.924   4.960  15.999 -1.1293  0.0815 -2.2262
 8464TIP3   OH246806   6.122   0.332   5.310 -0.0061 -0.3777  0.4297
 8464TIP3    H146807   6.075   0.408   5.344  0.7065  0.0258  0.5047
 8464TIP3    H246808   6.210   0.339   5.347  0.5136 -0.4119 -0.7712
 8465TIP3   OH246809   2.491   6.358   5.363 -0.2463 -0.5162 -0.1776
 8465TIP3    H146810   2.523   6.376   5.452  0.5374 -3.1777  0.1121
 8465TIP3    H246811   2.446   6.438   5.337  0.4565  0.6861  2.2103
 8466TIP3   OH246812   1.074   1.165  12.592  0.8290  0.3745  0.4977
 8466TIP3    H146813   1.011   1.102  12.557  0.5385 -0.3948  2.3358
 8466TIP3    H246814   1.152   1.154  12.538 -0.3654  0.8399 -1.3522
 8467TIP3   OH246815   2.014   2.701   0.751  0.1701 -0.5531 -0.0608
 8467TIP3    H146816   1.929   2.665   0.726 -1.1854  1.9175  0.7824
 8467TIP3    H246817   2.052   2.734   0.669 -0.0402 -0.9351 -0.3113
 8468TIP3   OH246818   5.437   3.872   1.178 -0.0542  0.1138 -0.1846
 8468TIP3    H146819   5.361   3.815   1.194  0.6365 -0.7561  0.0261
 8468TIP3    H246820   5.504   3.840   1.238  0.5575  0.7499 -0.5180
 8469TIP3   OH246821   4.337   2.253  16.843 -0.4669  0.4998 -0.1102
 8469TIP3    H146822   4.279   2.220  16.912 -0.0704  0.8031  0.3607
 8469TIP3    H246823   4.349   2.346  16.863  2.6873 -0.2109  1.5847
 8470TIP3   OH246824   0.145   0.144  10.987 -0.2061 -0.0710 -0.1444
 8470TIP3    H146825   0.218   0.092  11.021 -0.3475 -0.8743 -1.0873
 8470TIP3    H246826   0.091   0.162  11.064 -0.5481 -1.9318  0.0683
 8471TIP3   OH246827   5.650   4.505   0.984  0.0605 -0.2459 -0.2560
 8471TIP3    H146828   5.578   4.523   1.043  1.7929 -1.0425  2.1773
 8471TIP3    H246829   5.689   4.591   0.966  0.4623 -0.1473  1.0323
 8472TIP3   OH246830   4.920   6.246  14.073  0.1116 -0.9054  0.0388
 8472TIP3    H146831   4.908   6.156  14.042  1.1787 -0.8471 -0.5391
 8472TIP3    H246832   4.874   6.300  14.009  1.9202 -0.8209 -1.2131
 8473TIP3   OH246833   0.230   2.983   5.540  0.1297 -0.2050  0.2461
 8473TIP3    H146834   0.181   3.063   5.521 -0.6923 -0.6438  0.4995
 8473TIP3    H246835   0.163   2.918   5.560  0.8106 -0.8592  0.4217
 8474TIP3   OH246836   4.193   4.108  12.281 -0.2642  0.1074 -0.3531
 8474TIP3    H146837   4.230   4.051  12.348  0.1057  0.9243  0.1430
 8474TIP3    H246838   4.099   4.090  12.284 -0.2051 -0.1453  0.1176
 8475TIP3   OH246839   4.847   5.856  14.446 -0.0438 -0.4132 -0.4130
 8475TIP3    H146840   4.807   5.910  14.377  1.6343  0.6290 -0.5917
 8475TIP3    H246841   4.941   5.859  14.427  0.4178 -0.3052  1.7958
 8476TIP3   OH246842   2.001   1.574  15.835  0.1372  0.0671 -0.2822
 8476TIP3    H146843   1.906   1.579  15.839  0.0960 -0.6097 -0.3879
 8476TIP3    H246844   2.020   1.482  15.814  0.8166  0.1530 -0.0660
 8477TIP3   OH246845   5.591   2.125   0.657 -0.5153  0.5556  0.6540
 8477TIP3    H146846   5.618   2.175   0.580 -1.4852  2.9521  1.7824
 8477TIP3    H246847   5.532   2.058   0.623  0.5038  0.4299 -0.8854
 8478TIP3   OH246848   5.562   3.012   5.660  0.3133 -0.2566  0.2482
 8478TIP3    H146849   5.573   3.018   5.755 -0.5069 -0.9173  0.3930
 8478TIP3    H246850   5.566   2.918   5.641 -1.7632 -0.3152 -0.0678
 8479TIP3   OH246851   0.242   3.851   2.543 -0.4427 -0.0668  0.5437
 8479TIP3    H146852   0.308   3.824   2.479  1.0970  0.6642  1.7870
 8479TIP3    H246853   0.211   3.769   2.582 -0.5050 -0.4285 -0.2454
 8480TIP3   OH246854   6.597   3.863  15.428  0.4412  0.1180 -0.2371
 8480TIP3    H146855   6.507   3.849  15.458  0.9526 -0.7591  0.9033
 8480TIP3    H246856   6.616   3.953  15.452  0.5465 -0.3078  1.3045
 8481TIP3   OH246857   0.817   1.754   1.985 -0.7678  0.9290 -0.2902
 8481TIP3    H146858   0.812   1.733   1.891  0.9194  0.0489 -0.2035
 8481TIP3    H246859   0.777   1.678   2.028  3.4023 -1.2703 -0.0780
 8482TIP3   OH246860   1.652   3.241  17.207  0.0040 -0.3406 -0.6649
 8482TIP3    H146861   1.675   3.215  17.118 -0.1580 -0.0690 -0.7877
 8482TIP3    H246862   1.697   3.324  17.220 -0.4204 -0.1076 -0.6908
 8483TIP3   OH246863   2.873   4.885   3.113 -0.0308  0.2080 -0.5969
 8483TIP3    H146864   2.817   4.852   3.183 -1.0647 -0.9508 -1.9277
 8483TIP3    H246865   2.812   4.912   3.044  0.9605  1.3355 -1.0438
 8484TIP3   OH246866   4.354   5.053  10.733 -0.0267 -0.1830 -0.1864
 8484TIP3    H146867   4.372   5.144  10.708  1.6257 -0.2704  0.6579
 8484TIP3    H246868   4.277   5.029  10.681 -0.1971  1.5476 -0.7568
 8485TIP3   OH246869   2.973   6.073   4.414  0.1454 -0.5365 -0.3567
 8485TIP3    H146870   2.982   5.990   4.459  1.9309 -0.4290 -0.4829
 8485TIP3    H246871   2.904   6.058   4.349 -0.1391 -1.6474  0.1916
 8486TIP3   OH246872   0.580   3.024   0.369  0.1116  1.0608 -0.4867
 8486TIP3    H146873   0.532   3.105   0.388 -1.0824  0.1016  0.7225
 8486TIP3    H246874   0.532   2.984   0.297 -0.6251  0.3449  0.3934
 8487TIP3   OH246875   1.862   0.316   1.275 -0.0786  0.5134 -0.0388
 8487TIP3    H146876   1.860   0.336   1.368 -1.9360  0.4919 -0.0574
 8487TIP3    H246877   1.922   0.242   1.268  0.5225  0.8902  1.0595
 8488TIP3   OH246878   1.721   1.514  15.574 -0.0609 -0.2456  0.1555
 8488TIP3    H146879   1.742   1.598  15.614  0.0844 -0.2739  0.1398
 8488TIP3    H246880   1.650   1.479  15.628 -0.1435 -0.0995  0.1423
 8489TIP3   OH246881   3.527   3.375   3.068  0.3592  0.0554  0.0846
 8489TIP3    H146882   3.530   3.365   2.973 -1.7098 -1.4004  0.1314
 8489TIP3    H246883   3.500   3.289   3.100 -1.6963  1.2913  1.7943
 8490TIP3   OH246884   5.282   3.248  11.976 -0.4029  0.0413  0.3861
 8490TIP3    H146885   5.326   3.305  12.040  0.7304 -0.8409  0.4022
 8490TIP3    H246886   5.334   3.168  11.976 -0.3341  0.0719 -1.7162
 8491TIP3   OH246887   3.537   2.158  15.230 -0.1626  0.0994  0.0311
 8491TIP3    H146888   3.549   2.135  15.138 -0.8246  0.2976 -0.1067
 8491TIP3    H246889   3.606   2.110  15.276  1.1077  1.1608 -0.7343
 8492TIP3   OH246890   3.383   2.542   2.378  0.2915 -0.0191  0.0528
 8492TIP3    H146891   3.291   2.558   2.360  0.2250  1.0101  1.2487
 8492TIP3    H246892   3.388   2.531   2.473  1.1406 -1.9014 -0.1726
 8493TIP3   OH246893   2.547   1.667   5.010 -0.0842 -0.2911 -0.1265
 8493TIP3    H146894   2.473   1.728   5.021  1.5663  1.4835  1.4957
 8493TIP3    H246895   2.555   1.658   4.915 -0.0714  2.4768 -0.4514
 8494TIP3   OH246896   0.922   4.160  15.726  0.4810 -0.1088 -0.2556
 8494TIP3    H146897   0.888   4.249  15.726  0.8569  0.0323 -0.5828
 8494TIP3    H246898   0.843   4.105  15.723  0.2295  0.1975  0.6684
 8495TIP3   OH246899   4.322   1.547   2.243 -0.0955 -0.6088 -0.1850
 8495TIP3    H146900   4.227   1.554   2.236 -0.1216 -0.2924  0.4889
 8495TIP3    H246901   4.338   1.531   2.336  0.5879  0.6247 -0.0872
 8496TIP3   OH246902   3.591   5.914  15.501 -0.2976 -0.4592 -0.3794
 8496TIP3    H146903   3.624   6.004  15.504 -0.8458 -0.2830  3.2409
 8496TIP3    H246904   3.523   5.916  15.433 -0.3576  1.9163 -0.3037
 8497TIP3   OH246905   5.707   4.772   4.283  0.9962 -0.0557  0.3854
 8497TIP3    H146906   5.780   4.712   4.269 -1.3474 -3.1693  0.9377
 8497TIP3    H246907   5.655   4.731   4.352 -1.2614  2.0909  0.0548
 8498TIP3   OH246908   6.466   1.056   6.252 -0.8598  0.7931 -0.1797
 8498TIP3    H146909   6.483   1.149   6.265 -1.5810  1.0168 -0.8040
 8498TIP3    H246910   6.527   1.030   6.183  1.0906  0.2181  1.6996
 8499TIP3   OH246911   4.986   1.728  12.173 -0.1080 -0.5612  0.4392
 8499TIP3    H146912   5.040   1.717  12.095  0.8914  0.6409  0.9365
 8499TIP3    H246913   5.004   1.650  12.226  0.2918 -0.6973  0.1042
 8500TIP3   OH246914   0.284   0.586   2.286 -0.1526 -0.1604 -0.4667
 8500TIP3    H146915   0.372   0.613   2.259 -0.1292  0.5198  0.2845
 8500TIP3    H246916   0.230   0.664   2.276  0.6277  1.2328  4.9679
 8501TIP3   OH246917   6.744   5.315   4.824  0.0587  0.4250 -0.5621
 8501TIP3    H146918   6.750   5.410   4.818 -0.7061  0.5511  0.6038
 8501TIP3    H246919   6.651   5.297   4.836  0.2737 -0.4298 -0.1432
 8502TIP3   OH246920   4.164   0.308  14.379 -0.3673  0.0289 -0.7376
 8502TIP3    H146921   4.167   0.322  14.474 -2.2040  0.1293 -0.6879
 8502TIP3    H246922   4.202   0.220  14.367  0.3045  0.2049  0.0274
 8503TIP3   OH246923   1.960   4.799   2.578  0.2531 -0.5457 -0.5566
 8503TIP3    H146924   1.959   4.752   2.495 -1.0207 -2.2412  0.4008
 8503TIP3    H246925   1.910   4.879   2.561 -1.2377 -1.5590 -1.0406
 8504TIP3   OH246926   1.876   3.448  14.417  0.2386 -0.0830  1.2127
 8504TIP3    H146927   1.891   3.387  14.489 -0.5851 -1.7357  0.0191
 8504TIP3    H246928   1.962   3.459  14.377 -0.1988 -3.3575 -0.7916
 8505TIP3   OH246929   6.056   1.623  11.349  0.2812  0.2569  0.3934
 8505TIP3    H146930   6.019   1.697  11.398 -0.5043 -0.6173  1.1228
 8505TIP3    H246931   5.989   1.601  11.284  1.0454  0.9836 -0.6755
 8506TIP3   OH246932   2.644   0.289   5.590  0.3151  0.1759 -0.1908
 8506TIP3    H146933   2.621   0.199   5.566  0.9167  0.3280 -1.3234
 8506TIP3    H246934   2.575   0.343   5.552  0.4939  0.2858 -0.3608
 8507TIP3   OH246935   5.409   2.555  17.026  0.2036 -0.6222  0.4073
 8507TIP3    H146936   5.347   2.482  17.029 -2.1857  1.3516  1.2504
 8507TIP3    H246937   5.356   2.629  16.995  1.5255  1.6950  3.4086
 8508TIP3   OH246938   4.141   1.441   2.797 -0.0771 -0.3508 -0.5048
 8508TIP3    H146939   4.225   1.446   2.750  1.1150  0.4938  1.6581
 8508TIP3    H246940   4.107   1.530   2.794 -0.2307 -0.4000 -0.1631
 8509TIP3   OH246941   4.598   0.784  12.570  0.2872  0.4553 -0.1587
 8509TIP3    H146942   4.681   0.820  12.602  0.2513 -3.1853  4.6091
 8509TIP3    H246943   4.622   0.734  12.493  2.4835 -0.0238  0.7978
 8510TIP3   OH246944   2.007   3.672   0.032 -0.1074  0.2343 -0.4254
 8510TIP3    H146945   1.963   3.636  -0.045 -1.5370 -0.8215  0.8537
 8510TIP3    H246946   1.991   3.766   0.027 -0.2128  0.1691 -1.3974
 8511TIP3   OH246947   2.040   5.390  13.587  0.1497  0.4595 -0.3868
 8511TIP3    H146948   2.119   5.401  13.534  0.1484  0.1079 -0.4595
 8511TIP3    H246949   1.988   5.326  13.539  0.0973  0.2246 -0.0106
 8512TIP3   OH246950   4.702   2.926   1.953  0.4677 -0.1642 -0.1663
 8512TIP3    H146951   4.650   2.937   2.032 -0.8983 -3.1006 -0.6157
 8512TIP3    H246952   4.639   2.904   1.885  2.0104 -1.2231 -1.2852
 8513TIP3   OH246953   3.371   4.943   1.449  0.2771  0.1076 -0.1902
 8513TIP3    H146954   3.370   4.863   1.396 -3.1294 -0.7330  1.0112
 8513TIP3    H246955   3.297   4.995   1.416  0.8422  1.5863  0.8094
 8514TIP3   OH246956   0.746   3.009   5.577 -0.0203 -0.0958 -0.0521
 8514TIP3    H146957   0.727   3.093   5.535 -0.5167 -0.7248 -1.1116
 8514TIP3    H246958   0.812   2.969   5.521  0.7579 -0.0887  0.8632
 8515TIP3   OH246959   5.477   3.186   0.451  0.1954 -0.3285 -0.4885
 8515TIP3    H146960   5.457   3.202   0.359 -0.8226 -0.9973 -0.3876
 8515TIP3    H246961   5.572   3.170   0.453  0.0814 -1.1445 -1.5256
 8516TIP3   OH246962   6.648   1.971   2.758  0.0572 -0.0221  0.4820
 8516TIP3    H146963   6.646   1.959   2.853 -1.8526  1.4139  0.6462
 8516TIP3    H246964   6.557   1.963   2.730  0.7124 -1.3920 -1.3850
 8517TIP3   OH246965   1.851   1.440  15.363  0.0555 -0.8759  0.4214
 8517TIP3    H146966   1.800   1.493  15.425 -0.3078  0.0204 -0.6406
 8517TIP3    H246967   1.867   1.498  15.289  1.8197 -1.4529  0.3203
 8518TIP3   OH246968   0.869   0.281   2.291 -0.5392  0.0855 -0.6067
 8518TIP3    H146969   0.800   0.342   2.266 -1.1703 -0.2268  0.3407
 8518TIP3    H246970   0.880   0.225   2.214 -1.4290  0.0646 -0.7295
 8519TIP3   OH246971   6.429   4.315  14.963  0.3681  0.0673  0.4617
 8519TIP3    H146972   6.416   4.400  15.004  0.3584 -0.0621  0.7247
 8519TIP3    H246973   6.372   4.316  14.886  1.0408  0.6458 -0.0419
 8520TIP3   OH246974   4.671   4.347  11.551  0.0237  0.1655 -0.1631
 8520TIP3    H146975   4.766   4.355  11.560 -0.1719  0.8109  1.6068
 8520TIP3    H246976   4.640   4.332  11.640 -1.4661 -0.8740 -0.8386
 8521TIP3   OH246977   4.897   1.637  14.339 -0.0724  0.1776  0.3522
 8521TIP3    H146978   4.917   1.692  14.264 -1.2381 -0.2408 -0.2807
 8521TIP3    H246979   4.981   1.599  14.365  0.5390  1.3333  0.0718
 8522TIP3   OH246980   2.306   5.382  15.748  0.1138  0.0514  0.1752
 8522TIP3    H146981   2.220   5.392  15.707  1.1485  2.6702 -1.4612
 8522TIP3    H246982   2.358   5.336  15.682  0.7745  1.1052 -0.0534
 8523TIP3   OH246983   6.739   6.717  13.373  0.0600  0.1622  0.1539
 8523TIP3    H146984   6.825   6.687  13.403 -0.1465  0.0202  0.6042
 8523TIP3    H246985   6.683   6.711  13.450 -0.0733  1.3567  0.1536
 8524TIP3   OH246986   0.800   4.665  12.300  0.1812 -0.7915 -0.0893
 8524TIP3    H146987   0.867   4.615  12.348  0.8893 -0.3946 -0.6640
 8524TIP3    H246988   0.848   4.734  12.256 -0.8149  0.4461  0.7344
 8525TIP3   OH246989   3.311   0.756   3.784 -0.2535  0.9029 -0.4358
 8525TIP3    H146990   3.269   0.707   3.854  0.2008  1.5895  0.3252
 8525TIP3    H246991   3.372   0.694   3.744 -1.1239  0.2525 -0.7941
 8526TIP3   OH246992   4.751   6.153  12.017 -0.8298 -0.2493  0.2948
 8526TIP3    H146993   4.660   6.128  12.036 -1.0679  1.6489  1.8146
 8526TIP3    H246994   4.801   6.115  12.089 -0.7409  0.7366  0.7536
 8527TIP3   OH246995   3.050   5.286  16.392 -0.1297  0.2696 -0.5611
 8527TIP3    H146996   3.076   5.273  16.483 -0.6901  1.7720 -0.1796
 8527TIP3    H246997   3.131   5.310  16.347 -0.1390  1.0492 -0.1584
 8528TIP3   OH246998   3.046   1.963  15.667 -0.5853  0.0694  0.1846
 8528TIP3    H146999   3.044   1.880  15.619  0.2612  0.8760 -1.3105
 8528TIP3    H247000   3.123   1.956  15.724 -0.2924 -0.0324 -0.2184
 8529TIP3   OH247001   0.310   5.473   0.118  0.3379 -0.1180 -0.8604
 8529TIP3    H147002   0.279   5.469   0.209  1.8559  1.8885 -0.2196
 8529TIP3    H247003   0.260   5.545   0.079  0.8128  0.0640 -1.1422
 8530TIP3   OH247004   2.622   4.623   4.525 -0.1688 -0.4293 -0.2725
 8530TIP3    H147005   2.610   4.706   4.478 -0.0626 -1.3530 -2.0000
 8530TIP3    H247006   2.542   4.574   4.507 -0.5508 -0.4338  1.3543
 8531TIP3   OH247007   6.752   6.393  15.142  0.0196 -0.6647 -0.9214
 8531TIP3    H147008   6.718   6.456  15.206  1.7430 -0.3268 -0.3211
 8531TIP3    H247009   6.699   6.315  15.156  1.5815 -1.2610  2.2746
 8532TIP3   OH247010   3.409   0.910  16.970 -0.7096  0.9047 -0.6535
 8532TIP3    H147011   3.457   0.975  17.021 -0.4842 -0.8821  1.5157
 8532TIP3    H247012   3.473   0.877  16.907  0.1131  0.5375  0.3570
 8533TIP3   OH247013   2.299   4.385  12.326 -0.0789 -0.6566  0.2227
 8533TIP3    H147014   2.229   4.335  12.284  0.7289 -2.7001  1.2911
 8533TIP3    H247015   2.265   4.405  12.414  0.0182 -0.1967  0.1590
 8534TIP3   OH247016   5.869   2.838   4.563  0.2578 -0.1103 -0.0172
 8534TIP3    H147017   5.819   2.915   4.536 -0.5619 -0.3204  0.8727
 8534TIP3    H247018   5.835   2.767   4.509 -0.6163 -0.3119  0.7927
 8535TIP3   OH247019   6.362   5.663   4.438  0.3569  0.5528  0.0161
 8535TIP3    H147020   6.388   5.750   4.468 -1.2792  0.2826  2.2563
 8535TIP3    H247021   6.310   5.679   4.359 -0.0351  1.5997  0.4900
 8536TIP3   OH247022   0.233   5.867   5.144  0.2740 -0.4651  0.4788
 8536TIP3    H147023   0.299   5.866   5.075  1.0346 -0.5282  1.1964
 8536TIP3    H247024   0.280   5.839   5.223  0.3000  3.0217  1.7779
 8537TIP3   OH247025   0.209   2.922   4.890 -0.3770 -0.1482  0.4421
 8537TIP3    H147026   0.205   2.886   4.801  0.2950 -0.1324  0.3987
 8537TIP3    H247027   0.140   2.987   4.893 -0.5763 -0.3361  0.0125
 8538TIP3   OH247028   0.330   5.407  14.223  0.0057 -0.1146  0.0577
 8538TIP3    H147029   0.267   5.434  14.156  0.0185 -1.6381 -0.5767
 8538TIP3    H247030   0.326   5.477  14.289 -1.0224  0.6962 -0.8458
 8539TIP3   OH247031   1.113   1.352  16.223 -0.2297  0.1968 -0.3609
 8539TIP3    H147032   1.187   1.296  16.199 -0.6397 -0.2489 -0.5967
 8539TIP3    H247033   1.114   1.355  16.318 -0.0807 -0.0563 -0.3532
 8540TIP3   OH247034   0.198   3.646   2.860  0.3371  0.2049  0.1640
 8540TIP3    H147035   0.247   3.600   2.792 -1.3587 -2.4534  0.6498
 8540TIP3    H247036   0.221   3.600   2.941  0.1379  1.5227  0.9914
 8541TIP3   OH247037   0.903   2.890  14.654 -0.4634  0.1755  0.2710
 8541TIP3    H147038   0.900   2.805  14.698  3.2764  1.0166  2.4247
 8541TIP3    H247039   0.925   2.869  14.563  0.0307 -1.1862  0.6916
 8542TIP3   OH247040   0.687   4.879  14.007 -0.2853 -0.2448 -0.0576
 8542TIP3    H147041   0.618   4.834  13.959  0.7792  0.2840 -2.1300
 8542TIP3    H247042   0.766   4.830  13.988  0.3959  0.7957  0.0316
 8543TIP3   OH247043   4.252   3.377   4.557 -0.5358  0.0573 -0.2054
 8543TIP3    H147044   4.163   3.342   4.566 -0.4149 -0.2453 -0.1539
 8543TIP3    H247045   4.293   3.360   4.642 -0.3443 -0.0523 -0.3170
 8544TIP3   OH247046   3.948   1.608   2.519 -0.1207 -0.5594  0.0246
 8544TIP3    H147047   4.024   1.550   2.523 -0.3006 -0.9433 -1.5339
 8544TIP3    H247048   3.970   1.669   2.448 -0.5815  0.3311  0.6445
 8545TIP3   OH247049   1.110   3.611  10.907 -0.1408 -0.3682 -0.0631
 8545TIP3    H147050   1.053   3.591  10.981  0.6852 -2.8573 -0.0710
 8545TIP3    H247051   1.053   3.656  10.844 -2.0453 -2.6037  0.0108
 8546TIP3   OH247052   5.998   4.901   1.057  0.5201  0.5010 -0.4143
 8546TIP3    H147053   5.984   4.889   1.151  0.3017 -1.0652 -0.6216
 8546TIP3    H247054   6.074   4.959   1.051  0.4889  0.6701  0.7374
 8547TIP3   OH247055   4.825   0.571  14.328  0.3414  1.5040 -0.4012
 8547TIP3    H147056   4.824   0.498  14.390  1.5392  1.6009 -0.2519
 8547TIP3    H247057   4.792   0.534  14.246 -0.7967  1.2560  0.1696
 8548TIP3   OH247058   3.115   0.602  12.417 -0.5712  0.1895 -0.3651
 8548TIP3    H147059   3.145   0.592  12.327  0.9826  1.2324  0.0127
 8548TIP3    H247060   3.117   0.513  12.453 -2.0214 -0.3458 -1.5998
 8549TIP3   OH247061   6.080   0.627   0.344 -0.7810  0.1184  0.2196
 8549TIP3    H147062   6.087   0.560   0.276 -1.9672  0.2249 -0.0326
 8549TIP3    H247063   6.161   0.677   0.338 -0.6537 -0.1988 -0.7665
 8550TIP3   OH247064   5.165   6.346  15.402 -0.7224 -0.0269  0.1167
 8550TIP3    H147065   5.252   6.323  15.369 -1.8801 -2.1905 -1.5424
 8550TIP3    H247066   5.154   6.291  15.480  0.0140  1.4494  1.2953
 8551TIP3   OH247067   5.806   3.977  14.799 -0.5533  0.6566  0.4188
 8551TIP3    H147068   5.743   3.905  14.788 -0.5308  0.7500 -0.3493
 8551TIP3    H247069   5.866   3.945  14.866 -0.8035  0.1378  0.4046
 8552TIP3   OH247070   4.101   1.424   0.771  0.0808 -0.3835 -0.4520
 8552TIP3    H147071   4.064   1.445   0.685 -1.0170 -1.6583 -0.3119
 8552TIP3    H247072   4.109   1.329   0.771  1.0013 -0.3124  0.4940
 8553TIP3   OH247073   3.494   6.449   5.946 -0.2811  0.0671  0.0012
 8553TIP3    H147074   3.452   6.505   5.880  0.0850 -0.8669 -1.0548
 8553TIP3    H247075   3.422   6.397   5.982 -0.0628 -1.7129 -1.9863
 8554TIP3   OH247076   1.725   1.955  14.766  0.5545 -0.2419 -0.0946
 8554TIP3    H147077   1.794   1.977  14.828  0.4019 -1.5777  0.5778
 8554TIP3    H247078   1.735   2.018  14.695 -0.1054  2.1790  1.8836
 8555TIP3   OH247079   0.880   2.593   1.349 -0.1322  0.0777 -0.2193
 8555TIP3    H147080   0.829   2.638   1.417  0.0160  0.2125 -0.1956
 8555TIP3    H247081   0.851   2.634   1.267 -0.7629 -0.5166 -0.2963
 8556TIP3   OH247082   2.099   6.044   5.141  0.2490  0.7563 -0.2568
 8556TIP3    H147083   2.184   6.055   5.185  0.6057  0.5874 -0.8834
 8556TIP3    H247084   2.120   5.994   5.062 -0.2775  1.6001 -0.9400
 8557TIP3   OH247085   5.213   5.293   3.542  0.6063 -0.0101 -0.2383
 8557TIP3    H147086   5.208   5.232   3.616 -2.3779  0.9969  0.4725
 8557TIP3    H247087   5.289   5.348   3.563 -0.1127  0.1913  2.0694
 8558TIP3   OH247088   1.121   5.078   0.035  0.1508  0.0441  0.1939
 8558TIP3    H147089   1.078   5.160   0.058 -1.3889 -1.0334  1.2624
 8558TIP3    H247090   1.155   5.045   0.118  1.3843 -0.0798 -0.3395
 8559TIP3   OH247091   5.513   5.220   1.832 -0.6548  0.3104 -0.2752
 8559TIP3    H147092   5.587   5.236   1.773 -0.8407 -0.1608 -0.6445
 8559TIP3    H247093   5.538   5.262   1.915  0.4104 -0.5749 -0.1328
 8560TIP3   OH247094   6.167   1.995   3.986  0.2032 -0.1402 -0.5330
 8560TIP3    H147095   6.201   2.084   3.977  0.3183 -0.1598 -0.2841
 8560TIP3    H247096   6.072   2.005   3.987  0.2346  0.1148  0.9462
 8561TIP3   OH247097   3.717   6.416   3.622  0.4204 -0.1116 -0.0193
 8561TIP3    H147098   3.762   6.331   3.617  2.0248  0.5067  2.7121
 8561TIP3    H247099   3.637   6.397   3.671  1.4355  0.1413  1.8008
 8562TIP3   OH247100   2.594   0.987  11.395  0.2296 -0.0339  0.0561
 8562TIP3    H147101   2.580   1.014  11.486 -0.8170 -1.1959  0.2550
 8562TIP3    H247102   2.526   1.033  11.345  0.6521  0.4156 -0.1079
 8563TIP3   OH247103   2.242   2.241  14.128  0.3151  0.4337 -0.0752
 8563TIP3    H147104   2.230   2.204  14.040 -1.3478  0.9891 -0.0974
 8563TIP3    H247105   2.257   2.335  14.112 -0.8076  0.6743  0.2767
 8564TIP3   OH247106   4.708   4.556  11.957  0.2119 -0.3618  0.7022
 8564TIP3    H147107   4.689   4.482  12.014  1.0243 -0.6115  0.6557
 8564TIP3    H247108   4.796   4.539  11.925 -0.1261 -0.0878 -0.4139
 8565TIP3   OH247109   2.452   5.616   3.013  0.0096  0.3476 -0.6334
 8565TIP3    H147110   2.365   5.594   3.047  0.4944  0.4594  0.6925
 8565TIP3    H247111   2.434   5.667   2.934 -1.1438  0.9432 -0.0064
 8566TIP3   OH247112   4.078   2.004   6.314  0.3567  0.2536  0.2007
 8566TIP3    H147113   4.154   2.012   6.256 -0.9629  1.8538 -1.3146
 8566TIP3    H247114   4.035   2.089   6.310 -1.1405 -0.4180  1.6075
 8567TIP3   OH247115   3.200   0.389  14.055 -0.3838 -0.5305 -0.6768
 8567TIP3    H147116   3.254   0.322  14.098 -0.9092 -0.8153 -0.4666
 8567TIP3    H247117   3.168   0.444  14.126 -2.0222 -1.5573 -0.6039
 8568TIP3   OH247118   0.933   0.075   5.757 -0.0659  0.4072  0.7657
 8568TIP3    H147119   0.880   0.094   5.680  1.6667  1.0060 -0.3175
 8568TIP3    H247120   0.917   0.148   5.816 -0.1995  0.7372  0.3201
 8569TIP3   OH247121   1.318   4.552   1.389  0.5397  0.4337  0.1440
 8569TIP3    H147122   1.352   4.572   1.302 -2.3017  0.7519 -0.9589
 8569TIP3    H247123   1.289   4.637   1.423  2.2573  0.4263  1.7225
 8570TIP3   OH247124   3.140   6.447   1.854 -0.0045 -0.1886  0.5253
 8570TIP3    H147125   3.131   6.412   1.943 -0.1895  0.0687  0.6075
 8570TIP3    H247126   3.226   6.489   1.853 -0.9577  1.8196  1.2763
 8571TIP3   OH247127   0.619   0.025  12.013 -0.4203 -0.4673  0.1157
 8571TIP3    H147128   0.656   0.058  11.931 -0.5723  1.1465  0.6865
 8571TIP3    H247129   0.641  -0.068  12.013  1.6883  0.0066 -0.6147
 8572TIP3   OH247130   4.333   3.916  15.548 -0.9000  0.5103  0.8368
 8572TIP3    H147131   4.330   3.942  15.640 -0.2520 -0.9750  1.2760
 8572TIP3    H247132   4.425   3.898  15.530 -0.9476  1.2835 -0.2481
 8573TIP3   OH247133   5.796   4.194  14.568  0.2804  0.3065  0.4618
 8573TIP3    H147134   5.734   4.166  14.635  0.5693  0.4639  0.7936
 8573TIP3    H247135   5.832   4.277  14.601  1.9737 -0.6567  1.1148
 8574TIP3   OH247136   2.107   6.201  11.728 -0.5331  0.2480 -0.6566
 8574TIP3    H147137   2.083   6.259  11.655  0.2519  0.8438 -0.4519
 8574TIP3    H247138   2.114   6.114  11.689 -0.8861  0.4347 -1.1422
 8575TIP3   OH247139   4.184   3.383  12.010 -0.1584 -0.5384 -0.3305
 8575TIP3    H147140   4.182   3.310  12.071  1.0306 -1.2133 -1.0836
 8575TIP3    H247141   4.273   3.382  11.974  0.2411  1.9670  0.4764
 8576TIP3   OH247142   1.200   4.864   1.241 -0.4218 -0.1738 -0.1756
 8576TIP3    H147143   1.213   4.855   1.335  0.1284 -0.0625 -0.2411
 8576TIP3    H247144   1.167   4.779   1.212  0.0096 -0.4005  0.0133
 8577TIP3   OH247145   5.924   0.180  15.960  0.1722 -0.1813 -0.4330
 8577TIP3    H147146   5.989   0.248  15.976  1.4889 -1.7523  1.2537
 8577TIP3    H247147   5.840   0.225  15.965  1.0493  1.4895 -0.3782
 8578TIP3   OH247148   3.148   4.097  15.667  0.1298  0.1082 -0.6268
 8578TIP3    H147149   3.186   4.143  15.592 -0.7948  1.3272 -0.3565
 8578TIP3    H247150   3.177   4.006  15.656  2.0613  0.7487 -1.1084
 8579TIP3   OH247151   5.943   1.332   2.461 -0.0506  1.1136  0.3820
 8579TIP3    H147152   5.932   1.418   2.420  1.6621  0.8868 -0.5860
 8579TIP3    H247153   6.038   1.320   2.468 -0.2687 -0.8086  0.2851
 8580TIP3   OH247154   3.404   3.881   2.537 -0.6999  0.4183 -0.3398
 8580TIP3    H147155   3.370   3.867   2.449  0.7699  2.2653 -1.2316
 8580TIP3    H247156   3.373   3.968   2.562  0.6806  0.8039  0.0955
 8581TIP3   OH247157   2.855   4.884  16.418  0.1945  0.0356  0.1797
 8581TIP3    H147158   2.926   4.822  16.437  0.3553 -0.1784 -1.0823
 8581TIP3    H247159   2.832   4.921  16.503  1.3438 -0.4215  0.6999
 8582TIP3   OH247160   0.364   4.367   1.857  0.0884 -0.1617 -0.1791
 8582TIP3    H147161   0.354   4.462   1.870  2.1366  0.0976 -0.2991
 8582TIP3    H247162   0.277   4.337   1.833 -0.8043  1.5465  0.7991
 8583TIP3   OH247163   5.646   2.455  15.524 -0.6856 -0.0617  0.6671
 8583TIP3    H147164   5.576   2.483  15.583  0.5218  0.2726  1.9529
 8583TIP3    H247165   5.708   2.409  15.580 -0.6612 -1.8192 -0.7409
 8584TIP3   OH247166   4.071   4.802  15.999 -0.2061 -0.0458  0.0608
 8584TIP3    H147167   4.132   4.728  15.992 -2.1002 -1.8068  1.6914
 8584TIP3    H247168   4.071   4.841  15.911  2.2313 -0.8083 -0.3356
 8585TIP3   OH247169   4.488   4.313  16.625  0.0896 -0.0027 -0.1183
 8585TIP3    H147170   4.442   4.229  16.614  2.5476 -1.4869  0.4180
 8585TIP3    H247171   4.552   4.315  16.554  0.7113  0.9468  0.4583
 8586TIP3   OH247172   3.964   1.822  14.423  0.6812  0.2299  0.8542
 8586TIP3    H147173   4.012   1.747  14.387  0.0033  1.0862 -1.9395
 8586TIP3    H247174   4.026   1.895  14.417  0.1340  0.6479  0.2347
 8587TIP3   OH247175   4.353   0.723  14.621  0.3604  0.1965  0.2134
 8587TIP3    H147176   4.421   0.734  14.555 -1.0131 -0.2586 -1.3260
 8587TIP3    H247177   4.318   0.811  14.634 -0.3031  0.0970 -0.7480
 8588TIP3   OH247178   4.465   5.797  15.986  0.3369  0.4083  0.2849
 8588TIP3    H147179   4.408   5.751  16.048 -0.3822  1.0250  0.0969
 8588TIP3    H247180   4.546   5.811  16.034  0.2519 -0.2777  0.6393
 8589TIP3   OH247181   0.701   2.547  15.115  0.7572 -0.0682  0.3335
 8589TIP3    H147182   0.626   2.605  15.128  0.6495 -0.1544  0.0925
 8589TIP3    H247183   0.684   2.503  15.032  1.5369  0.6123 -0.2034
 8590TIP3   OH247184   0.176   5.875  14.340  0.5372 -0.4000 -0.3292
 8590TIP3    H147185   0.159   5.947  14.279  1.6602 -0.7029 -1.0223
 8590TIP3    H247186   0.129   5.899  14.419 -1.2724 -0.1914 -1.4487
 8591TIP3   OH247187   6.545   0.115   4.758  0.0855  0.3584 -0.0045
 8591TIP3    H147188   6.632   0.076   4.772  0.4771  0.9893 -0.6738
 8591TIP3    H247189   6.550   0.201   4.800 -0.3105  0.2793  0.2062
 8592TIP3   OH247190   6.515   6.312   5.534  0.1310  0.5784 -0.0893
 8592TIP3    H147191   6.566   6.365   5.473  0.2418 -0.3947 -0.8635
 8592TIP3    H247192   6.567   6.313   5.615  0.6445  0.8105 -0.4159
 8593TIP3   OH247193   0.347   2.554  13.417  0.1848  0.8872  0.1119
 8593TIP3    H147194   0.313   2.501  13.345  0.7771  1.8361 -0.8976
 8593TIP3    H247195   0.302   2.638  13.407  0.8143  1.2588  0.4039
 8594TIP3   OH247196   0.545   2.362  16.399 -0.2002 -0.4863  0.2794
 8594TIP3    H147197   0.571   2.303  16.469  1.1761  0.9862  1.0505
 8594TIP3    H247198   0.580   2.323  16.319  0.9680 -0.5633  0.8189
 8595TIP3   OH247199   0.891   5.251  15.541  0.2838  0.9243 -0.4297
 8595TIP3    H147200   0.905   5.302  15.462 -0.3702  0.8920 -0.5656
 8595TIP3    H247201   0.955   5.286  15.604  0.2010  1.5399 -0.6915
 8596TIP3   OH247202   1.316   3.399   4.202  0.0155 -0.2150 -0.2540
 8596TIP3    H147203   1.356   3.370   4.120 -1.9563 -2.2615 -0.5379
 8596TIP3    H247204   1.349   3.488   4.215  1.5173 -0.4167 -2.4857
 8597TIP3   OH247205   4.170   1.887  14.896 -0.1059 -0.0178  0.1587
 8597TIP3    H147206   4.167   1.963  14.955  0.3545  0.1549 -0.0348
 8597TIP3    H247207   4.128   1.918  14.815 -0.1210 -0.0363  0.1593
 8598TIP3   OH247208   4.150   1.669  15.842 -0.1151  0.5857 -0.0001
 8598TIP3    H147209   4.165   1.690  15.750  1.4420  1.1453  0.3613
 8598TIP3    H247210   4.153   1.574  15.846  2.1661  0.6329 -0.1592
 8599TIP3   OH247211   3.092   5.795  10.739  0.2573  0.4038  0.0184
 8599TIP3    H147212   3.074   5.820  10.648  1.6671  0.5725 -0.2190
 8599TIP3    H247213   3.075   5.700  10.741 -1.0295  0.6141 -0.0878
 8600TIP3   OH247214   6.061   5.347  12.659 -0.4712 -0.0649  0.0911
 8600TIP3    H147215   6.120   5.288  12.612  0.1118  0.0381  0.6898
 8600TIP3    H247216   6.111   5.428  12.670 -1.2322  0.5190 -0.6442
 8601TIP3   OH247217   4.171   2.465  14.033  0.0691 -0.5634 -0.2678
 8601TIP3    H147218   4.179   2.559  14.049  0.0608 -0.7561  0.9065
 8601TIP3    H247219   4.079   2.446  14.050 -0.3263 -0.4851 -2.2072
 8602TIP3   OH247220   2.904   3.261   5.802 -0.5349  0.2524  0.4935
 8602TIP3    H147221   2.814   3.282   5.826 -0.5110  0.6359  0.2465
 8602TIP3    H247222   2.954   3.340   5.825 -0.5601  0.7524 -1.1144
 8603TIP3   OH247223   5.597   5.038   5.650 -0.0885  0.1535  0.0663
 8603TIP3    H147224   5.554   4.954   5.637  1.4565 -0.8746  1.2546
 8603TIP3    H247225   5.586   5.056   5.744  0.9409  0.4818  0.1355
 8604TIP3   OH247226   1.345   1.049  17.131  0.4992 -0.1961  0.1692
 8604TIP3    H147227   1.352   0.986  17.060  1.5089  1.1310 -0.9272
 8604TIP3    H247228   1.260   1.030  17.171  0.4972 -1.7953 -0.5622
 8605TIP3   OH247229   1.084   0.983   3.075  0.1054 -0.5741 -0.1576
 8605TIP3    H147230   1.068   0.948   2.988 -1.1561 -1.0512  0.2443
 8605TIP3    H247231   1.146   1.055   3.062 -0.5113 -0.2729 -1.5158
 8606TIP3   OH247232   4.047   4.976  11.497  0.4844 -0.1165 -0.1959
 8606TIP3    H147233   4.081   4.992  11.409 -2.1950 -3.0600 -1.8472
 8606TIP3    H247234   4.034   5.064  11.534  2.3909  1.1441 -2.4120
 8607TIP3   OH247235   5.381   4.483  13.763  0.1134  0.3403  0.7778
 8607TIP3    H147236   5.329   4.418  13.809  0.2731  0.6002  1.3351
 8607TIP3    H247237   5.351   4.479  13.673  1.7104 -2.1428  0.2887
 8608TIP3   OH247238   4.125   0.957   3.266 -0.4179 -0.1521 -0.4162
 8608TIP3    H147239   4.193   0.890   3.267  0.3891  0.6481 -0.9425
 8608TIP3    H247240   4.100   0.964   3.174  0.9774  1.7146 -0.6962
 8609TIP3   OH247241   5.778   6.768  11.496  0.6845  0.4737  0.2661
 8609TIP3    H147242   5.697   6.756  11.545  2.1903 -1.5559  2.3664
 8609TIP3    H247243   5.806   6.857  11.516 -0.2672  0.6853  0.6766
 8610TIP3   OH247244   3.021   2.967   5.031 -0.3280 -0.3961 -0.1423
 8610TIP3    H147245   3.074   2.897   5.070  1.6660  0.9515 -0.3593
 8610TIP3    H247246   3.026   3.039   5.095 -0.9485  0.1538 -0.7060
 8611TIP3   OH247247   5.962   5.351   4.909  0.3483 -0.6205  0.1514
 8611TIP3    H147248   5.973   5.297   4.830  0.7867  0.8501 -0.8273
 8611TIP3    H247249   6.042   5.338   4.959  1.4091  0.7429 -1.1313
 8612TIP3   OH247250   6.695   4.294   0.952  0.8052  0.0518 -0.3149
 8612TIP3    H147251   6.685   4.389   0.951 -1.1212 -0.1185  0.7442
 8612TIP3    H247252   6.724   4.274   1.041  2.5735 -0.2401 -0.9456
 8613TIP3   OH247253   0.203   0.841  13.034 -0.3771 -0.2599 -0.2443
 8613TIP3    H147254   0.228   0.765  13.087  2.9029 -1.0211 -2.6898
 8613TIP3    H247255   0.126   0.812  12.986 -1.7202 -0.5123  1.9810
 8614TIP3   OH247256   5.416   1.884  13.122 -0.3488 -0.0176 -0.2219
 8614TIP3    H147257   5.436   1.841  13.039  0.0793  1.0192 -0.6668
 8614TIP3    H247258   5.362   1.821  13.170 -0.4343 -0.6929 -1.2041
 8615TIP3   OH247259   5.329   6.324   3.253 -0.1159 -0.0672  0.1839
 8615TIP3    H147260   5.352   6.417   3.258  0.7218 -0.3011  0.9103
 8615TIP3    H247261   5.408   6.281   3.222 -0.3440 -0.5992  0.3316
 8616TIP3   OH247262   0.587   5.601   5.164 -0.1603 -0.3420 -0.3652
 8616TIP3    H147263   0.516   5.665   5.175 -0.3747 -0.7691  0.9019
 8616TIP3    H247264   0.664   5.644   5.200 -0.5110 -1.1297  1.4082
 8617TIP3   OH247265   3.276   2.031   2.827  0.6565  0.5682  0.0161
 8617TIP3    H147266   3.366   2.012   2.856  1.9489  4.0984 -1.3739
 8617TIP3    H247267   3.260   1.968   2.757  1.4883 -0.9848  1.1690
 8618TIP3   OH247268   1.587   5.540   4.353  0.2454 -0.0242 -0.2573
 8618TIP3    H147269   1.589   5.524   4.258 -0.2426 -0.5480 -0.1867
 8618TIP3    H247270   1.494   5.540   4.375  0.3773 -0.4536  0.3103
 8619TIP3   OH247271   4.752   1.003   6.014 -0.3080  0.0745 -0.9604
 8619TIP3    H147272   4.699   0.924   6.027 -0.7352  0.5697  0.3051
 8619TIP3    H247273   4.836   0.983   6.054 -0.3779  0.2202 -0.7411
 8620TIP3   OH247274   3.303   6.376  12.774  0.2143 -0.2527 -0.5471
 8620TIP3    H147275   3.308   6.294  12.823  2.5747  0.7318  0.8969
 8620TIP3    H247276   3.371   6.368  12.707  1.8322  1.3285  0.8712
 8621TIP3   OH247277   0.401   5.960  15.950 -0.0181  0.2099 -0.4101
 8621TIP3    H147278   0.448   5.894  16.000  0.9642  0.1631 -1.3744
 8621TIP3    H247279   0.338   5.911  15.897  0.2961  0.0967 -0.6791
 8622TIP3   OH247280   3.014   1.117  16.868 -0.6161  0.2029 -0.4004
 8622TIP3    H147281   3.039   1.029  16.894 -1.2077  0.3160  0.5831
 8622TIP3    H247282   3.094   1.156  16.834  0.3058  0.2264  1.7500
 8623TIP3   OH247283   1.418   3.527  16.507 -0.4649 -0.6492  0.2268
 8623TIP3    H147284   1.438   3.455  16.567 -0.5853 -2.4026 -1.7747
 8623TIP3    H247285   1.504   3.565  16.486 -0.2656 -1.0659  0.2706
 8624TIP3   OH247286   2.849   6.002   1.738  0.6435 -0.2222  0.4734
 8624TIP3    H147287   2.807   5.928   1.783 -0.7087 -0.5890 -1.3442
 8624TIP3    H247288   2.903   6.043   1.806  0.5331 -2.1853  1.8129
 8625TIP3   OH247289   1.797   5.637  11.841 -0.3787 -0.0417  0.2229
 8625TIP3    H147290   1.812   5.688  11.762  2.0232  2.2977  2.0769
 8625TIP3    H247291   1.774   5.702  11.908 -0.5797 -1.7583  1.8602
 8626TIP3   OH247292   5.224   3.371  11.506 -0.3312 -0.0943 -0.3319
 8626TIP3    H147293   5.307   3.330  11.530  0.1319  0.3101 -1.2098
 8626TIP3    H247294   5.171   3.366  11.585  0.8633  0.4941  0.5340
 8627TIP3   OH247295   3.745   4.627   1.142 -0.1907  0.0342  0.0460
 8627TIP3    H147296   3.772   4.542   1.108  1.1725  0.4880 -0.0450
 8627TIP3    H247297   3.776   4.690   1.077 -0.4839  0.6547  0.5066
 8628TIP3   OH247298   2.545   1.552   6.297 -0.1656  0.3358 -0.2869
 8628TIP3    H147299   2.452   1.557   6.318 -0.3177  1.7802 -1.2347
 8628TIP3    H247300   2.580   1.484   6.355 -1.6510  0.3368  0.6110
 8629TIP3   OH247301   5.994   5.684   0.643 -0.5366 -0.1562  0.1872
 8629TIP3    H147302   6.083   5.705   0.613 -0.0829  0.2991  1.8249
 8629TIP3    H247303   5.967   5.760   0.693 -0.8205 -1.3929  1.9368
 8630TIP3   OH247304   2.642   1.871  14.119  0.4359  1.4868 -0.4849
 8630TIP3    H147305   2.617   1.800  14.178 -0.9343  0.4673 -2.2294
 8630TIP3    H247306   2.583   1.943  14.143 -0.0577  1.1080 -0.5425
 8631TIP3   OH247307   2.180   3.890  15.112 -0.3761 -0.3560  0.1948
 8631TIP3    H147308   2.232   3.964  15.143  0.6201 -0.6769 -0.6604
 8631TIP3    H247309   2.123   3.927  15.045  2.1701 -0.8456 -2.3330
 8632TIP3   OH247310   5.996   5.095   2.128 -0.4738  0.2476  0.5676
 8632TIP3    H147311   6.000   5.023   2.065 -0.8928  0.0595  0.7529
 8632TIP3    H247312   5.912   5.138   2.109  0.9344  2.2482 -1.2439
 8633TIP3   OH247313   1.094   5.924  14.001 -0.3301 -0.2099  0.0852
 8633TIP3    H147314   1.168   5.918  13.940 -1.7581 -0.1030 -1.6974
 8633TIP3    H247315   1.109   6.006  14.048  0.1859  0.3124 -0.9640
 8634TIP3   OH247316   1.893   6.397   4.785  0.5081 -0.0014 -0.5045
 8634TIP3    H147317   1.861   6.371   4.698  1.6829 -1.5883 -0.4863
 8634TIP3    H247318   1.976   6.350   4.795  0.7174  0.6969  1.1993
 8635TIP3   OH247319   1.257   2.373  12.636  0.4411 -0.1858 -0.0139
 8635TIP3    H147320   1.173   2.391  12.594 -0.1782  0.0891  1.3261
 8635TIP3    H247321   1.239   2.375  12.730  1.9559 -0.0781  0.3008
 8636TIP3   OH247322   6.511   1.860   6.244 -0.7773  0.3249 -0.3515
 8636TIP3    H147323   6.428   1.896   6.212 -0.8026 -0.2814 -0.9628
 8636TIP3    H247324   6.487   1.777   6.285 -0.1906 -0.9150 -2.4642
 8637TIP3   OH247325   2.252   2.758   1.826 -0.1408 -0.0592  0.1819
 8637TIP3    H147326   2.177   2.773   1.769 -0.5543 -0.6403  0.5577
 8637TIP3    H247327   2.215   2.712   1.901  0.4249  0.5495  0.8385
 8638TIP3   OH247328   4.406   0.439   2.885  0.6113 -0.0469 -0.0992
 8638TIP3    H147329   4.437   0.354   2.915  0.1034 -0.2408 -0.1188
 8638TIP3    H247330   4.464   0.462   2.812  1.5242  0.1878  0.6973
 8639TIP3   OH247331   3.154   2.156  17.184 -0.0606 -0.9121  0.7950
 8639TIP3    H147332   3.195   2.235  17.220  0.2682 -0.3932 -0.6949
 8639TIP3    H247333   3.224   2.091  17.184 -0.2275 -1.1035  1.6545
 8640TIP3   OH247334   1.917   5.894   0.064  0.6007 -0.0230 -0.0149
 8640TIP3    H147335   1.871   5.930  -0.012  0.4784 -1.6023 -0.7104
 8640TIP3    H247336   1.862   5.916   0.139 -1.7560 -2.5563 -0.9092
 8641TIP3   OH247337   2.974   6.417   1.420 -0.3276  0.3500 -0.0293
 8641TIP3    H147338   3.012   6.345   1.469 -1.2380  1.0487  1.7555
 8641TIP3    H247339   2.880   6.399   1.419 -0.6383  1.8014  0.9749
 8642TIP3   OH247340   5.586   6.662  12.695 -0.0478 -0.6753 -0.3389
 8642TIP3    H147341   5.550   6.709  12.620  1.4715  1.7178  0.3534
 8642TIP3    H247342   5.630   6.730  12.747 -1.5966 -2.1349  3.0766
 8643TIP3   OH247343   0.036   3.243  14.567  0.3666 -0.0675 -0.1014
 8643TIP3    H147344   0.000   3.157  14.544 -0.0328 -0.0077  0.2867
 8643TIP3    H247345   0.125   3.225  14.596 -0.5904 -0.6935  2.5544
 8644TIP3   OH247346   4.263   5.835   0.228 -0.0359 -0.1186 -0.2425
 8644TIP3    H147347   4.270   5.806   0.319  0.1995  1.4847  0.2794
 8644TIP3    H247348   4.351   5.865   0.206 -0.7502  2.3013  0.0174
 8645TIP3   OH247349   2.174   3.412  16.074 -0.3475  0.1722  0.0098
 8645TIP3    H147350   2.085   3.444  16.063  0.0760  1.0322 -1.0010
 8645TIP3    H247351   2.170   3.354  16.150 -1.6091  0.8041  0.4311
 8646TIP3   OH247352   3.559   6.245  15.272  0.1234  0.0461 -0.3762
 8646TIP3    H147353   3.622   6.284  15.212 -1.5495  2.2386 -0.7975
 8646TIP3    H247354   3.478   6.240  15.221 -0.9488  0.6336  1.2331
 8647TIP3   OH247355   6.608   3.511  13.295 -0.2050 -0.2683  0.0948
 8647TIP3    H147356   6.551   3.517  13.219  0.2238  0.7422 -0.1578
 8647TIP3    H247357   6.695   3.494  13.259 -0.1157 -0.4824  0.4010
 8648TIP3   OH247358   2.017   6.730   3.286 -0.6453  0.3239 -0.4361
 8648TIP3    H147359   2.013   6.645   3.242 -0.0919  0.3094 -0.4617
 8648TIP3    H247360   2.048   6.791   3.219  2.8260 -0.1828  0.5837
 8649TIP3   OH247361   3.625   2.007   3.093  0.0103 -0.5221  0.3765
 8649TIP3    H147362   3.669   1.973   3.170  0.4008  2.2645  1.4396
 8649TIP3    H247363   3.533   2.014   3.118 -0.2637 -1.8181 -0.2253
 8650TIP3   OH247364   2.646   4.151  13.364 -0.3250 -0.3921 -0.2499
 8650TIP3    H147365   2.663   4.245  13.358  0.6689 -0.5961 -0.8169
 8650TIP3    H247366   2.663   4.129  13.456 -0.9878  0.0634 -0.0206
 8651TIP3   OH247367   1.061   2.935  12.492  0.2055 -0.2179  0.8734
 8651TIP3    H147368   0.996   2.873  12.460 -0.2814 -1.1941  3.6286
 8651TIP3    H247369   1.142   2.910  12.449 -1.1407  0.9023 -2.4747
 8652TIP3   OH247370   4.563   5.914   4.923  0.0545  0.5323  0.5724
 8652TIP3    H147371   4.525   5.983   4.978 -1.0680  0.7692 -0.4854
 8652TIP3    H247372   4.601   5.852   4.986 -2.2017  0.2306  1.6766
 8653TIP3   OH247373   3.218   2.668   3.780  0.2312 -0.3082 -0.0000
 8653TIP3    H147374   3.222   2.577   3.751  0.3119 -0.2682 -0.1125
 8653TIP3    H247375   3.164   2.665   3.859 -0.4349 -0.3409 -0.4496
 8654TIP3   OH247376   4.899   3.030   1.809  0.2332  0.0207  0.0499
 8654TIP3    H147377   4.922   2.953   1.756  0.1182  0.3993 -0.5517
 8654TIP3    H247378   4.826   3.001   1.863  1.0170 -0.6834  0.7538
 8655TIP3   OH247379   0.417   3.022  10.782  0.1064 -0.2904  0.4879
 8655TIP3    H147380   0.492   2.966  10.762 -0.3932 -0.4044 -1.1292
 8655TIP3    H247381   0.441   3.107  10.745  0.0659  0.0772  1.2963
 8656TIP3   OH247382   2.830   0.839   3.744  0.2347  0.1222 -0.2953
 8656TIP3    H147383   2.744   0.804   3.765  0.7392 -1.3069 -0.5122
 8656TIP3    H247384   2.847   0.903   3.812  0.2892 -1.8000  1.5737
 8657TIP3   OH247385   1.852   0.323   3.466 -0.5665 -0.4351  0.5832
 8657TIP3    H147386   1.857   0.239   3.511 -1.8834 -0.8532 -0.0403
 8657TIP3    H247387   1.937   0.364   3.482  0.1247 -1.9413  0.7702
 8658TIP3   OH247388   1.453   5.442   1.819  0.4509  0.0694 -0.6954
 8658TIP3    H147389   1.423   5.477   1.903  1.3567 -0.6533 -0.0560
 8658TIP3    H247390   1.543   5.473   1.811  0.6540 -0.5906 -0.9812
 8659TIP3   OH247391   0.482   2.787  15.769 -0.1051  0.1278  0.3542
 8659TIP3    H147392   0.541   2.842  15.821 -1.0563  1.1180  0.3978
 8659TIP3    H247393   0.455   2.843  15.696  0.0797 -0.7815 -0.4207
 8660TIP3   OH247394   0.276   4.809  13.184  0.0161 -0.2650  0.1914
 8660TIP3    H147395   0.243   4.892  13.150 -0.4873 -0.3542  0.4645
 8660TIP3    H247396   0.353   4.790  13.130 -0.3563 -0.0394 -0.4276
 8661TIP3   OH247397   6.384   2.959  16.218 -0.1711 -0.6989  0.6388
 8661TIP3    H147398   6.356   2.892  16.156  2.6341 -1.1480 -0.2201
 8661TIP3    H247399   6.446   2.913  16.276 -0.1669  0.5368  1.6206
 8662TIP3   OH247400   4.835   1.969   5.186  0.2733 -0.2663  0.2927
 8662TIP3    H147401   4.750   1.933   5.211 -0.9867  0.6726 -2.4599
 8662TIP3    H247402   4.850   2.041   5.248 -1.2097 -0.0685  0.4394
 8663TIP3   OH247403   1.219   2.012   1.231 -0.5764  0.4211 -0.0652
 8663TIP3    H147404   1.240   1.926   1.195 -2.6613  0.3434 -1.1743
 8663TIP3    H247405   1.132   2.001   1.269 -1.0061  2.1153 -0.5272
 8664TIP3   OH247406   4.186   6.104   3.148 -0.6675  0.4245 -0.2027
 8664TIP3    H147407   4.276   6.105   3.116 -0.4727  0.0673  0.3424
 8664TIP3    H247408   4.138   6.156   3.083 -0.1513  0.2653 -0.7208
 8665TIP3   OH247409   1.978   6.681  14.848  0.7190 -0.2286  0.0746
 8665TIP3    H147410   1.893   6.725  14.842  0.6233 -0.0013  2.6964
 8665TIP3    H247411   2.021   6.702  14.765 -2.5411 -2.0287 -2.2054
 8666TIP3   OH247412   2.453   0.071  10.875 -0.0002  0.2982  1.1145
 8666TIP3    H147413   2.540   0.107  10.859  0.2570 -0.6137  0.4435
 8666TIP3    H247414   2.405   0.087  10.794  0.0669 -0.7279  0.8681
 8667TIP3   OH247415   4.018   5.104   2.057 -0.3036  0.4035  0.3781
 8667TIP3    H147416   4.070   5.184   2.044  1.4068 -0.7517 -0.1089
 8667TIP3    H247417   4.081   5.033   2.043 -2.5325 -1.0775 -2.5772
 8668TIP3   OH247418   4.445   3.444   2.886 -0.1030 -0.3795 -0.9370
 8668TIP3    H147419   4.444   3.456   2.981  2.1965  0.7093 -1.0182
 8668TIP3    H247420   4.448   3.533   2.851  0.6711 -0.8077 -1.9834
 8669TIP3   OH247421   5.793   2.012   4.918  0.4319  0.6947  0.0892
 8669TIP3    H147422   5.749   2.090   4.883  1.0922 -0.4772 -3.5606
 8669TIP3    H247423   5.738   1.939   4.890 -0.3097 -0.2114  3.7004
 8670TIP3   OH247424   3.400   5.296   6.369  0.2427 -0.1914  0.1822
 8670TIP3    H147425   3.309   5.289   6.341 -0.0873  0.3287  1.1114
 8670TIP3    H247426   3.429   5.205   6.380 -0.9918 -0.3392  2.5304
 8671TIP3   OH247427   4.880   4.951   2.604 -0.6186 -0.0210  0.0218
 8671TIP3    H147428   4.943   5.023   2.599  0.2228 -0.8212 -1.0690
 8671TIP3    H247429   4.916   4.883   2.547 -1.3867 -1.3279  1.0652
 8672TIP3   OH247430   6.217   2.190  13.109  0.0809 -0.4078 -0.1658
 8672TIP3    H147431   6.152   2.211  13.042  1.4174  1.3038 -0.9833
 8672TIP3    H247432   6.256   2.108  13.079  0.8918  0.5091 -1.6771
 8673TIP3   OH247433   2.114   0.525  17.156 -0.3627  0.1271 -0.0800
 8673TIP3    H147434   2.172   0.551  17.227 -1.2903  1.8158  0.0761
 8673TIP3    H247435   2.094   0.433  17.174 -0.0732  0.3644  1.4969
 8674TIP3   OH247436   4.567   3.037  11.547 -0.4207  0.4372 -0.0062
 8674TIP3    H147437   4.547   3.121  11.507 -2.8809  0.0142  0.2313
 8674TIP3    H247438   4.590   2.980  11.474  0.7280  1.1424 -0.2132
 8675TIP3   OH247439   5.293   1.943   1.444 -0.0535 -0.0745  0.1016
 8675TIP3    H147440   5.284   2.007   1.514  0.0566  0.5972 -0.4942
 8675TIP3    H247441   5.358   1.881   1.477  0.2045  0.3920  0.4831
 8676TIP3   OH247442   6.548   1.962   3.645 -1.0601  0.6214  0.2499
 8676TIP3    H147443   6.480   1.969   3.579  0.2518  0.0736 -1.1795
 8676TIP3    H247444   6.544   1.871   3.674 -0.3329  0.3427 -0.5066
 8677TIP3   OH247445   3.319   4.158   1.170  0.0897 -0.5714  0.4003
 8677TIP3    H147446   3.237   4.160   1.219 -0.0017 -0.7946  0.2529
 8677TIP3    H247447   3.295   4.124   1.084 -0.6174  4.1121 -1.4106
 8678TIP3   OH247448   4.088   6.592   0.590 -0.2603 -0.1731  0.0081
 8678TIP3    H147449   4.053   6.660   0.532 -1.5355 -1.8054 -1.1995
 8678TIP3    H247450   4.174   6.572   0.555 -1.1880 -1.4344 -1.5916
 8679TIP3   OH247451   2.878   1.887   5.522  0.3864 -0.2151 -0.0406
 8679TIP3    H147452   2.836   1.950   5.581  2.5190  1.3782 -0.1842
 8679TIP3    H247453   2.949   1.849   5.574 -0.1626 -1.6843 -0.3386
 8680TIP3   OH247454   4.946   5.595  17.158 -0.3525  0.2051  0.0644
 8680TIP3    H147455   5.035   5.572  17.182 -1.2931 -0.2645  3.3957
 8680TIP3    H247456   4.898   5.512  17.160 -1.3959  0.8139  0.8407
 8681TIP3   OH247457   1.773   1.433   0.861 -0.2496  0.2042 -0.4349
 8681TIP3    H147458   1.712   1.364   0.887  0.3146 -1.2277 -2.7698
 8681TIP3    H247459   1.745   1.457   0.772  2.3855 -0.2537 -1.4248
 8682TIP3   OH247460   6.045   1.988   2.638 -0.3470  0.0266  0.3101
 8682TIP3    H147461   5.970   1.934   2.662 -0.4039 -1.1673 -2.3619
 8682TIP3    H247462   6.008   2.057   2.583  0.4631 -0.4093 -0.8017
 8683TIP3   OH247463   2.472   6.301  10.584 -0.1483  0.3189  0.2065
 8683TIP3    H147464   2.419   6.379  10.593 -1.8303 -0.6129 -1.3995
 8683TIP3    H247465   2.529   6.318  10.509  0.2085  0.4066  0.4956
 8684TIP3   OH247466   3.583   4.878   1.160  0.5108 -0.5366  0.4171
 8684TIP3    H147467   3.648   4.924   1.106 -2.3930  0.5978 -2.2625
 8684TIP3    H247468   3.579   4.790   1.121 -1.2712  0.1512 -1.0474
 8685TIP3   OH247469   3.885   2.227   6.156 -0.0186  0.3230  0.0463
 8685TIP3    H147470   3.824   2.292   6.192 -0.4080 -0.3813  0.6772
 8685TIP3    H247471   3.970   2.252   6.193 -0.3516 -0.1634  1.1686
 8686TIP3   OH247472   5.431   6.411  17.230  0.1920  0.3436 -0.3971
 8686TIP3    H147473   5.463   6.476  17.293 -0.6925 -1.7887  2.3519
 8686TIP3    H247474   5.342   6.439  17.210 -1.1136 -1.3565  2.7710
 8687TIP3   OH247475   5.493   3.288  16.010  0.0947  0.5818 -0.1923
 8687TIP3    H147476   5.428   3.321  15.948  0.3323 -1.1932 -1.4427
 8687TIP3    H247477   5.573   3.334  15.987 -0.4502  1.9788  0.6453
 8688TIP3   OH247478   1.776   6.407  11.885 -0.8346  0.3386  0.0665
 8688TIP3    H147479   1.768   6.347  11.959 -0.0055 -1.1321 -1.0185
 8688TIP3    H247480   1.845   6.370  11.831 -0.7534  1.9309 -0.9592
 8689TIP3   OH247481   1.998   0.197  15.996  0.1287  0.2009 -0.0377
 8689TIP3    H147482   2.081   0.245  15.997  1.3202 -1.5413 -3.3586
 8689TIP3    H247483   1.942   0.247  15.937  0.0188 -0.4053 -0.4524
 8690TIP3   OH247484   5.611   0.028  16.049 -0.2255  0.3120  0.3081
 8690TIP3    H147485   5.588   0.027  16.142  0.7437  0.8313  0.5592
 8690TIP3    H247486   5.692  -0.022  16.044 -0.4702 -0.0210 -0.3114
 8691TIP3   OH247487   3.964   4.593   6.138 -0.0639  0.6503  0.4058
 8691TIP3    H147488   3.930   4.605   6.049 -0.0172 -0.1157  0.2819
 8691TIP3    H247489   3.926   4.665   6.188  0.8001  1.7487 -0.4850
 8692TIP3   OH247490   4.700   2.538  16.473 -0.0036  0.5006 -0.2082
 8692TIP3    H147491   4.690   2.443  16.466  1.3253  0.1697  1.8350
 8692TIP3    H247492   4.632   2.565  16.535 -0.8836  1.0006 -1.3786
 8693TIP3   OH247493   3.449   3.754  15.595  0.1683  0.2653 -0.5410
 8693TIP3    H147494   3.537   3.757  15.559 -0.5432 -0.9438 -2.4771
 8693TIP3    H247495   3.436   3.663  15.621 -0.7942  0.2599 -1.0041
 8694TIP3   OH247496   4.036   5.704   1.162  0.1432  0.3237 -0.2348
 8694TIP3    H147497   4.020   5.798   1.167 -0.7547  0.1406  0.3296
 8694TIP3    H247498   4.104   5.688   1.229  0.4217  0.5901 -0.4498
 8695TIP3   OH247499   6.038   4.514   5.118  0.0230  0.2242  0.6259
 8695TIP3    H147500   5.969   4.580   5.123  1.0269  1.1979  2.0326
 8695TIP3    H247501   5.997   4.440   5.073 -0.5455  2.4863 -2.8069
 8696TIP3   OH247502   0.241   5.077   4.037  0.0155  0.3807 -0.4594
 8696TIP3    H147503   0.332   5.048   4.037 -1.2363 -3.9748 -1.0050
 8696TIP3    H247504   0.215   5.075   3.945 -1.0492  0.0533 -0.1603
 8697TIP3   OH247505   2.103   0.850   4.474 -0.3675 -0.8668 -0.0177
 8697TIP3    H147506   2.184   0.851   4.525 -0.9381  0.4582  0.9062
 8697TIP3    H247507   2.131   0.867   4.384  0.4263 -0.7996  0.2377
 8698TIP3   OH247508   3.883   6.443   1.540 -0.5708 -0.4467 -0.1190
 8698TIP3    H147509   3.821   6.488   1.483 -1.4928  0.5134  1.6023
 8698TIP3    H247510   3.875   6.488   1.624 -0.2663 -2.7023  1.1567
 8699TIP3   OH247511   6.645   0.359  12.207 -0.2249  0.1422  0.4851
 8699TIP3    H147512   6.641   0.452  12.184 -0.8189  0.0026  0.0154
 8699TIP3    H247513   6.737   0.336  12.194  0.2581  1.0477  2.1620
 8700TIP3   OH247514   5.620   1.020  17.095 -0.4839  0.0634  0.2053
 8700TIP3    H147515   5.678   1.071  17.038  0.3343 -0.0817  0.8896
 8700TIP3    H247516   5.532   1.051  17.074 -0.2163 -0.2019 -1.3283
 8701TIP3   OH247517   5.210   2.106  14.397  0.3843 -0.5336 -0.2383
 8701TIP3    H147518   5.116   2.093  14.381  0.1652  0.3344  0.2821
 8701TIP3    H247519   5.236   2.032  14.451 -0.2666 -0.1918  0.5603
 8702TIP3   OH247520   0.638   6.019   0.222 -0.0045  0.2121  0.1509
 8702TIP3    H147521   0.611   6.056   0.138  2.3806 -1.2142 -1.2920
 8702TIP3    H247522   0.636   6.093   0.283 -1.1965  1.3857 -1.2803
 8703TIP3   OH247523   0.860   3.020   0.329  0.2667  0.1338 -0.6978
 8703TIP3    H147524   0.768   3.043   0.348  0.2816 -1.0773  0.9579
 8703TIP3    H247525   0.887   2.968   0.405  2.0807 -0.2014 -1.5686
 8704TIP3   OH247526   2.044   3.209   2.649  0.2638  0.1641 -0.0920
 8704TIP3    H147527   2.136   3.225   2.628  0.0313  1.9790  0.2204
 8704TIP3    H247528   2.040   3.115   2.670  1.8345 -0.1407 -1.1038
 8705TIP3   OH247529   5.684   5.647  16.650 -0.1915 -0.0871  0.2280
 8705TIP3    H147530   5.771   5.617  16.626 -0.7810 -0.7653 -1.1097
 8705TIP3    H247531   5.679   5.737  16.618  0.5279  0.4621  1.6172
 8706TIP3   OH247532   4.035   0.174  17.059  0.1519 -0.5381  0.1737
 8706TIP3    H147533   3.980   0.200  16.985  0.7066  0.9372  0.2601
 8706TIP3    H247534   4.066   0.086  17.036  0.7820  0.1356 -1.6192
 8707TIP3   OH247535   4.223   0.749   2.092  0.0339 -0.9700 -0.2242
 8707TIP3    H147536   4.271   0.823   2.055  0.1964  0.3277  2.5077
 8707TIP3    H247537   4.274   0.672   2.067  1.8447  0.1303  0.0417
 8708TIP3   OH247538   6.733   6.557  11.411  0.5638  0.7655  0.0032
 8708TIP3    H147539   6.652   6.537  11.458 -0.7302  1.9139 -1.6557
 8708TIP3    H247540   6.784   6.611  11.472 -0.4231  0.9794  0.6559
 8709TIP3   OH247541   0.532   5.510  13.089 -0.0607 -0.1534 -0.2387
 8709TIP3    H147542   0.572   5.571  13.026  2.9270 -1.8885 -0.1288
 8709TIP3    H247543   0.606   5.458  13.121 -1.7858 -0.3456  3.5691
 8710TIP3   OH247544   4.430   5.397   4.544 -0.4369 -0.2631 -0.3205
 8710TIP3    H147545   4.369   5.358   4.607  0.3179 -2.0657 -0.6665
 8710TIP3    H247546   4.404   5.360   4.459  0.6288 -0.4366 -0.5837
 8711TIP3   OH247547   3.063   2.650  13.650  0.4533 -0.1746  0.3995
 8711TIP3    H147548   3.062   2.605  13.734  0.8007 -0.2720  0.3528
 8711TIP3    H247549   3.071   2.580  13.585  1.2786 -0.0273  0.3426
 8712TIP3   OH247550   0.665   5.667  15.225  0.1508 -0.0465 -0.1145
 8712TIP3    H147551   0.648   5.761  15.222 -1.3066 -0.1735  2.7094
 8712TIP3    H247552   0.579   5.628  15.242  0.9757 -1.7888  0.1223
 8713TIP3   OH247553   5.445   2.286   1.503  0.1432  0.3696  0.2537
 8713TIP3    H147554   5.360   2.327   1.517  0.3137 -0.2455  3.2778
 8713TIP3    H247555   5.503   2.358   1.477 -1.1923  0.8294 -1.5576
 8714TIP3   OH247556   2.600   4.760   0.402 -0.9920 -0.0962  0.5412
 8714TIP3    H147557   2.624   4.675   0.438 -3.6526 -1.6859 -1.3341
 8714TIP3    H247558   2.581   4.814   0.480 -0.7175 -1.6325  1.6988
 8715TIP3   OH247559   2.903   2.517   3.774 -0.3839  0.2587  0.8000
 8715TIP3    H147560   2.816   2.481   3.758 -0.5712  0.4718  1.3357
 8715TIP3    H247561   2.902   2.603   3.733 -0.1419 -0.0845  0.0635
 8716TIP3   OH247562   4.984   1.685  16.333 -0.6301 -0.2108  0.6959
 8716TIP3    H147563   4.960   1.619  16.397  0.4812 -1.6401 -0.3206
 8716TIP3    H247564   5.054   1.735  16.375 -1.2747  0.1402  1.3556
 8717TIP3   OH247565   5.860   4.328  14.043 -0.1385  0.4908  0.2903
 8717TIP3    H147566   5.862   4.417  14.008  1.7404  0.9587  1.5120
 8717TIP3    H247567   5.817   4.337  14.128  2.8253  0.8187  1.8325
 8718TIP3   OH247568   5.413   2.830  17.207  0.1244  0.0022 -0.7738
 8718TIP3    H147569   5.451   2.798  17.125 -0.7208 -0.6448 -0.9259
 8718TIP3    H247570   5.478   2.809  17.273  0.4622 -0.2052 -1.1664
 8719TIP3   OH247571   2.455   0.875   1.438  0.0996 -0.0208  0.3441
 8719TIP3    H147572   2.476   0.905   1.527  0.1089 -2.2250  1.1025
 8719TIP3    H247573   2.538   0.879   1.391  0.4086 -0.3007  0.8627
 8720TIP3   OH247574   2.653   6.373   6.017 -0.1946  0.0694  0.1194
 8720TIP3    H147575   2.664   6.422   6.099 -0.8782  0.3062  0.0739
 8720TIP3    H247576   2.639   6.282   6.045  0.6757 -0.0399  0.2181
 8721TIP3   OH247577   6.646   3.767   0.969 -0.2741 -0.2896 -0.4713
 8721TIP3    H147578   6.578   3.769   0.902 -0.3106 -0.9161 -0.4573
 8721TIP3    H247579   6.728   3.772   0.920 -0.3254  0.7731 -0.4713
 8722TIP3   OH247580   5.123   5.175  11.601  0.1868  0.4219 -0.2592
 8722TIP3    H147581   5.096   5.222  11.680  0.5657 -0.4799  0.4140
 8722TIP3    H247582   5.071   5.214  11.531 -0.4428  0.9554  0.4978
 8723TIP3   OH247583   2.183   2.239  16.181  0.1458  0.0844  0.5617
 8723TIP3    H147584   2.238   2.244  16.103  0.4623  2.4970  0.8949
 8723TIP3    H247585   2.187   2.148  16.208  1.6154 -0.3661 -1.1154
 8724TIP3   OH247586   3.939   1.879  11.386  0.2739  0.0904  0.6118
 8724TIP3    H147587   3.973   1.961  11.350 -2.0923  0.6127 -0.5329
 8724TIP3    H247588   3.933   1.894  11.480 -1.9619  1.9544  0.2044
 8725TIP3   OH247589   5.593   1.857   0.484  0.0126 -0.0460  0.0515
 8725TIP3    H147590   5.553   1.772   0.468 -3.5527  1.2007  1.7245
 8725TIP3    H247591   5.626   1.852   0.573  0.2046  0.1669 -0.0056
 8726TIP3   OH247592   6.413   4.562  12.932  0.0812  0.0913  0.2652
 8726TIP3    H147593   6.383   4.500  12.866 -1.0400 -1.2336  1.9864
 8726TIP3    H247594   6.369   4.644  12.911 -0.7860 -0.5048 -0.2383
 8727TIP3   OH247595   6.254   0.857  15.422  0.0491 -0.1410 -0.6095
 8727TIP3    H147596   6.168   0.898  15.431 -0.2360 -1.0327  0.8758
 8727TIP3    H247597   6.316   0.922  15.455 -0.3943 -0.8514  1.6805
 8728TIP3   OH247598   3.991   5.226   3.243  0.2287  0.1773 -0.4434
 8728TIP3    H147599   4.081   5.195   3.235  0.1953 -0.3853  1.3082
 8728TIP3    H247600   3.939   5.147   3.254  0.1163  0.7564  3.7761
 8729TIP3   OH247601   3.241   5.771   1.013  0.2657 -0.3081  0.3078
 8729TIP3    H147602   3.291   5.831   1.067  0.4781  0.2539 -0.4962
 8729TIP3    H247603   3.305   5.731   0.954 -0.0419 -0.4962  0.0939
 8730TIP3   OH247604   6.555   3.568   1.132  0.0421  0.0144  0.0400
 8730TIP3    H147605   6.587   3.631   1.068  0.8772 -2.1249 -1.7184
 8730TIP3    H247606   6.462   3.560   1.114 -0.2839  1.4892  0.9636
 8731TIP3   OH247607   5.742   3.245  14.204  0.3752 -0.2664  0.0725
 8731TIP3    H147608   5.829   3.222  14.236 -0.3420 -1.3468  1.2832
 8731TIP3    H247609   5.707   3.305  14.269 -0.5132 -1.3272  0.6040
 8732TIP3   OH247610   5.421   4.048  13.226 -0.0878 -0.0362  0.1131
 8732TIP3    H147611   5.330   4.077  13.231  0.2921  1.0161  1.5377
 8732TIP3    H247612   5.462   4.109  13.164 -0.5371 -1.0383 -1.1755
 8733TIP3   OH247613   5.496   5.102   3.589 -0.4711  0.0058  0.5853
 8733TIP3    H147614   5.537   5.016   3.577 -0.2917  0.3186 -1.0503
 8733TIP3    H247615   5.558   5.164   3.552 -0.7823  0.8236  1.4153
 8734TIP3   OH247616   5.606   1.329  14.342  0.1570  0.3611 -0.1301
 8734TIP3    H147617   5.656   1.409  14.326  3.1677 -1.4025  0.0453
 8734TIP3    H247618   5.669   1.270  14.384 -2.7696 -1.1302  2.3350
 8735TIP3   OH247619   4.119   3.078  14.054 -0.4067 -0.0708 -0.2398
 8735TIP3    H147620   4.049   3.068  14.118  0.0309 -1.8055 -0.0086
 8735TIP3    H247621   4.090   3.026  13.978  1.0448 -1.6009  0.2284
 8736TIP3   OH247622   2.570   6.225   4.247  0.2581 -0.3198 -0.2247
 8736TIP3    H147623   2.549   6.296   4.308  1.7025  1.1481 -1.3840
 8736TIP3    H247624   2.543   6.259   4.161 -1.0748 -2.0704 -0.5288
 8737TIP3   OH247625   0.745   4.843  15.889 -0.0630  0.4020  0.2712
 8737TIP3    H147626   0.685   4.912  15.859  0.9316  0.6905 -1.0945
 8737TIP3    H247627   0.825   4.859  15.840 -0.0623 -2.1760 -0.6102
 8738TIP3   OH247628   0.140   0.083   4.011 -0.8717  0.6020  0.1955
 8738TIP3    H147629   0.213   0.128   4.053 -1.0276  0.3945  0.6930
 8738TIP3    H247630   0.077   0.152   3.991 -2.6758  0.2448  4.1146
 8739TIP3   OH247631   4.321   4.144  13.299  0.5488 -0.3669  0.1163
 8739TIP3    H147632   4.402   4.151  13.248 -0.5092  0.7760 -1.4645
 8739TIP3    H247633   4.277   4.228  13.287 -1.2024 -1.2105  0.3474
 8740TIP3   OH247634   0.797   6.780   1.167  0.1103 -0.4014 -0.4112
 8740TIP3    H147635   0.837   6.694   1.153  0.5709 -0.2954  0.2319
 8740TIP3    H247636   0.704   6.763   1.175  0.2741 -0.9188  0.3819
 8741TIP3   OH247637   1.752   1.088  12.020  0.3281  0.1126  0.5286
 8741TIP3    H147638   1.827   1.106  11.963  0.5343 -0.6079  0.5615
 8741TIP3    H247639   1.720   1.002  11.990 -0.0564  0.1024  0.9664
 8742TIP3   OH247640   0.305   3.172  15.202 -0.4084  0.1297  0.4803
 8742TIP3    H147641   0.239   3.142  15.139 -2.7138  2.2365  1.7946
 8742TIP3    H247642   0.340   3.253  15.164  1.8249 -1.2016 -0.4233
 8743TIP3   OH247643   4.500   1.226   5.169  0.1279 -0.3833  0.0699
 8743TIP3    H147644   4.582   1.183   5.145  0.1822 -0.7553  0.9251
 8743TIP3    H247645   4.487   1.205   5.261  0.1895  1.4774  0.5291
 8744TIP3   OH247646   3.189   3.852   2.750  0.1930 -0.5634 -0.0574
 8744TIP3    H147647   3.247   3.877   2.678  0.0957  0.3004  0.1547
 8744TIP3    H247648   3.147   3.772   2.720 -0.7374  0.4290 -1.4856
 8745TIP3   OH247649   1.896   3.453  16.025  0.1854 -0.1091 -0.1089
 8745TIP3    H147650   1.858   3.418  15.945  0.8528 -0.5672 -0.2313
 8745TIP3    H247651   1.848   3.534  16.042  0.3666  0.2301 -1.2259
 8746TIP3   OH247652   2.011   1.158   3.803 -0.3095  0.2196 -0.8868
 8746TIP3    H147653   2.060   1.115   3.733  0.2190 -0.7505  0.0688
 8746TIP3    H247654   2.070   1.160   3.877 -0.8081  1.4055 -0.4981
 8747TIP3   OH247655   0.417   2.622  16.314 -0.0127 -0.2667  0.6539
 8747TIP3    H147656   0.457   2.703  16.344  1.2749 -0.0125 -1.5981
 8747TIP3    H247657   0.478   2.553  16.342 -0.0714 -0.2701  0.7757
 8748TIP3   OH247658   0.628   2.954   0.094  0.0612  0.7584 -0.0077
 8748TIP3    H147659   0.595   3.017   0.030  1.7852  1.1643 -0.5052
 8748TIP3    H247660   0.713   2.988   0.121 -0.1377  0.0135  1.6849
 8749TIP3   OH247661   6.358   4.759  15.384  0.3498  0.2384  0.2044
 8749TIP3    H147662   6.409   4.721  15.456  0.5282 -1.6810 -0.9030
 8749TIP3    H247663   6.382   4.708  15.307  0.8017  2.8288 -1.4270
 8750TIP3   OH247664   3.102   1.052  12.453  0.6637  0.5031 -0.1808
 8750TIP3    H147665   3.079   1.099  12.372  1.3697  2.8732  0.9349
 8750TIP3    H247666   3.049   1.094  12.521  1.8728  0.1820  0.9785
 8751TIP3   OH247667   3.894   6.381   1.159 -0.7649 -0.3859  0.7530
 8751TIP3    H147668   3.872   6.336   1.078  0.1569 -1.2685  0.9739
 8751TIP3    H247669   3.861   6.470   1.147 -1.7069 -0.8350 -0.1005
 8752TIP3   OH247670   3.405   2.304   1.810  0.6981  0.1294 -0.1800
 8752TIP3    H147671   3.353   2.356   1.748  1.3441 -2.2120 -2.7643
 8752TIP3    H247672   3.347   2.232   1.835  1.1749 -0.0657  0.3776
 8753TIP3   OH247673   5.293   0.696   2.145 -0.6436  0.5206  0.3446
 8753TIP3    H147674   5.235   0.627   2.112 -0.3204  0.3131  0.2071
 8753TIP3    H247675   5.381   0.661   2.132 -0.4435  1.4319 -0.7219
 8754TIP3   OH247676   1.955   3.493  15.347 -0.6126 -0.5960  0.0226
 8754TIP3    H147677   1.894   3.566  15.336 -0.1339  0.1143  1.7858
 8754TIP3    H247678   1.907   3.430  15.401 -0.5437 -0.9756 -0.3613
 8755TIP3   OH247679   3.864   0.993   4.066  0.4079 -0.5688  0.2990
 8755TIP3    H147680   3.823   0.919   4.110 -1.0147 -0.3099 -0.5758
 8755TIP3    H247681   3.856   1.066   4.128  0.2011 -0.7062  0.4342
 8756TIP3   OH247682   1.173   3.189  12.930  0.0464  0.5094 -0.1030
 8756TIP3    H147683   1.109   3.119  12.944  0.1774  0.1875 -1.1417
 8756TIP3    H247684   1.215   3.169  12.847 -0.3863  2.1703 -0.7554
 8757TIP3   OH247685   2.947   2.931   1.410  1.0250 -0.0395  0.8723
 8757TIP3    H147686   3.010   2.885   1.354  1.4161  2.0090 -0.4034
 8757TIP3    H247687   2.965   3.024   1.395 -3.2531  0.6444 -0.6722
 8758TIP3   OH247688   3.411   5.725   0.780  0.4970 -0.0367 -0.8444
 8758TIP3    H147689   3.466   5.653   0.750  0.9358  0.9867 -2.5724
 8758TIP3    H247690   3.447   5.803   0.737 -0.1968  1.1648  0.6853
 8759TIP3   OH247691   1.417   6.255  12.355  1.0566  0.1639  0.1837
 8759TIP3    H147692   1.408   6.346  12.383 -1.4813 -0.0178  0.1126
 8759TIP3    H247693   1.340   6.211  12.392  0.5817 -1.2803 -2.3536
 8760TIP3   OH247694   6.213   1.171   5.492 -0.1677  0.1038  0.0522
 8760TIP3    H147695   6.131   1.130   5.465 -0.3856  1.6436 -1.7014
 8760TIP3    H247696   6.280   1.128   5.440  0.2427 -1.5032  1.8417
 8761TIP3   OH247697   6.282   6.546   5.401 -0.3840 -0.3446  0.1492
 8761TIP3    H147698   6.208   6.533   5.341 -0.3102 -1.3872  0.2816
 8761TIP3    H247699   6.348   6.484   5.371  0.6768  0.9780 -0.3234
 8762TIP3   OH247700   4.588   4.761  10.446 -0.8420 -0.0458  0.6036
 8762TIP3    H147701   4.665   4.726  10.401 -0.9077  0.9414 -0.2995
 8762TIP3    H247702   4.517   4.703  10.420 -0.8158  0.3291 -0.3292
 8763TIP3   OH247703   6.692   3.891  11.463  0.2173  0.5826 -0.2874
 8763TIP3    H147704   6.642   3.826  11.414  0.2172  1.3120 -1.2521
 8763TIP3    H247705   6.760   3.839  11.507 -0.7366 -0.2730  0.2185
 8764TIP3   OH247706   5.916   4.391   3.397  0.0196 -0.2149  0.1216
 8764TIP3    H147707   5.824   4.415   3.393 -0.3473 -1.4432  0.9957
 8764TIP3    H247708   5.951   4.441   3.472 -0.5927 -1.8668  1.5345
 8765TIP3   OH247709   4.581   2.943   0.748 -0.3519  0.1638 -0.7241
 8765TIP3    H147710   4.565   2.857   0.711 -0.7786  1.4008 -3.4967
 8765TIP3    H247711   4.567   3.004   0.676 -4.5604  2.9586  2.2302
 8766TIP3   OH247712   5.756   4.670   5.318  0.3160  0.0621 -0.1652
 8766TIP3    H147713   5.844   4.695   5.345  0.9058 -1.2105 -0.8328
 8766TIP3    H247714   5.731   4.599   5.378 -0.0527  0.0971 -0.2747
 8767TIP3   OH247715   1.759   0.185  14.949  0.2318  0.3016  0.3029
 8767TIP3    H147716   1.827   0.244  14.981  0.0869  0.4299  0.3743
 8767TIP3    H247717   1.684   0.242  14.931 -0.3294 -0.0305  1.5725
 8768TIP3   OH247718   3.382   1.537   5.550 -0.3870 -0.0275 -0.2535
 8768TIP3    H147719   3.448   1.599   5.520 -2.2493  1.3395 -1.6529
 8768TIP3    H247720   3.299   1.573   5.518 -1.6535 -2.5021  0.1285
 8769TIP3   OH247721   0.184   2.279  10.409  0.0161  0.6127 -0.3794
 8769TIP3    H147722   0.179   2.354  10.350  0.3136  1.7996  1.0594
 8769TIP3    H247723   0.241   2.309  10.480  0.1189 -0.9768  0.2252
 8770TIP3   OH247724   0.759   2.583  16.128  0.3339 -0.5512  0.5756
 8770TIP3    H147725   0.722   2.585  16.040 -1.3905 -0.4304  1.2812
 8770TIP3    H247726   0.843   2.629  16.120 -0.6759  1.1096 -0.6101
 8771TIP3   OH247727   3.487   1.927   6.245 -0.4250  0.3095  0.3610
 8771TIP3    H147728   3.499   2.022   6.237  0.0958  0.5091  3.1467
 8771TIP3    H247729   3.482   1.911   6.339 -0.4258 -2.4535 -0.0681
 8772TIP3   OH247730   3.736   4.399   1.843 -0.2623 -0.4872 -0.7794
 8772TIP3    H147731   3.659   4.343   1.837 -0.4140 -0.3518 -0.1448
 8772TIP3    H247732   3.763   4.393   1.934  1.0143 -1.2314 -1.1841
 8773TIP3   OH247733   5.993   3.550   0.615  0.1399  0.8645 -0.2950
 8773TIP3    H147734   5.985   3.618   0.682  0.6033  3.1508 -2.4528
 8773TIP3    H247735   5.903   3.532   0.588 -0.0555 -0.1469  0.9881
 8774TIP3   OH247736   1.218   0.440   1.310  0.1913  0.0273  0.0229
 8774TIP3    H147737   1.216   0.530   1.342 -0.8264 -0.3518  1.0274
 8774TIP3    H247738   1.309   0.412   1.324  0.0579  0.2810  1.4134
 8775TIP3   OH247739   2.973   0.232  14.245  0.2770  0.3832  0.5238
 8775TIP3    H147740   2.899   0.291  14.260 -0.9932 -0.4574 -2.1610
 8775TIP3    H247741   2.994   0.198  14.332 -2.3535  0.8127  1.3723
 8776TIP3   OH247742   5.043   3.303   3.362  0.2178  0.3706 -0.0188
 8776TIP3    H147743   5.091   3.371   3.315 -2.0070  1.6555 -0.5396
 8776TIP3    H247744   4.989   3.262   3.295 -0.5126 -0.0303  0.8017
 8777TIP3   OH247745   2.744   2.069   0.275 -0.1665  0.1409 -0.5713
 8777TIP3    H147746   2.799   2.134   0.231  0.4765 -0.5542 -0.7965
 8777TIP3    H247747   2.720   2.111   0.357  1.7170 -0.0115  0.0938
 8778TIP3   OH247748   6.157   1.885  14.150 -0.2285  0.2336 -0.3988
 8778TIP3    H147749   6.237   1.901  14.199 -0.8266 -0.4708  0.8284
 8778TIP3    H247750   6.114   1.970  14.144 -1.2540 -0.0611  2.2884
 8779TIP3   OH247751   4.000   3.351  13.409  0.0780 -0.3963 -0.1798
 8779TIP3    H147752   4.025   3.442  13.420  1.8430 -0.8067 -0.5304
 8779TIP3    H247753   3.915   3.354  13.364 -0.4823  1.0593  0.9467
 8780TIP3   OH247754   5.290   0.170  13.872  0.3379  0.2655  0.4692
 8780TIP3    H147755   5.281   0.145  13.964 -2.0297  1.7710  0.6779
 8780TIP3    H247756   5.326   0.258  13.874 -0.0792  0.4520 -0.0468
 8781TIP3   OH247757   2.018   3.406  13.755  0.8874 -0.3591  0.5006
 8781TIP3    H147758   2.099   3.455  13.768  0.7218  0.0670 -0.0814
 8781TIP3    H247759   1.959   3.439  13.823  0.4450  0.9639 -0.5111
 8782TIP3   OH247760   2.647   5.688   6.584 -0.3119  0.0888 -0.0558
 8782TIP3    H147761   2.579   5.747   6.553 -1.0053 -0.1129  1.0151
 8782TIP3    H247762   2.624   5.603   6.545 -0.2543  0.1803 -0.2875
 8783TIP3   OH247763   4.132   4.134   6.252  0.4089  0.8126  0.8022
 8783TIP3    H147764   4.185   4.056   6.270  0.5519  1.0979  1.6514
 8783TIP3    H247765   4.161   4.197   6.317  0.2490  1.5609  0.1541
 8784TIP3   OH247766   2.189   6.020   3.120  0.2131 -0.5020  0.2408
 8784TIP3    H147767   2.231   6.064   3.194  0.1366  1.2462 -0.7402
 8784TIP3    H247768   2.249   5.950   3.096  1.6734  0.7960  0.0498
 8785TIP3   OH247769   0.405   2.349   5.135  0.2525 -0.1369  0.1766
 8785TIP3    H147770   0.388   2.275   5.193  2.2739 -1.4089 -0.7892
 8785TIP3    H247771   0.476   2.397   5.177 -0.9424  1.1973  0.7164
 8786TIP3   OH247772   1.825   6.087  15.171 -0.2361 -0.3150 -0.0663
 8786TIP3    H147773   1.767   6.022  15.131  0.0984  0.5068 -1.9204
 8786TIP3    H247774   1.906   6.039  15.188 -0.3387 -0.6394 -0.4833
 8787TIP3   OH247775   2.261   4.488   4.864 -0.7010 -0.1317  0.0630
 8787TIP3    H147776   2.309   4.465   4.785 -0.1438 -0.7879  0.5784
 8787TIP3    H247777   2.210   4.566   4.840 -0.5661 -0.3453 -0.9384
 8788TIP3   OH247778   3.092   0.773   0.353  0.5204 -0.7590 -0.0664
 8788TIP3    H147779   3.109   0.868   0.347  1.1358 -0.7734  1.2261
 8788TIP3    H247780   3.000   0.767   0.376  0.2287 -0.5053 -1.1364
 8789TIP3   OH247781   3.243   1.428  15.102 -0.1318  0.5289 -0.1924
 8789TIP3    H147782   3.337   1.412  15.097  0.1828  2.1586  0.2394
 8789TIP3    H247783   3.225   1.434  15.196 -0.3534  1.9545 -0.3194
 8790TIP3   OH247784   3.161   3.850   2.342  0.0298 -0.6409 -0.4905
 8790TIP3    H147785   3.170   3.782   2.409  0.4378  0.1266  0.2464
 8790TIP3    H247786   3.181   3.806   2.260  1.3792 -1.1513  0.1067
 8791TIP3   OH247787   6.709   2.449   4.445  0.3051 -0.9932 -0.4800
 8791TIP3    H147788   6.785   2.491   4.405 -0.8122  0.4841 -1.1261
 8791TIP3    H247789   6.645   2.441   4.374 -0.2715 -1.8825  0.1263
 8792TIP3   OH247790   4.060   3.310   4.193 -0.2475 -0.3183  0.0456
 8792TIP3    H147791   4.036   3.302   4.101 -0.2916 -0.5290  0.0754
 8792TIP3    H247792   3.995   3.257   4.240 -0.9468  0.7513  0.3083
 8793TIP3   OH247793   0.033   0.812   0.859  0.4019  0.2090  0.0351
 8793TIP3    H147794   0.039   0.745   0.791  2.7992 -2.0093  2.2849
 8793TIP3    H247795   0.054   0.894   0.814 -0.3187 -0.8606 -2.3152
 8794TIP3   OH247796   3.692   0.078   5.840  0.0495 -0.0533 -0.1796
 8794TIP3    H147797   3.676  -0.006   5.885 -2.1560  1.6608  2.3945
 8794TIP3    H247798   3.677   0.059   5.748 -2.4944 -2.0258  0.5916
 8795TIP3   OH247799   3.183   0.188   2.969 -0.1548  0.0561  0.2630
 8795TIP3    H147800   3.124   0.237   3.025  0.9745  1.7565 -0.0243
 8795TIP3    H247801   3.227   0.254   2.915  1.1976 -1.2654 -0.3081
 8796TIP3   OH247802   4.440   1.643   0.253 -0.4240  0.3948  0.5850
 8796TIP3    H147803   4.493   1.718   0.278  0.1314 -0.2122  1.2717
 8796TIP3    H247804   4.420   1.657   0.160  0.3340  0.9970  0.5070
 8797TIP3   OH247805   6.224   6.675   2.056 -0.1386  0.3523 -0.3629
 8797TIP3    H147806   6.137   6.634   2.063  0.0180  0.3071  1.5547
 8797TIP3    H247807   6.276   6.611   2.006 -0.6933 -0.4699  0.0996
 8798TIP3   OH247808   4.751   3.517   0.042  0.2729  0.3276 -0.8643
 8798TIP3    H147809   4.803   3.578  -0.009  1.5887 -1.2844 -1.5107
 8798TIP3    H247810   4.787   3.431   0.020 -1.0173 -0.6170  0.6096
 8799TIP3   OH247811   4.336   4.892   0.575 -0.2121 -0.2899 -0.4536
 8799TIP3    H147812   4.245   4.921   0.582  0.1304  0.2275  2.7157
 8799TIP3    H247813   4.332   4.797   0.582 -0.5783 -0.3495 -1.3937
 8800TIP3   OH247814   1.964   0.290  16.865 -0.4787  0.1172  0.5754
 8800TIP3    H147815   1.939   0.299  16.773 -0.3508 -1.7385  0.3569
 8800TIP3    H247816   1.940   0.201  16.889  0.8518  0.0929  1.9341
 8801TIP3   OH247817   1.512   2.987   5.420  0.1368  0.2114 -0.2334
 8801TIP3    H147818   1.561   3.060   5.458  0.0070  1.1775 -1.8395
 8801TIP3    H247819   1.579   2.929   5.384  0.2024  0.1253  0.0294
 8802TIP3   OH247820   6.462   4.418   2.191 -0.1675  0.0474  0.2173
 8802TIP3    H147821   6.389   4.473   2.163 -0.6191 -0.1737  0.9699
 8802TIP3    H247822   6.487   4.453   2.277  0.0907 -0.3910  0.3198
 8803TIP3   OH247823   1.564   4.135  13.328  0.4977 -0.2168  0.6811
 8803TIP3    H147824   1.618   4.190  13.385  2.4416  0.0608 -1.3645
 8803TIP3    H247825   1.591   4.046  13.348  1.0552 -0.1282  0.3442
 8804TIP3   OH247826   0.269   5.797   4.167  0.1993  0.2523 -0.2705
 8804TIP3    H147827   0.233   5.807   4.079 -1.1783 -0.3061  0.2243
 8804TIP3    H247828   0.347   5.853   4.167  0.1802  0.3049 -1.8153
 8805TIP3   OH247829   5.551   5.833   6.589  0.6548  0.2551  0.1523
 8805TIP3    H147830   5.622   5.772   6.571  0.2557 -0.2795  0.3648
 8805TIP3    H247831   5.515   5.803   6.673  1.4197  1.6949  1.0154
 8806TIP3   OH247832   0.965   4.868  14.011  0.0528 -0.1404 -0.9996
 8806TIP3    H147833   1.027   4.914  13.955 -0.8813  1.1534 -1.0122
 8806TIP3    H247834   0.954   4.926  14.087 -0.6167 -0.6565 -0.6950
 8807TIP3   OH247835   5.384   0.054   1.890  0.0811  0.4927  0.3705
 8807TIP3    H147836   5.477   0.035   1.879  0.7198  0.6297  4.7763
 8807TIP3    H247837   5.349  -0.022   1.936 -1.9715  0.5890 -0.9364
 8808TIP3   OH247838   6.737   2.898   5.966  0.4354 -0.1802 -0.3828
 8808TIP3    H147839   6.714   2.838   6.037  0.3793 -1.0793 -1.1362
 8808TIP3    H247840   6.659   2.899   5.910  1.2532 -1.2369 -1.5972
 8809TIP3   OH247841   6.238   6.716  15.559  0.4861 -0.2310  0.4157
 8809TIP3    H147842   6.177   6.767  15.613  1.1101  0.8270  0.1315
 8809TIP3    H247843   6.295   6.672  15.622  2.5609  2.6432  0.6433
 8810TIP3   OH247844   0.039   6.330  17.090  0.3637 -0.4055 -0.3127
 8810TIP3    H147845   0.052   6.410  17.141 -0.2225 -0.9347  0.6791
 8810TIP3    H247846   0.126   6.292  17.083  0.5961  0.1552 -0.5223
 8811TIP3   OH247847   4.440   4.603  12.073  0.1393  0.0679  0.2600
 8811TIP3    H147848   4.395   4.619  11.990  1.3661  0.8001 -0.2662
 8811TIP3    H247849   4.529   4.579  12.049 -0.0986 -1.9591  1.2780
 8812TIP3   OH247850   0.959   5.206  11.549  0.0242  0.4367 -0.4536
 8812TIP3    H147851   0.947   5.228  11.641  1.1708  1.4883 -0.5449
 8812TIP3    H247852   0.879   5.159  11.525 -0.6858  0.9651  0.8313
 8813TIP3   OH247853   3.424   1.143  12.367  0.3979 -0.1737  0.5776
 8813TIP3    H147854   3.412   1.066  12.312 -0.4688 -0.5205  1.2368
 8813TIP3    H247855   3.438   1.108  12.455  2.7381  0.3434  0.4389
 8814TIP3   OH247856   1.361   1.444   3.143  0.0359  0.3898  0.3275
 8814TIP3    H147857   1.394   1.396   3.066  0.0061  0.4213  0.2954
 8814TIP3    H247858   1.396   1.533   3.132 -1.4139  0.8569 -0.5466
 8815TIP3   OH247859   5.413   4.581  11.221 -0.0194  0.3988 -0.0113
 8815TIP3    H147860   5.406   4.519  11.148 -0.6024 -0.0232  0.3997
 8815TIP3    H247861   5.502   4.568  11.255  0.2384  0.5722 -0.6245
 8816TIP3   OH247862   0.943   3.622  11.991 -1.0017  0.9016  0.7128
 8816TIP3    H147863   1.032   3.620  11.955 -0.5132 -2.7922  1.9125
 8816TIP3    H247864   0.937   3.706  12.036  1.1459  2.1060 -1.1323
 8817TIP3   OH247865   6.489   3.298  10.467 -0.1740  0.2575 -0.1125
 8817TIP3    H147866   6.402   3.290  10.427 -0.6466 -0.1986  0.9812
 8817TIP3    H247867   6.496   3.221  10.523 -0.0080  1.4692  1.5776
 8818TIP3   OH247868   6.050   4.635   4.580  0.6310  0.5046  0.0535
 8818TIP3    H147869   5.982   4.626   4.647  1.4665 -0.8846  0.7465
 8818TIP3    H247870   6.002   4.657   4.500 -0.4299  1.6440  0.9676
 8819TIP3   OH247871   4.930   3.103  16.912  0.1139 -0.4961  0.1076
 8819TIP3    H147872   4.849   3.128  16.955 -1.3266 -3.3416 -0.8744
 8819TIP3    H247873   4.922   3.139  16.823  0.1448 -0.3918  0.1475
 8820TIP3   OH247874   3.523   3.144   1.029  0.1691  0.0645  0.2301
 8820TIP3    H147875   3.449   3.202   1.045 -0.1229 -0.4231  0.6965
 8820TIP3    H247876   3.502   3.099   0.947 -0.2396 -0.3493  0.5560
 8821TIP3   OH247877   5.391   6.188  15.889 -0.2648  0.1849 -0.2780
 8821TIP3    H147878   5.369   6.251  15.820  0.5352  1.1811  0.3523
 8821TIP3    H247879   5.430   6.114  15.842 -1.9355 -0.1955 -1.0964
 8822TIP3   OH247880   0.830   0.832   0.676 -0.1922 -0.3914 -0.6511
 8822TIP3    H147881   0.841   0.737   0.675  0.2708 -0.3732  0.7844
 8822TIP3    H247882   0.735   0.845   0.667 -0.2269 -0.9745 -1.1442
 8823TIP3   OH247883   4.921   5.791   6.173 -0.4109  0.0219 -0.1405
 8823TIP3    H147884   4.847   5.837   6.212  0.4501  0.6265  0.7944
 8823TIP3    H247885   4.937   5.717   6.232 -2.7254 -2.4113 -2.4035
 8824TIP3   OH247886   0.261   0.673  11.735 -0.1062  0.0845 -0.3277
 8824TIP3    H147887   0.212   0.613  11.792  2.2395 -2.1048 -0.5098
 8824TIP3    H247888   0.260   0.630  11.649  1.8808  0.1054 -0.3836
 8825TIP3   OH247889   0.989   3.999   5.429  0.1234 -0.0768 -0.2558
 8825TIP3    H147890   0.944   4.022   5.510  1.8379 -0.1201  0.7215
 8825TIP3    H247891   1.054   3.933   5.455  0.6594 -0.1169 -1.6597
 8826TIP3   OH247892   6.767   0.994   4.320  0.0983 -0.8759 -0.4191
 8826TIP3    H147893   6.851   0.949   4.307  0.8933  0.9006 -1.4854
 8826TIP3    H247894   6.781   1.048   4.397 -0.3557 -1.2204 -0.0914
 8827TIP3   OH247895   1.486   4.112  15.488  0.1501 -0.0951 -0.0494
 8827TIP3    H147896   1.505   4.206  15.496  2.3605 -0.3127 -2.1880
 8827TIP3    H247897   1.501   4.077  15.576 -3.8869  2.0156  1.6188
 8828TIP3   OH247898   5.606   2.717  15.393  0.6301 -0.1938 -0.4028
 8828TIP3    H147899   5.643   2.654  15.455  0.7309 -0.6107 -0.8851
 8828TIP3    H247900   5.619   2.802  15.435 -0.2988 -0.5595  0.6620
 8829TIP3   OH247901   4.465   0.490   0.381 -0.6342 -0.5128  0.0102
 8829TIP3    H147902   4.429   0.427   0.319 -0.9723 -0.1587 -0.1586
 8829TIP3    H247903   4.509   0.556   0.327 -0.9186 -0.2099  0.1446
 8830TIP3   OH247904   5.544   3.530  15.276 -0.1056 -0.0019 -0.4408
 8830TIP3    H147905   5.459   3.488  15.289  0.3627 -1.1167 -0.8284
 8830TIP3    H247906   5.525   3.607  15.223 -0.6010 -1.6233 -2.7347
 8831TIP3   OH247907   1.706   4.323  11.402 -0.3029  0.5918  0.2290
 8831TIP3    H147908   1.771   4.378  11.446 -0.2357 -0.1816  1.1191
 8831TIP3    H247909   1.744   4.235  11.405 -1.7361  0.0031  1.4615
 8832TIP3   OH247910   5.479   5.173  12.869  0.2560 -0.2969  0.5438
 8832TIP3    H147911   5.517   5.085  12.879 -1.2651 -1.0177  0.0641
 8832TIP3    H247912   5.435   5.170  12.784  1.9782  1.6163 -0.4557
 8833TIP3   OH247913   5.443   5.342   0.272 -0.2747  0.6152  0.4188
 8833TIP3    H147914   5.415   5.425   0.312 -0.6212  0.1687  1.0949
 8833TIP3    H247915   5.528   5.363   0.233  0.5484  0.8009  2.2653
 8834TIP3   OH247916   2.885   5.696   0.706 -0.2300 -0.2525 -0.0878
 8834TIP3    H147917   2.851   5.780   0.676  0.7756  0.2011  0.0196
 8834TIP3    H247918   2.947   5.670   0.638  2.0883  0.7930  1.5681
 8835TIP3   OH247919   4.305   3.395   1.040  0.5965  0.9539  0.0579
 8835TIP3    H147920   4.250   3.436   1.107  0.2647  0.5873  0.0179
 8835TIP3    H247921   4.335   3.467   0.985 -0.2328  1.1025 -0.2011
 8836TIP3   OH247922   1.118   0.710  14.445  0.4434  0.5136 -0.3237
 8836TIP3    H147923   1.077   0.790  14.478  0.8909  0.6504 -0.0858
 8836TIP3    H247924   1.123   0.723  14.350  1.9160  1.4442 -0.1273
 8837TIP3   OH247925   0.989   2.091   4.270 -0.0711  0.7809 -0.1524
 8837TIP3    H147926   0.968   2.172   4.224 -0.2430  0.8460  0.0382
 8837TIP3    H247927   1.009   2.119   4.360  0.5138  0.6841 -0.2489
 8838TIP3   OH247928   2.166   2.545   2.001 -0.2634  0.5883  0.0323
 8838TIP3    H147929   2.115   2.520   1.923  0.6314  0.5847 -0.5602
 8838TIP3    H247930   2.100   2.569   2.066 -0.9974  1.9906 -1.1902
 8839TIP3   OH247931   1.492   2.837   0.191  0.5784 -0.3381  0.0821
 8839TIP3    H147932   1.448   2.763   0.231 -1.0378  0.6988  0.2541
 8839TIP3    H247933   1.578   2.840   0.235  0.2580 -1.4535  0.8096
 8840TIP3   OH247934   6.471   5.831   1.051 -0.1943 -0.6056  0.2272
 8840TIP3    H147935   6.377   5.834   1.034 -0.2206  0.3939  0.4969
 8840TIP3    H247936   6.480   5.863   1.141  0.2539 -2.3805  0.8222
 8841TIP3   OH247937   3.419   5.096  16.841  0.4348  0.8891 -0.5080
 8841TIP3    H147938   3.477   5.023  16.819 -0.6669 -0.5335  1.1377
 8841TIP3    H247939   3.457   5.172  16.796  1.8199 -0.6098 -1.9383
 8842TIP3   OH247940   6.281   3.398  14.580  0.6880 -0.2397  0.2808
 8842TIP3    H147941   6.230   3.439  14.510  2.8556  1.4160 -0.4084
 8842TIP3    H247942   6.318   3.319  14.540 -1.2052 -1.3807  0.7499
 8843TIP3   OH247943   1.012   0.498  13.031 -0.3588  0.3103  0.3514
 8843TIP3    H147944   0.944   0.479  13.095  0.3074 -0.1915  0.9222
 8843TIP3    H247945   0.965   0.505  12.948 -1.2749  1.3206  0.9414
 8844TIP3   OH247946   6.346   3.525  17.034  0.4856 -0.7069  0.0574
 8844TIP3    H147947   6.262   3.549  16.996  1.4144  1.8721 -0.4635
 8844TIP3    H247948   6.323   3.475  17.112 -1.5513  0.2469  0.1092
 8845TIP3   OH247949   3.228   1.814  14.477  0.2350  0.2000  0.3203
 8845TIP3    H147950   3.140   1.782  14.498  0.5283 -1.0187 -0.2654
 8845TIP3    H247951   3.280   1.735  14.465  1.0147  0.8960 -1.0178
 8846TIP3   OH247952   4.776   6.197  13.575  0.1454 -0.0831 -0.1601
 8846TIP3    H147953   4.766   6.124  13.513  1.0668 -1.1043  0.8751
 8846TIP3    H247954   4.824   6.263  13.527  0.0081 -0.4776 -0.8514
 8847TIP3   OH247955   1.644   6.645   4.394  0.5000  0.9665 -0.4019
 8847TIP3    H147956   1.618   6.695   4.317  0.7858  1.5053 -0.1530
 8847TIP3    H247957   1.738   6.663   4.402  0.2551  1.7721  0.6999
 8848TIP3   OH247958   0.675   6.266   3.264  1.4205 -0.3094  0.1025
 8848TIP3    H147959   0.735   6.191   3.261  0.9396 -0.6698 -0.4454
 8848TIP3    H247960   0.630   6.256   3.348 -0.9997 -2.4834 -1.3609
 8849TIP3   OH247961   2.097   3.112  16.654  0.7470 -0.2544 -0.0714
 8849TIP3    H147962   2.183   3.071  16.643  1.5153  0.2453  3.3552
 8849TIP3    H247963   2.116   3.205  16.665 -0.1912 -0.1954  1.1107
 8850TIP3   OH247964   2.371   6.254   2.329  0.0165 -0.7933 -0.4311
 8850TIP3    H147965   2.315   6.237   2.253 -0.1670  0.0423 -0.4788
 8850TIP3    H247966   2.409   6.340   2.312  0.8557 -1.0907 -0.1149
 8851TIP3   OH247967   4.654   0.893  13.740  0.5645 -0.0979 -0.1836
 8851TIP3    H147968   4.601   0.906  13.819 -0.4920 -1.0468 -0.7189
 8851TIP3    H247969   4.691   0.806  13.750 -0.2661 -0.5597 -1.1356
 8852TIP3   OH247970   4.034   1.915   3.243  0.5068 -0.0094  0.3056
 8852TIP3    H147971   3.971   1.844   3.251  0.1610  0.0393 -1.6624
 8852TIP3    H247972   3.983   1.994   3.260  0.2919 -0.0614 -0.0798
 8853TIP3   OH247973   5.189   6.359   3.749 -0.2397 -0.5768  0.4240
 8853TIP3    H147974   5.134   6.282   3.761 -0.2195 -0.7588 -0.5967
 8853TIP3    H247975   5.274   6.334   3.786 -0.2290 -1.0567  0.0828
 8854TIP3   OH247976   3.156   0.021   0.533  0.4386  0.0438  0.2623
 8854TIP3    H147977   3.238  -0.007   0.574  0.4830 -0.0673  0.0990
 8854TIP3    H247978   3.177   0.027   0.439  0.2751  0.0640  0.2273
 8855TIP3   OH247979   1.711   6.260   4.963 -0.3100  0.4316 -0.3200
 8855TIP3    H147980   1.761   6.200   5.019  0.3139  0.6296 -0.6672
 8855TIP3    H247981   1.774   6.327   4.937 -0.3351 -0.1916 -2.0478
 8856TIP3   OH247982   3.017   1.463   5.332  0.6216  0.1954  0.0654
 8856TIP3    H147983   3.045   1.474   5.423 -0.4223  1.2780  0.2734
 8856TIP3    H247984   3.075   1.521   5.282  1.7314 -1.0194 -0.0632
 8857TIP3   OH247985   4.668   3.705  14.309 -0.0274 -0.1661  0.0909
 8857TIP3    H147986   4.726   3.639  14.347 -0.2616 -0.1952  0.4008
 8857TIP3    H247987   4.687   3.703  14.215 -2.7015 -3.2993 -0.4755
 8858TIP3   OH247988   2.494   3.228   1.594  0.0671  0.3318  0.4493
 8858TIP3    H147989   2.418   3.262   1.547 -0.4510  1.5952  2.1602
 8858TIP3    H247990   2.458   3.185   1.671  1.1526  2.3870  2.1557
 8859TIP3   OH247991   3.975   4.287  11.778 -0.3796  0.2039  0.5414
 8859TIP3    H147992   4.039   4.309  11.711  0.5183  1.0078  1.6341
 8859TIP3    H247993   3.896   4.336  11.753 -0.2341  0.0518 -0.2306
 8860TIP3   OH247994   1.824   3.476   4.547 -0.1685 -0.6976 -0.0463
 8860TIP3    H147995   1.802   3.383   4.534 -3.1709  0.0567 -0.5620
 8860TIP3    H247996   1.847   3.482   4.640  0.3793 -2.0146 -0.0860
 8861TIP3   OH247997   1.616   4.813   5.744  0.6199  0.0722  0.3786
 8861TIP3    H147998   1.708   4.796   5.762  1.1701  2.2043 -0.3586
 8861TIP3    H247999   1.590   4.743   5.684  2.1046  0.2268 -0.4633
 8862TIP3   OH248000   6.448   2.460  10.889 -0.1479 -0.4745 -0.0549
 8862TIP3    H148001   6.488   2.488  10.807 -0.7850 -0.8480 -0.4999
 8862TIP3    H248002   6.493   2.511  10.956  1.0676 -0.8743 -0.5403
 8863TIP3   OH248003   2.439   5.384   1.688  0.3207  0.4388  0.3832
 8863TIP3    H148004   2.474   5.414   1.772  0.3696  0.7495  0.2502
 8863TIP3    H248005   2.451   5.289   1.690 -0.9570  0.2860  1.3296
 8864TIP3   OH248006   6.139   2.255   2.857  0.2077  0.1316 -0.3909
 8864TIP3    H148007   6.188   2.338   2.854 -1.0046  0.8279 -1.3703
 8864TIP3    H248008   6.194   2.193   2.809  1.6014  0.0907  1.2193
 8865TIP3   OH248009   1.047   2.517   2.766  0.0355 -0.4493 -0.1072
 8865TIP3    H148010   1.043   2.441   2.708  0.3641 -0.7666  0.2790
 8865TIP3    H248011   1.005   2.487   2.847 -1.6010  0.3922 -0.6157
 8866TIP3   OH248012   3.249   1.405  13.199  0.7221  0.4344  0.1532
 8866TIP3    H148013   3.194   1.327  13.199  1.7485 -0.3457  2.1497
 8866TIP3    H248014   3.334   1.374  13.232  1.4235  2.2070  0.0634
 8867TIP3   OH248015   6.385   4.862  12.820  0.1575  0.1101  0.9502
 8867TIP3    H148016   6.336   4.939  12.848 -1.3094 -0.6355  0.4746
 8867TIP3    H248017   6.463   4.862  12.876  1.5623  3.4496 -0.8860
 8868TIP3   OH248018   6.451   0.795  17.176  0.0818 -0.2177 -0.7438
 8868TIP3    H148019   6.501   0.871  17.206 -0.6543 -0.8920  2.3385
 8868TIP3    H248020   6.487   0.776  17.090  2.1994  1.9218 -0.3947
 8869TIP3   OH248021   1.262   0.141  15.224  0.8924  0.1576 -0.0938
 8869TIP3    H148022   1.252   0.143  15.319  0.3845  1.6503 -0.1707
 8869TIP3    H248023   1.274   0.233  15.199  1.1889 -0.2388 -1.4506
 8870TIP3   OH248024   5.505   2.634   3.463  0.4184 -0.1569 -0.1963
 8870TIP3    H148025   5.455   2.696   3.411  0.1868  0.9062  1.2754
 8870TIP3    H248026   5.581   2.683   3.493 -0.1888 -0.3149  1.6548
 8871TIP3   OH248027   2.717   2.258   0.916 -0.5637 -0.5900  0.5857
 8871TIP3    H148028   2.738   2.196   0.986 -0.6948 -0.2453  0.9288
 8871TIP3    H248029   2.689   2.337   0.962  0.3340 -0.0191  0.1609
 8872TIP3   OH248030   0.801   3.704  13.397  0.5712  0.3773 -0.3591
 8872TIP3    H148031   0.762   3.777  13.349  0.9724  1.3310  0.7431
 8872TIP3    H248032   0.881   3.741  13.436  0.3180 -0.4106  0.9309
 8873TIP3   OH248033   5.053   2.231  15.108  0.1518  0.0020  0.0878
 8873TIP3    H148034   4.970   2.189  15.087 -0.0183  0.1402  0.4648
 8873TIP3    H248035   5.029   2.305  15.165  0.4379  0.6243 -0.5860
 8874TIP3   OH248036   0.964   4.557  11.807 -0.1753  0.3810  0.1044
 8874TIP3    H148037   0.962   4.487  11.872 -2.4952  0.9446  0.6664
 8874TIP3    H248038   0.972   4.637  11.857  1.5202  0.6172 -0.4989
 8875TIP3   OH248039   1.539   6.152  15.864  0.1024  0.4993  0.2646
 8875TIP3    H148040   1.481   6.132  15.938 -0.8277 -0.0159 -0.5912
 8875TIP3    H248041   1.543   6.248  15.863  2.3292  0.4782  2.6600
 8876TIP3   OH248042   1.536   1.349  14.574 -0.8561  0.8929  0.3276
 8876TIP3    H148043   1.624   1.380  14.596 -0.0633 -1.3294  0.3421
 8876TIP3    H248044   1.507   1.409  14.505  1.3815  0.5933 -0.9299
 8877TIP3   OH248045   1.731   2.999  13.066 -0.3733  0.1722 -0.3512
 8877TIP3    H148046   1.728   3.068  13.000  3.8007  1.0584  0.2402
 8877TIP3    H248047   1.684   3.036  13.141 -1.1769  0.9427 -1.2087
 8878TIP3   OH248048   6.159   2.544  10.921  0.2071  0.6399 -0.5609
 8878TIP3    H148049   6.251   2.526  10.900  0.2759  0.0260  0.2340
 8878TIP3    H248050   6.110   2.505  10.849  0.3848 -2.2815  0.8364
 8879TIP3   OH248051   1.138   6.359  17.118 -0.2923  0.5922  0.0273
 8879TIP3    H148052   1.210   6.403  17.072 -1.6876  2.8924  0.0103
 8879TIP3    H248053   1.164   6.359  17.210  0.1839  0.4827 -0.1038
 8880TIP3   OH248054   6.110   5.344  14.489 -0.2710  0.3677  0.3185
 8880TIP3    H148055   6.098   5.303  14.404  1.8406 -2.0471  1.1202
 8880TIP3    H248056   6.021   5.363  14.520 -1.0833  0.3721 -1.9591
 8881TIP3   OH248057   1.051   0.221   3.057  0.1813 -0.0967  0.3255
 8881TIP3    H148058   1.103   0.167   2.997  0.5224  0.7190 -0.1263
 8881TIP3    H248059   0.980   0.163   3.086  0.3872 -0.7035 -0.3617
 8882TIP3   OH248060   5.232   5.929   4.252  0.2872 -0.0650  0.4505
 8882TIP3    H148061   5.203   5.838   4.256  1.4846 -0.5369 -1.3439
 8882TIP3    H248062   5.151   5.980   4.251 -0.4600 -1.2541 -2.0549
 8883TIP3   OH248063   2.226   4.446  12.603  0.3722 -0.0953 -0.4964
 8883TIP3    H148064   2.264   4.409  12.683 -2.0124 -1.0472  0.2599
 8883TIP3    H248065   2.170   4.517  12.633 -0.8549 -0.7113 -1.2561
 8884TIP3   OH248066   6.566   6.702  16.750  0.2720  0.0280  0.1480
 8884TIP3    H148067   6.487   6.724  16.800  0.6132  0.9812  0.2856
 8884TIP3    H248068   6.596   6.620  16.789 -1.5447 -1.2136 -0.9908
 8885TIP3   OH248069   5.926   1.358   5.383  0.1577  0.2726  0.4615
 8885TIP3    H148070   5.952   1.408   5.305 -1.4514  0.7308  0.2019
 8885TIP3    H248071   5.971   1.274   5.373  1.2606  0.9244 -0.1391
 8886TIP3   OH248072   5.760   3.268  17.017 -0.2084 -0.0497 -0.1124
 8886TIP3    H148073   5.789   3.350  16.977 -0.2099 -0.4451 -0.9247
 8886TIP3    H248074   5.664   3.271  17.010 -0.2743  0.4242  0.9362
 8887TIP3   OH248075   6.322   4.603  14.337  0.4022 -0.2579 -0.1913
 8887TIP3    H148076   6.371   4.674  14.295  0.8155 -1.0115 -0.9953
 8887TIP3    H248077   6.389   4.543  14.368  0.0986  0.2863  1.5623
 8888TIP3   OH248078   4.077   0.847  15.553  0.1342  0.3749 -0.4938
 8888TIP3    H148079   4.094   0.938  15.579  1.6235  0.1834 -0.7677
 8888TIP3    H248080   4.109   0.795  15.627 -2.2890  0.1213  0.4227
 8889TIP3   OH248081   6.218   4.628  14.596  0.0029  0.4423  0.3381
 8889TIP3    H148082   6.239   4.616  14.504 -0.0523 -1.3879  0.5403
 8889TIP3    H248083   6.135   4.675  14.597 -0.4550 -0.3462 -0.5590
 8890TIP3   OH248084   2.064   4.790   5.219 -0.1763 -0.5382 -0.2522
 8890TIP3    H148085   2.015   4.709   5.220 -1.0065 -0.0530 -0.8226
 8890TIP3    H248086   2.007   4.853   5.175  0.8840  0.0782 -0.7907
 8891TIP3   OH248087   6.415   3.227   0.748  0.0537  0.3387 -0.0408
 8891TIP3    H148088   6.466   3.270   0.679  0.6760  0.5809  0.5557
 8891TIP3    H248089   6.368   3.298   0.791 -1.4889  0.0075 -1.1479
 8892TIP3   OH248090   0.723   1.035   1.089  0.0794 -0.3632  0.8624
 8892TIP3    H148091   0.783   1.027   1.015  0.3962 -0.9367  1.1767
 8892TIP3    H248092   0.640   1.062   1.050 -0.0436 -1.7083  0.1697
 8893TIP3   OH248093   5.688   3.524  15.592  0.4983 -0.5657  0.0685
 8893TIP3    H148094   5.762   3.584  15.581  0.5925 -0.9966 -1.8716
 8893TIP3    H248095   5.638   3.531  15.510 -3.4639  2.1249  2.5557
 8894TIP3   OH248096   5.648   2.853  11.113  0.2956 -0.3399  0.0038
 8894TIP3    H148097   5.612   2.928  11.065  0.9660  0.7868  1.2074
 8894TIP3    H248098   5.724   2.825  11.062  1.1213  0.9716  0.4948
 8895TIP3   OH248099   0.640   2.349   0.371  0.7126 -0.1169  0.3449
 8895TIP3    H148100   0.676   2.417   0.315 -0.5748  0.2732 -0.0240
 8895TIP3    H248101   0.595   2.396   0.441  0.2436 -0.5946  0.3672
 8896TIP3   OH248102   5.336   3.163  12.474  0.0323 -0.0629 -0.2410
 8896TIP3    H148103   5.406   3.193  12.533 -0.6903 -1.9120  1.6335
 8896TIP3    H248104   5.257   3.207  12.508 -0.1358  0.0698 -0.8042
 8897TIP3   OH248105   2.896   5.058   5.399  0.5065  1.0541 -0.0541
 8897TIP3    H148106   2.942   5.126   5.448  0.5452  1.3985 -0.5761
 8897TIP3    H248107   2.964   5.010   5.353  0.6893 -0.5748  1.8290
 8898TIP3   OH248108   4.012   4.725   0.184 -0.1796 -0.2994  0.2164
 8898TIP3    H148109   3.979   4.734   0.273  1.0623 -2.0467  0.8912
 8898TIP3    H248110   3.938   4.747   0.128 -0.4441  2.6460  1.6672
 8899TIP3   OH248111   1.502   2.652   3.452 -0.5495 -0.3412 -0.2650
 8899TIP3    H148112   1.417   2.611   3.472 -0.7598  0.0905 -0.2646
 8899TIP3    H248113   1.507   2.726   3.513  0.8652 -1.7170  1.3710
 8900TIP3   OH248114   1.107   4.746   5.239  0.1753 -0.1074 -0.7124
 8900TIP3    H148115   1.101   4.805   5.164  0.6801 -2.4872 -2.6578
 8900TIP3    H248116   1.139   4.802   5.310  0.4058  2.0282 -2.4426
 8901TIP3   OH248117   6.666   2.304   5.572 -0.5748  0.0839  0.2153
 8901TIP3    H148118   6.692   2.221   5.533 -1.0083  0.3827 -0.7482
 8901TIP3    H248119   6.592   2.282   5.629 -0.9002 -0.1531 -0.2920
 8902TIP3   OH248120   4.989   0.369  16.028 -0.6207 -0.7862 -0.8147
 8902TIP3    H148121   5.015   0.443  16.083 -0.7674 -0.4022 -1.2542
 8902TIP3    H248122   5.070   0.321  16.012 -0.4365 -0.4368 -0.9394
 8903TIP3   OH248123   5.918   4.401  16.905  0.0762 -0.4116  0.0523
 8903TIP3    H148124   5.897   4.470  16.843 -0.7673 -0.5279  0.2034
 8903TIP3    H248125   5.833   4.365  16.931  0.5233 -1.7084 -0.2544
 8904TIP3   OH248126   6.274   6.478  10.181  0.3826  0.3304  0.5784
 8904TIP3    H148127   6.188   6.490  10.222  0.3072  1.0735  0.2211
 8904TIP3    H248128   6.286   6.557  10.128  1.0491 -0.0226  0.2000
 8905TIP3   OH248129   5.463   0.712   0.733  0.9865 -0.4379  0.2878
 8905TIP3    H148130   5.535   0.746   0.680  1.8727  0.6908  2.1562
 8905TIP3    H248131   5.433   0.635   0.686  1.1095  1.0609 -2.3369
 8906TIP3   OH248132   3.062   3.704   0.647  0.0434  0.9532 -0.1407
 8906TIP3    H148133   3.093   3.644   0.579 -0.5881  0.1997  0.2279
 8906TIP3    H248134   3.140   3.726   0.697  0.6131  1.9403 -1.4229
 8907TIP3   OH248135   1.652   4.985  13.419 -0.1990  0.7277  0.5332
 8907TIP3    H148136   1.600   5.049  13.468 -0.9356 -0.0369  0.7717
 8907TIP3    H248137   1.591   4.913  13.403  0.8843 -0.3262  1.0882
 8908TIP3   OH248138   2.338   4.566   0.265  0.4619  0.0055 -0.2645
 8908TIP3    H148139   2.386   4.649   0.272  0.3554  0.1990 -1.7975
 8908TIP3    H248140   2.253   4.591   0.229 -0.6492 -0.4079  1.9490
 8909TIP3   OH248141   6.443   2.093   0.488  0.2471 -0.1661 -0.0760
 8909TIP3    H148142   6.386   2.164   0.460 -0.4031 -0.7272 -0.2086
 8909TIP3    H248143   6.507   2.083   0.417 -0.9279 -1.0759 -1.0318
 8910TIP3   OH248144   4.905   0.547   5.013  0.4864  0.5345  0.1187
 8910TIP3    H148145   4.826   0.562   5.065  1.8293  2.3813  1.7267
 8910TIP3    H248146   4.947   0.473   5.056 -0.9344 -1.2540 -1.4826
 8911TIP3   OH248147   3.753   6.208   0.073  0.1791 -0.0977 -0.2418
 8911TIP3    H148148   3.750   6.150  -0.003  1.3817 -0.0548 -0.3238
 8911TIP3    H248149   3.685   6.173   0.131 -1.0143  0.1023 -1.4836
 8912TIP3   OH248150   2.096   4.181  14.839 -0.1346 -0.4336 -0.1920
 8912TIP3    H148151   2.131   4.101  14.801 -1.0811 -0.2998 -1.3787
 8912TIP3    H248152   2.002   4.164  14.849 -0.0951 -0.0091  0.9170
 8913TIP3   OH248153   6.436   2.510  16.167 -0.1761  0.8140  0.1756
 8913TIP3    H148154   6.442   2.481  16.076  0.1344  0.1937  0.3911
 8913TIP3    H248155   6.386   2.440  16.211 -0.4133  1.1592  0.4573
 8914TIP3   OH248156   0.449   1.120  16.320  0.3890 -0.0708 -0.2373
 8914TIP3    H148157   0.384   1.189  16.330 -0.0599 -0.2068 -2.0797
 8914TIP3    H248158   0.422   1.052  16.383 -0.0477  0.7468  0.4680
 8915TIP3   OH248159   2.892   5.457  14.590 -0.3246 -0.3699  0.0389
 8915TIP3    H148160   2.817   5.407  14.558  0.2430 -0.9396 -0.4063
 8915TIP3    H248161   2.964   5.394  14.591 -0.1512 -0.1691  1.7132
 8916TIP3   OH248162   5.562   5.535  13.602 -0.3996 -0.2767  0.0560
 8916TIP3    H148163   5.511   5.520  13.522  0.0178 -2.1278  0.1038
 8916TIP3    H248164   5.541   5.460  13.658 -0.8701  1.1174  1.7951
 8917TIP3   OH248165   0.978   6.770   6.262 -0.8820  0.1776  0.2221
 8917TIP3    H148166   0.893   6.804   6.290 -0.1401  1.6279  0.7642
 8917TIP3    H248167   1.033   6.847   6.251  0.2296 -0.7059 -0.6192
 8918TIP3   OH248168   0.638   3.760   0.097  0.2248  0.0100  0.1126
 8918TIP3    H148169   0.731   3.753   0.078  0.0928 -2.1988  0.1898
 8918TIP3    H248170   0.601   3.677   0.067 -1.7235  0.8736  0.0571
 8919TIP3   OH248171   3.362   2.749   0.579  0.0265 -0.4015  0.4146
 8919TIP3    H148172   3.433   2.749   0.643  1.1668 -1.0394 -0.8286
 8919TIP3    H248173   3.379   2.826   0.525 -1.1772  0.3765  1.1401
 8920TIP3   OH248174   5.366   3.741   5.054  0.4170 -0.6007 -0.5090
 8920TIP3    H148175   5.461   3.735   5.051  0.3297 -2.4415 -0.2757
 8920TIP3    H248176   5.339   3.749   4.962  0.7893  0.1497 -0.5612
 8921TIP3   OH248177   3.604   2.222   5.750  0.2164 -0.2447 -0.0635
 8921TIP3    H148178   3.605   2.277   5.672  0.9128  0.1585  0.2219
 8921TIP3    H248179   3.601   2.132   5.717 -1.6523 -0.0334 -0.5292
 8922TIP3   OH248180   5.437   3.511  10.874  0.1675  0.4484 -1.0383
 8922TIP3    H148181   5.379   3.585  10.856 -0.9777 -0.3440 -0.6840
 8922TIP3    H248182   5.521   3.551  10.895 -0.8518  1.7494  0.7915
 8923TIP3   OH248183   2.447   4.526  13.804 -0.4103  0.2087  0.7550
 8923TIP3    H148184   2.522   4.529  13.864  0.2832 -1.5611  0.0021
 8923TIP3    H248185   2.482   4.554  13.720 -0.6419 -0.4005  0.4509
 8924TIP3   OH248186   4.651   6.553   3.758  0.5121  0.8682  0.3539
 8924TIP3    H148187   4.583   6.486   3.765  1.1578  0.0118 -1.3620
 8924TIP3    H248188   4.605   6.636   3.775 -0.5945  0.1509  0.9206
 8925TIP3   OH248189   6.689   1.908   5.725 -0.0885 -0.2944  0.5745
 8925TIP3    H148190   6.760   1.866   5.774 -0.5814 -2.5826 -0.5725
 8925TIP3    H248191   6.611   1.897   5.780  0.2342  1.3017  1.3682
 8926TIP3   OH248192   0.982   0.313   5.441 -1.3358 -0.0303 -0.4710
 8926TIP3    H148193   0.937   0.234   5.471 -0.2162 -0.5418 -0.1411
 8926TIP3    H248194   0.918   0.384   5.456 -1.1534 -0.4025  2.2328
 8927TIP3   OH248195   5.275   2.753   1.577 -0.2049 -0.4853 -0.5540
 8927TIP3    H148196   5.203   2.779   1.635  0.5405 -0.8044  0.5260
 8927TIP3    H248197   5.232   2.728   1.495 -1.3329 -0.7322  0.1041
 8928TIP3   OH248198   4.914   2.765   4.526 -1.0511 -0.3960 -0.2703
 8928TIP3    H148199   4.945   2.772   4.436  0.9488  0.9303  0.4967
 8928TIP3    H248200   4.866   2.846   4.542 -3.0469 -1.4410 -0.7033
 8929TIP3   OH248201   2.760   5.240  15.444  0.4107 -1.1869  0.0805
 8929TIP3    H148202   2.735   5.321  15.400 -0.8422 -0.3758  2.2044
 8929TIP3    H248203   2.702   5.174  15.405  1.0125 -0.9694 -1.2258
 8930TIP3   OH248204   0.694   1.515  11.391 -0.2309 -0.4083 -0.0009
 8930TIP3    H148205   0.711   1.440  11.448  0.2437  0.6340  1.2654
 8930TIP3    H248206   0.780   1.545  11.364 -0.3019  0.8664  1.1062
 8931TIP3   OH248207   0.269   5.580  16.538 -0.4970 -0.2332  0.5535
 8931TIP3    H148208   0.289   5.516  16.606  0.9304 -1.3173 -0.8522
 8931TIP3    H248209   0.302   5.541  16.457 -0.6239  1.7809 -0.5109
 8932TIP3   OH248210   2.753   0.196   6.482 -0.3934  0.5540 -0.2808
 8932TIP3    H148211   2.755   0.267   6.547 -0.3231 -0.1030  0.4348
 8932TIP3    H248212   2.830   0.213   6.427  0.2978  0.3538  0.6174
 8933TIP3   OH248213   6.151   1.367  16.229 -0.2459 -0.7064  0.0316
 8933TIP3    H148214   6.183   1.414  16.151 -0.6839  0.4972  0.5668
 8933TIP3    H248215   6.219   1.382  16.295  0.6017 -2.5433 -0.3832
 8934TIP3   OH248216   2.501   2.713   3.973  0.3597 -0.1550 -0.0169
 8934TIP3    H148217   2.482   2.619   3.972 -1.2864  0.1489  0.4014
 8934TIP3    H248218   2.417   2.754   3.951  0.9720  1.2221  0.1734
 8935TIP3   OH248219   5.326   4.294  12.488  0.5797 -0.3283 -0.1344
 8935TIP3    H148220   5.408   4.303  12.439  0.5184  3.0832  0.2892
 8935TIP3    H248221   5.263   4.263  12.423  1.9802 -2.1837 -0.6495
 8936TIP3   OH248222   1.552   5.983  14.571  0.1072 -1.2178  0.7334
 8936TIP3    H148223   1.646   5.970  14.587  0.9803 -1.0043 -3.7479
 8936TIP3    H248224   1.539   6.077  14.580  0.3653 -1.2163  1.1178
 8937TIP3   OH248225   0.273   6.362  12.601  0.4125  0.2286  0.0907
 8937TIP3    H148226   0.367   6.357  12.584  0.4919  0.1963  0.5406
 8937TIP3    H248227   0.251   6.455  12.588  0.4330  0.1634 -0.4016
 8938TIP3   OH248228   2.051   3.881  13.279 -0.1058 -0.1770  0.0087
 8938TIP3    H148229   2.098   3.884  13.362 -0.6930 -1.3076  0.3928
 8938TIP3    H248230   1.999   3.962  13.279  1.1376  0.6284 -0.0102
 8939TIP3   OH248231   6.231   5.106  12.836  0.1135  0.4468  0.1480
 8939TIP3    H148232   6.270   5.145  12.914 -1.2918 -1.6966  2.0071
 8939TIP3    H248233   6.139   5.133  12.840 -0.0935 -0.1692 -0.4326
 8940TIP3   OH248234   0.695   3.834  14.185  0.5265 -0.2789  0.3583
 8940TIP3    H148235   0.694   3.847  14.279  2.1238  1.3973  0.1889
 8940TIP3    H248236   0.777   3.875  14.156  0.6037 -1.7189 -1.6194
 8941TIP3   OH248237   0.325   4.226  14.204 -0.9498 -0.6103  0.7952
 8941TIP3    H148238   0.344   4.306  14.253  0.0760  0.0814 -0.6729
 8941TIP3    H248239   0.411   4.195  14.175 -1.7093  1.1063 -3.7424
 8942TIP3   OH248240   6.504   5.758   0.305 -0.6357  0.0597  0.6170
 8942TIP3    H148241   6.519   5.812   0.227  0.0731 -1.1930 -0.1166
 8942TIP3    H248242   6.460   5.680   0.272  0.9911 -1.1370  1.2510
 8943TIP3   OH248243   2.100   2.406  11.583  0.0372  0.3276 -0.2851
 8943TIP3    H148244   2.040   2.439  11.515  0.5850  0.7187 -0.5867
 8943TIP3    H248245   2.055   2.425  11.665  0.8059  2.8549 -0.4080
 8944TIP3   OH248246   4.115   5.644   4.680  0.3508 -0.1916 -0.4932
 8944TIP3    H148247   4.113   5.557   4.641 -3.0336 -0.0888 -0.6808
 8944TIP3    H248248   4.147   5.702   4.610  1.4355 -1.0713 -0.7359
 8945TIP3   OH248249   0.302   5.462  13.850  0.2273  0.1780  0.1274
 8945TIP3    H148250   0.285   5.556  13.860  0.3457  0.1376  0.7401
 8945TIP3    H248251   0.367   5.456  13.780 -0.1641  0.5211 -0.2635
 8946TIP3   OH248252   5.105   2.817  13.531  0.2319 -0.2173  0.6040
 8946TIP3    H148253   5.030   2.867  13.562 -1.3624 -0.9715 -1.9086
 8946TIP3    H248254   5.082   2.725  13.547  0.7093 -0.4475  0.0057
 8947TIP3   OH248255   3.031   3.024  15.075 -0.2722 -0.1531 -0.5466
 8947TIP3    H148256   3.080   2.946  15.102 -0.5238 -0.1986 -0.2308
 8947TIP3    H248257   3.098   3.083  15.041  0.0968  0.1078  0.6339
 8948TIP3   OH248258   6.395   4.407   4.922 -0.4462 -0.5715  0.4977
 8948TIP3    H148259   6.418   4.499   4.939 -1.3320 -0.1042 -0.7223
 8948TIP3    H248260   6.475   4.359   4.940  0.1306  0.4854  0.8365
 8949TIP3   OH248261   1.810   0.566  13.271 -0.0029 -0.2543  0.5031
 8949TIP3    H148262   1.719   0.537  13.269 -1.1777  3.2841 -0.0817
 8949TIP3    H248263   1.827   0.582  13.364  0.1268 -1.1974  0.6443
 8950TIP3   OH248264   0.267   5.548  16.857 -0.5921 -0.2079  0.1296
 8950TIP3    H148265   0.213   5.527  16.933 -2.6369 -0.6895 -1.4140
 8950TIP3    H248266   0.332   5.479  16.853  1.0552  1.1170  2.8166
 8951TIP3   OH248267   4.078   3.736   6.923  0.1352  0.5906  0.0774
 8951TIP3    H148268   4.113   3.812   6.969 -0.6470  0.8484  0.2654
 8951TIP3    H248269   3.984   3.752   6.919 -0.5237 -1.9775  3.1645
 8952TIP3   OH248270   3.296   4.160   0.402  0.5688  0.3141 -0.4478
 8952TIP3    H148271   3.229   4.092   0.413  1.7339 -0.7170  0.3763
 8952TIP3    H248272   3.362   4.120   0.346  0.9774  0.9753 -0.4435
 8953TIP3   OH248273   4.129   5.890  12.800 -0.0034 -0.1959  0.0361
 8953TIP3    H148274   4.071   5.921  12.870  0.6834  0.4885  0.3067
 8953TIP3    H248275   4.084   5.813  12.765 -2.2028  1.5986 -1.2578
 8954TIP3   OH248276   3.568   1.342  12.219 -0.2311 -0.1523 -0.2352
 8954TIP3    H148277   3.494   1.299  12.175 -0.9290 -0.3223  1.0854
 8954TIP3    H248278   3.587   1.287  12.295 -1.6238  2.1986  1.9131
 8955TIP3   OH248279   0.504   1.291  16.710 -0.0823  0.3845  0.8742
 8955TIP3    H148280   0.515   1.207  16.755  0.3144  0.1483  0.3390
 8955TIP3    H248281   0.503   1.356  16.780 -1.3857 -0.1533  1.3678
 8956TIP3   OH248282   5.894   4.429   0.756  0.0484  0.1853  0.0215
 8956TIP3    H148283   5.937   4.457   0.675  1.0751 -1.7352 -0.1261
 8956TIP3    H248284   5.948   4.467   0.826  0.3561  0.1466 -0.1913
 8957TIP3   OH248285   5.174   2.035  12.574 -0.1026 -0.6074  0.1496
 8957TIP3    H148286   5.198   2.111  12.627  1.3910 -1.4619  0.7564
 8957TIP3    H248287   5.194   2.061  12.484  1.0374 -0.4990  0.4222
 8958TIP3   OH248288   5.904   3.707   2.078 -0.1242 -0.0308 -0.6882
 8958TIP3    H148289   5.975   3.663   2.030 -0.3995 -1.9720  0.6113
 8958TIP3    H248290   5.866   3.768   2.015  1.5430 -0.2793 -1.9557
 8959TIP3   OH248291   0.216   3.683   3.278  0.6954 -0.0736 -0.0927
 8959TIP3    H148292   0.204   3.768   3.237  2.5603  1.4376  2.3538
 8959TIP3    H248293   0.189   3.620   3.211 -0.5518  2.3991 -2.0034
 8960TIP3   OH248294   0.186   6.750   2.205 -0.6708  0.4769 -0.0268
 8960TIP3    H148295   0.148   6.775   2.121 -1.5288 -4.6783 -1.3719
 8960TIP3    H248296   0.113   6.710   2.253  0.9096 -1.1162  1.1213
 8961TIP3   OH248297   5.694   6.239   1.312  0.2396 -0.2397  0.3322
 8961TIP3    H148298   5.674   6.174   1.244 -3.5072  0.7791  0.3657
 8961TIP3    H248299   5.692   6.323   1.266 -0.8663  0.3324  1.4103
 8962TIP3   OH248300   3.412   0.380  17.195 -0.0544 -0.0928 -0.4317
 8962TIP3    H148301   3.405   0.424  17.111 -0.8366 -2.1646 -1.4864
 8962TIP3    H248302   3.498   0.337  17.192  1.6651  3.0107  1.4587
 8963TIP3   OH248303   2.613   0.393   3.196 -0.6391 -0.0501  0.8024
 8963TIP3    H148304   2.631   0.456   3.127 -2.0005 -1.2260 -0.6734
 8963TIP3    H248305   2.684   0.329   3.189 -0.5277  0.0766  0.7760
 8964TIP3   OH248306   4.787   1.083   0.290 -1.2273  0.0951 -0.1665
 8964TIP3    H148307   4.764   1.168   0.327 -0.4593 -0.0834  0.7328
 8964TIP3    H248308   4.883   1.084   0.285 -1.1120 -1.3273  1.3660
 8965TIP3   OH248309   5.577   2.550  12.650 -0.0108 -0.5480 -0.3256
 8965TIP3    H148310   5.642   2.598  12.702 -0.4048  1.0851 -1.3057
 8965TIP3    H248311   5.590   2.458  12.674  0.2478  0.1033  2.1618
 8966TIP3   OH248312   0.739   1.701  13.193  0.7793  0.2749  0.2809
 8966TIP3    H148313   0.819   1.650  13.189  1.0959  0.8057 -0.1205
 8966TIP3    H248314   0.747   1.766  13.123 -0.7569 -0.7541 -0.8622
 8967TIP3   OH248315   6.525   4.571  17.037  0.4950 -0.4140  0.3793
 8967TIP3    H148316   6.552   4.496  16.984  2.0922  0.8193 -0.6227
 8967TIP3    H248317   6.583   4.567  17.113  1.7015  0.6798 -0.4501
 8968TIP3   OH248318   6.641   6.095  16.158  0.6016 -0.2355  0.0577
 8968TIP3    H148319   6.709   6.098  16.226  0.0423 -1.6055  0.7120
 8968TIP3    H248320   6.689   6.096  16.076  1.3896 -0.5351  0.5099
 8969TIP3   OH248321   5.065   0.244   4.932 -0.6800  0.5347 -1.0526
 8969TIP3    H148322   5.022   0.249   5.017 -0.6097  0.1874 -0.9951
 8969TIP3    H248323   5.148   0.289   4.944  0.2039 -1.2250 -0.3857
 8970TIP3   OH248324   0.478   4.749  14.250 -0.3315  0.2666  0.1578
 8970TIP3    H148325   0.410   4.792  14.302 -0.6983 -0.0650 -0.0476
 8970TIP3    H248326   0.430   4.691  14.192  0.2103 -1.0099  0.9706
 8971TIP3   OH248327   4.952   4.275  16.837 -0.1266 -0.3312  0.1577
 8971TIP3    H148328   4.999   4.354  16.808 -1.2794 -0.1388 -1.2863
 8971TIP3    H248329   4.902   4.304  16.913 -0.7409  0.4018 -0.5217
 8972TIP3   OH248330   6.321   3.703  13.780  0.6708 -0.0044 -0.9030
 8972TIP3    H148331   6.342   3.795  13.800  2.6716  0.0328 -2.9305
 8972TIP3    H248332   6.242   3.708  13.726 -0.8832  0.3060  1.3405
 8973TIP3   OH248333   5.297   0.431   4.353 -0.6326  0.5261  0.8838
 8973TIP3    H148334   5.238   0.403   4.282  1.6405 -1.3418 -0.3185
 8973TIP3    H248335   5.375   0.462   4.308  0.7181 -0.3964  2.5636
 8974TIP3   OH248336   1.858   4.717   4.000  0.0166  0.9963  0.2835
 8974TIP3    H148337   1.837   4.714   3.906 -1.6666  0.3442  0.6600
 8974TIP3    H248338   1.793   4.778   4.037 -0.3794 -0.0034  1.2689
 8975TIP3   OH248339   2.730   3.573  16.737 -0.1765 -0.3684  0.2061
 8975TIP3    H148340   2.723   3.550  16.830 -3.1627  1.7904  0.5759
 8975TIP3    H248341   2.791   3.647  16.735  2.0432 -2.1448  0.0769
 8976TIP3   OH248342   6.512   4.756   1.447  0.0925  0.0933  0.2493
 8976TIP3    H148343   6.523   4.711   1.531  0.2871  0.3051  0.3401
 8976TIP3    H248344   6.418   4.753   1.429  0.3693 -2.7483 -1.0797
 8977TIP3   OH248345   2.987   0.221   2.713  0.2634 -0.3203 -0.7216
 8977TIP3    H148346   2.923   0.226   2.642 -0.3811  2.2548 -0.0232
 8977TIP3    H248347   2.939   0.181   2.786  0.0815 -0.3675 -0.8678
 8978TIP3   OH248348   1.281   0.525  14.553  0.0805 -0.0787  0.2213
 8978TIP3    H148349   1.239   0.600  14.512  1.1684 -0.2448 -1.2263
 8978TIP3    H248350   1.240   0.449  14.512  1.9214 -0.2385 -1.3431
 8979TIP3   OH248351   4.217   4.119  11.750 -0.3664  0.0631  0.4651
 8979TIP3    H148352   4.137   4.084  11.710 -0.1011  1.2475 -1.1688
 8979TIP3    H248353   4.288   4.067  11.713 -0.0958  1.3407 -0.8808
 8980TIP3   OH248354   1.506   0.459   4.935 -0.3577  0.4751 -0.1216
 8980TIP3    H148355   1.415   0.478   4.960 -0.5828  2.2766 -2.2144
 8980TIP3    H248356   1.535   0.395   5.001 -3.1542 -0.2222  0.5361
 8981TIP3   OH248357   0.818   4.066  13.598 -0.2537  0.0445  0.6274
 8981TIP3    H148358   0.768   4.109  13.667  1.0329  0.1218  1.5241
 8981TIP3    H248359   0.886   4.129  13.574 -0.8264  0.1190 -0.8957
 8982TIP3   OH248360   4.608   2.201  13.147  0.4732 -0.0644  0.1145
 8982TIP3    H148361   4.532   2.228  13.199 -0.3461  0.3736 -1.2918
 8982TIP3    H248362   4.669   2.165  13.211 -0.8129 -0.1805  1.2960
 8983TIP3   OH248363   4.434   6.407   4.909 -0.1456 -0.8415 -0.0013
 8983TIP3    H148364   4.517   6.369   4.936 -0.4198 -2.1779 -1.0382
 8983TIP3    H248365   4.457   6.471   4.842  0.3039  0.8410  1.6888
 8984TIP3   OH248366   2.496   3.353   5.651 -0.0165  0.2256 -0.0467
 8984TIP3    H148367   2.483   3.260   5.635  0.1592  0.1922  0.0067
 8984TIP3    H248368   2.407   3.388   5.659 -0.0660 -0.0840  0.7651
 8985TIP3   OH248369   1.673   0.377  16.024  0.2370  0.0303  0.1753
 8985TIP3    H148370   1.745   0.367  15.962  1.8758  2.2456  1.6475
 8985TIP3    H248371   1.676   0.469  16.049 -1.1491 -0.5495  2.6231
 8986TIP3   OH248372   5.689   2.614   0.352 -0.0046 -0.2544 -0.5809
 8986TIP3    H148373   5.718   2.541   0.407  0.5083 -0.3491 -0.9718
 8986TIP3    H248374   5.653   2.572   0.273  0.1168 -0.0947 -0.7232
 8987TIP3   OH248375   5.307   5.656   5.314  0.1546  0.0711  0.4343
 8987TIP3    H148376   5.328   5.633   5.405 -0.4620  0.2069  0.6123
 8987TIP3    H248377   5.354   5.592   5.261 -1.0153 -1.1753  0.8987
 8988TIP3   OH248378   5.540   6.126   0.351  0.4064  0.0911  0.3393
 8988TIP3    H148379   5.617   6.069   0.346  0.2835 -0.0981  0.5760
 8988TIP3    H248380   5.485   6.099   0.277  0.3061 -0.1671  0.5034
 8989TIP3   OH248381   4.023   3.648  16.670  0.2076 -0.2906 -0.2414
 8989TIP3    H148382   3.990   3.729  16.631  1.5811  0.7456  0.7143
 8989TIP3    H248383   3.966   3.580  16.635 -0.0180  0.8981 -2.2677
 8990TIP3   OH248384   3.360   4.320  15.988 -0.2827 -0.7721  0.0817
 8990TIP3    H148385   3.406   4.237  15.999 -2.9180 -2.3577 -0.2512
 8990TIP3    H248386   3.314   4.333  16.071  0.8851  0.8763  0.4878
 8991TIP3   OH248387   3.511   6.320  13.653 -0.5949 -0.2563  0.0652
 8991TIP3    H148388   3.458   6.272  13.717  0.3931 -0.1342  0.9952
 8991TIP3    H248389   3.476   6.409  13.655 -1.8401 -0.7188 -0.9989
 8992TIP3   OH248390   4.761   4.581   4.115 -0.4620 -0.2793 -0.0365
 8992TIP3    H148391   4.741   4.672   4.095 -0.1863 -0.0432  0.7426
 8992TIP3    H248392   4.780   4.580   4.209  1.1428 -0.8450 -0.3468
 8993TIP3   OH248393   0.859   3.445   2.707  0.4998 -0.1296  0.6364
 8993TIP3    H148394   0.948   3.425   2.681  1.1288  3.5974 -0.3207
 8993TIP3    H248395   0.861   3.446   2.803  1.6770  0.6358  0.6079
 8994TIP3   OH248396   5.817   4.275   1.993  0.0219  0.7262 -0.3667
 8994TIP3    H148397   5.744   4.284   1.932 -0.5361  0.7203  0.3042
 8994TIP3    H248398   5.795   4.330   2.067  0.4745  0.3594  0.0497
 8995TIP3   OH248399   3.924   0.271  11.270  0.3828 -0.4825 -0.2635
 8995TIP3    H148400   3.987   0.252  11.200 -2.3358 -2.8800 -2.1850
 8995TIP3    H248401   3.910   0.365  11.266  0.7497 -0.5037 -2.5486
 8996TIP3   OH248402   2.727   1.840  12.177 -0.1750  0.8275  0.1976
 8996TIP3    H148403   2.689   1.926  12.163 -0.6294  0.6179  0.1304
 8996TIP3    H248404   2.820   1.851  12.159 -0.4346  1.0149 -1.0760
 8997TIP3   OH248405   6.527   4.974   0.037 -0.1656 -0.9014 -0.1297
 8997TIP3    H148406   6.436   5.000   0.052  0.5372  1.8164 -0.3008
 8997TIP3    H248407   6.575   5.011   0.111  1.3876  1.4445 -2.1989
 8998TIP3   OH248408   0.869   6.633   2.721 -0.1766 -0.1028  0.1115
 8998TIP3    H148409   0.862   6.727   2.732 -1.0172 -0.3708  2.2070
 8998TIP3    H248410   0.919   6.604   2.798  0.0499 -1.3662 -0.4949
 8999TIP3   OH248411   3.483   6.776   2.559  0.4121  0.3359 -0.1603
 8999TIP3    H148412   3.392   6.796   2.578  0.0926  1.4360 -2.5901
 8999TIP3    H248413   3.514   6.852   2.509  1.5036 -1.7210 -2.7353
 9000TIP3   OH248414   2.510   1.553   5.264 -0.3665  0.1196 -0.2908
 9000TIP3    H148415   2.515   1.615   5.191 -1.1584 -0.7243 -1.0854
 9000TIP3    H248416   2.570   1.588   5.330 -0.0879  1.2127 -1.1087
 9001TIP3   OH248417   1.507   2.796   0.856 -0.4884  0.1849 -0.2803
 9001TIP3    H148418   1.500   2.888   0.883 -0.4914  0.4611 -1.1915
 9001TIP3    H248419   1.601   2.781   0.845 -0.4533 -0.0737  0.3854
 9002TIP3   OH248420   3.865   3.682  11.295  0.8321 -0.5812 -0.6296
 9002TIP3    H148421   3.772   3.660  11.306  0.7343 -0.0545 -0.3644
 9002TIP3    H248422   3.867   3.732  11.213  0.7075  0.3622 -0.0729
 9003TIP3   OH248423   0.607   5.420  15.474 -0.2477 -0.3860 -0.5108
 9003TIP3    H148424   0.629   5.424  15.381 -0.6079  0.9052 -0.5523
 9003TIP3    H248425   0.536   5.356  15.479 -0.2504 -0.4345 -1.1291
 9004TIP3   OH248426   0.128   2.495   2.639  0.1706  0.0128  0.0630
 9004TIP3    H148427   0.086   2.460   2.561 -0.5883 -0.1970  0.5619
 9004TIP3    H248428   0.171   2.419   2.679 -2.4587 -0.6486  1.7815
 9005TIP3   OH248429   2.677   1.664   5.450 -0.9106  0.1221  0.5658
 9005TIP3    H148430   2.627   1.693   5.527 -0.0867 -0.4709  1.3219
 9005TIP3    H248431   2.764   1.702   5.462 -1.2312  1.4141 -0.9115
 9006TIP3   OH248432   1.932   5.876  11.168  0.2488  0.2117 -0.5730
 9006TIP3    H148433   1.843   5.908  11.183  0.2319 -0.6224  1.1585
 9006TIP3    H248434   1.988   5.950  11.192  0.0957  0.0440  0.2999
 9007TIP3   OH248435   2.381   1.648   5.590 -0.5421 -0.4486 -0.3375
 9007TIP3    H148436   2.309   1.698   5.628 -1.0926 -1.2421 -0.3199
 9007TIP3    H248437   2.368   1.654   5.496 -0.1585  0.0889 -0.3588
 9008TIP3   OH248438   3.481   1.108  16.196  0.3518  0.7349  0.8572
 9008TIP3    H148439   3.516   1.048  16.130 -1.8539 -0.6777  0.9212
 9008TIP3    H248440   3.513   1.194  16.169  1.1042 -0.0821 -0.9464
 9009TIP3   OH248441   6.194   4.628  16.750 -0.5863  0.4174 -0.1395
 9009TIP3    H148442   6.204   4.655  16.841 -0.7230 -0.2204  0.0643
 9009TIP3    H248443   6.179   4.710  16.703  0.9433  0.9037  0.1970
 9010TIP3   OH248444   3.977   5.649  15.856 -0.2912 -0.3545 -0.2099
 9010TIP3    H148445   4.025   5.731  15.866 -1.0109  0.0897 -0.4044
 9010TIP3    H248446   3.957   5.643  15.763  2.5319 -2.3182 -0.7533
 9011TIP3   OH248447   4.820   3.814  16.607 -0.2356 -0.1426  0.2211
 9011TIP3    H148448   4.861   3.838  16.690 -0.1908 -0.5864  0.3316
 9011TIP3    H248449   4.764   3.889  16.585 -0.4064 -0.1084  0.7535
 9012TIP3   OH248450   0.812   3.300   4.658 -0.3622 -0.2106 -0.1083
 9012TIP3    H148451   0.776   3.218   4.691  0.9737 -0.7890 -0.0797
 9012TIP3    H248452   0.738   3.341   4.613 -0.9799 -1.5371 -0.3403
 9013TIP3   OH248453   4.001   4.926  13.812 -0.0712 -0.2213  0.4301
 9013TIP3    H148454   4.000   4.895  13.722 -0.2560 -1.5891  0.8977
 9013TIP3    H248455   4.087   4.967  13.823  0.3676 -1.0202 -0.0348
 9014TIP3   OH248456   3.336   1.318  11.607 -0.1710 -0.0908 -1.0058
 9014TIP3    H148457   3.413   1.269  11.579  0.6086  0.1707  0.6034
 9014TIP3    H248458   3.370   1.406  11.625 -0.4948 -0.4107  1.3304
 9015TIP3   OH248459   1.504   0.856   5.177  0.1109  0.1452 -0.3440
 9015TIP3    H148460   1.582   0.909   5.195 -1.1586  1.5652  1.2309
 9015TIP3    H248461   1.458   0.853   5.261 -1.4019 -0.8946 -1.1843
 9016TIP3   OH248462   2.073   0.583   5.203  0.3458  0.4031  0.2666
 9016TIP3    H148463   1.989   0.552   5.168  1.2169 -1.1554 -0.4720
 9016TIP3    H248464   2.139   0.543   5.147  1.6353  0.8369  1.4428
 9017TIP3   OH248465   5.425   6.384   0.349  0.1359  0.3343 -0.4246
 9017TIP3    H148466   5.412   6.384   0.444 -0.2079  1.4707 -0.4598
 9017TIP3    H248467   5.485   6.311   0.332  0.8980  0.6835  0.7601
 9018TIP3   OH248468   0.406   3.445  13.090 -0.1874 -0.4270 -0.1598
 9018TIP3    H148469   0.339   3.457  13.157  0.2303  0.1795  0.1490
 9018TIP3    H248470   0.417   3.531  13.051  1.5114 -0.1818  0.8202
 9019TIP3   OH248471   5.489   4.826  15.274  0.3739  0.5985  0.0657
 9019TIP3    H148472   5.432   4.753  15.297 -0.2478  1.0902  0.0988
 9019TIP3    H248473   5.538   4.795  15.198 -1.3165  0.8565 -1.1559
 9020TIP3   OH248474   4.286   3.948   0.880 -0.0213  0.0358  0.0171
 9020TIP3    H148475   4.301   3.904   0.963  0.2972  0.5338  0.2224
 9020TIP3    H248476   4.227   3.889   0.832  1.7163 -1.4090 -0.3791
 9021TIP3   OH248477   2.339   2.967   5.257 -0.4276  0.0509 -0.2262
 9021TIP3    H148478   2.280   2.993   5.328 -1.2189 -1.2792 -0.3756
 9021TIP3    H248479   2.331   2.872   5.253 -0.2882  0.0936 -2.0054
 9022TIP3   OH248480   5.062   3.177   6.518 -0.9674  0.3909 -0.0038
 9022TIP3    H148481   4.977   3.167   6.475 -1.1184 -0.6024  0.5095
 9022TIP3    H248482   5.103   3.252   6.474 -2.2415  1.0773 -0.0309
 9023TIP3   OH248483   5.914   2.426   2.964  1.3550  0.2249 -0.1316
 9023TIP3    H148484   5.969   2.350   2.983  1.1679 -0.6879 -2.9213
 9023TIP3    H248485   5.922   2.482   3.041  1.2123 -2.7831  2.1323
 9024TIP3   OH248486   5.322   2.586  13.893  0.9178 -0.6893 -0.3688
 9024TIP3    H148487   5.298   2.657  13.953  1.5818  1.4912 -2.5673
 9024TIP3    H248488   5.332   2.509  13.948 -1.6440  0.5108  1.8709
 9025TIP3   OH248489   6.057   2.777  15.041 -0.0654 -0.1772 -0.1817
 9025TIP3    H148490   6.051   2.780  15.136 -1.1524 -1.2856 -0.2067
 9025TIP3    H248491   5.976   2.819  15.010 -0.8737 -1.9837 -0.5881
 9026TIP3   OH248492   5.950   0.436   1.253 -0.5370 -0.5577  0.8456
 9026TIP3    H148493   5.921   0.350   1.283 -2.4884 -0.5613 -0.9606
 9026TIP3    H248494   5.884   0.464   1.190  1.6072  0.9724 -0.8397
 9027TIP3   OH248495   1.329   2.088  12.197  0.0170 -0.6736 -1.1296
 9027TIP3    H148496   1.335   2.102  12.291  0.7824 -1.0518 -1.1205
 9027TIP3    H248497   1.235   2.084  12.179 -0.2510  3.0543 -0.9208
 9028TIP3   OH248498   3.377   0.477  15.486  1.1096  0.7784  0.9003
 9028TIP3    H148499   3.305   0.539  15.487  2.0255  1.8358  1.9697
 9028TIP3    H248500   3.450   0.525  15.447  0.7913 -0.8453 -1.8743
 9029TIP3   OH248501   1.496   0.857   0.244 -0.2902  0.5546 -0.6409
 9029TIP3    H148502   1.546   0.857   0.326  0.1567  0.6779 -0.9100
 9029TIP3    H248503   1.500   0.948   0.214 -0.8941  0.6200 -0.5345
 9030TIP3   OH248504   5.445   4.474  15.410  0.2008  0.4238  0.3842
 9030TIP3    H148505   5.366   4.445  15.365 -0.5914  1.9300  0.7773
 9030TIP3    H248506   5.508   4.488  15.339  0.7224 -2.4635  0.1965
 9031TIP3   OH248507   6.433   6.432  12.705 -0.5162 -0.0010 -0.4538
 9031TIP3    H148508   6.419   6.438  12.799  1.0578 -0.4544 -0.1869
 9031TIP3    H248509   6.518   6.473  12.690 -1.2918  1.1970 -1.8458
 9032TIP3   OH248510   1.233   1.508   1.963  0.1310 -0.5317  0.7271
 9032TIP3    H148511   1.239   1.421   1.924 -0.1837 -0.4736  0.5419
 9032TIP3    H248512   1.256   1.568   1.891  0.1408 -0.4516  0.7966
 9033TIP3   OH248513   5.268   1.668  17.161  0.3309 -0.0699 -0.5151
 9033TIP3    H148514   5.230   1.663  17.249  0.0233  0.4962 -0.6074
 9033TIP3    H248515   5.283   1.578  17.135 -1.3907 -0.3279 -0.6614
 9034TIP3   OH248516   1.858   0.252  10.887 -0.0330  0.4168  0.7085
 9034TIP3    H148517   1.796   0.263  10.959  0.6543  3.3707  0.9077
 9034TIP3    H248518   1.805   0.223  10.813 -1.3551  1.0681  1.3941
 9035TIP3   OH248519   3.650   2.399  11.537 -0.7900  0.1107 -1.1157
 9035TIP3    H148520   3.698   2.319  11.515 -1.5302 -0.9456  0.9188
 9035TIP3    H248521   3.558   2.375  11.524 -0.8923  1.5013 -3.1059
 9036TIP3   OH248522   3.910   6.441  15.564 -0.5411 -0.2586 -0.2930
 9036TIP3    H148523   3.862   6.393  15.632 -1.7905  1.1976 -0.1278
 9036TIP3    H248524   3.899   6.387  15.486 -1.3330 -0.6133  0.0491
 9037TIP3   OH248525   6.095   1.655   2.614  0.4409  0.5390 -0.3961
 9037TIP3    H148526   6.162   1.605   2.567 -1.1896 -1.6185 -0.4842
 9037TIP3    H248527   6.047   1.702   2.546 -0.9438 -1.3939 -0.7915
 9038TIP3   OH248528   3.154   6.077   4.019 -0.2324 -0.2435 -0.2663
 9038TIP3    H148529   3.235   6.126   4.032  0.0824 -0.9832  0.6409
 9038TIP3    H248530   3.084   6.143   4.026  0.0622 -0.1777  2.8864
 9039TIP3   OH248531   2.691   3.785   0.280 -0.4808 -0.5073  0.2598
 9039TIP3    H148532   2.627   3.772   0.210 -0.9289 -0.0867  0.5833
 9039TIP3    H248533   2.710   3.697   0.313 -0.3378 -0.6973 -0.3255
 9040TIP3   OH248534   3.766   3.071  15.201 -0.3200  0.2051  0.5522
 9040TIP3    H148535   3.773   3.087  15.107 -1.9287 -1.0825  0.1967
 9040TIP3    H248536   3.673   3.056  15.216 -0.2018  1.2441  2.5022
 9041TIP3   OH248537   0.662   5.866  16.783  0.0091 -0.7417  0.1781
 9041TIP3    H148538   0.677   5.932  16.715 -1.9934  0.7734  1.1506
 9041TIP3    H248539   0.579   5.824  16.757 -0.0818 -1.0637  0.9801
 9042TIP3   OH248540   1.106   4.582  13.020 -0.1443  0.2440  0.1176
 9042TIP3    H148541   1.055   4.587  13.101 -0.0263  0.4187  0.1793
 9042TIP3    H248542   1.178   4.643  13.033  0.1705 -0.1212  0.0902
 9043TIP3   OH248543   4.231   4.929   2.135 -0.6676  0.3457  0.1535
 9043TIP3    H148544   4.172   4.912   2.209  0.2983 -0.3831  0.7680
 9043TIP3    H248545   4.300   4.863   2.144  0.4957  1.4939 -0.2912
 9044TIP3   OH248546   1.647   4.342   3.018  0.0216 -0.3195 -0.5745
 9044TIP3    H148547   1.699   4.329   2.938  1.2919  0.1802  0.1492
 9044TIP3    H248548   1.653   4.259   3.065  3.9909  1.0866  1.6653
 9045TIP3   OH248549   2.467   1.434  11.211 -0.3317 -0.1096 -0.2040
 9045TIP3    H148550   2.532   1.452  11.143  0.7545 -2.1248  0.2785
 9045TIP3    H248551   2.386   1.471  11.176  0.7847  1.3103 -1.3700
 9046TIP3   OH248552   2.322   2.401  13.362  0.5467  0.3563 -0.5429
 9046TIP3    H148553   2.351   2.330  13.419  0.2585  0.3379 -0.4193
 9046TIP3    H248554   2.387   2.404  13.292  0.9522  0.4419 -0.1620
 9047TIP3   OH248555   6.783   5.449  16.364 -0.1962 -0.2419  0.0647
 9047TIP3    H148556   6.782   5.491  16.450  0.2085  0.4320 -0.2538
 9047TIP3    H248557   6.692   5.452  16.335 -0.7450 -2.5126  1.4343
 9048TIP3   OH248558   5.525   3.071   4.186  0.2478  0.3745  0.1665
 9048TIP3    H148559   5.465   3.134   4.146 -2.8327 -2.2395  0.4074
 9048TIP3    H248560   5.510   2.989   4.138  2.9883 -0.5978  0.8723
 9049TIP3   OH248561   2.908   4.608   1.296 -0.5055 -0.4597 -0.5585
 9049TIP3    H148562   2.849   4.627   1.369  0.7501 -2.0091  0.9333
 9049TIP3    H248563   2.913   4.689   1.246 -1.4470  0.6142  1.0619
 9050TIP3   OH248564   2.709   4.886  12.208 -0.4271  0.6093  0.2841
 9050TIP3    H148565   2.791   4.929  12.183  0.9066 -1.2321  1.3055
 9050TIP3    H248566   2.691   4.825  12.137 -1.2741  1.4517 -0.2382
 9051TIP3   OH248567   0.072   0.462  14.363  0.7617 -0.2172 -0.1217
 9051TIP3    H148568   0.069   0.410  14.442  0.4877 -1.1402 -0.7325
 9051TIP3    H248569   0.152   0.514  14.371  1.1507 -0.8929  0.3878
 9052TIP3   OH248570   4.660   1.937  17.092 -0.2091 -0.1306  0.0016
 9052TIP3    H148571   4.671   1.850  17.055  1.2810 -0.3265  0.8351
 9052TIP3    H248572   4.643   1.994  17.017 -0.9638 -1.0979 -0.5658
 9053TIP3   OH248573   3.523   5.583   4.400 -0.2877 -0.0733 -0.1758
 9053TIP3    H148574   3.540   5.668   4.440 -0.1559 -0.0522 -0.2743
 9053TIP3    H248575   3.459   5.542   4.457  2.7585 -1.6765  2.2575
 9054TIP3   OH248576   0.952   2.310  16.125 -0.0639 -0.3791 -0.0100
 9054TIP3    H148577   0.918   2.349  16.044  3.9933  0.7401 -1.3384
 9054TIP3    H248578   0.985   2.385  16.175  0.0485 -1.3359  1.3660
 9055TIP3   OH248579   5.203   2.781  11.452 -0.1114  0.0451  0.1615
 9055TIP3    H148580   5.206   2.707  11.391 -0.6746 -1.3771  1.8281
 9055TIP3    H248581   5.112   2.810  11.449  0.2123  0.9865 -0.8401
 9056TIP3   OH248582   6.254   3.992  12.687 -0.2638  0.2689 -0.0322
 9056TIP3    H148583   6.235   3.919  12.746 -2.2239  0.4951 -0.3524
 9056TIP3    H248584   6.294   4.058  12.744  2.5968 -1.4447  0.0432
 9057TIP3   OH248585   6.444   1.106   2.230  0.3115 -0.2319 -0.3058
 9057TIP3    H148586   6.386   1.125   2.156  0.4004 -1.0615 -0.6053
 9057TIP3    H248587   6.529   1.089   2.189  0.1517 -1.6103 -0.1201
 9058TIP3   OH248588   6.203   3.324   5.646  0.1869  0.2730 -0.0437
 9058TIP3    H148589   6.116   3.350   5.617  0.9072  1.7342 -0.9610
 9058TIP3    H248590   6.262   3.389   5.607  1.6227 -0.3169  1.0860
 9059TIP3   OH248591   2.170   2.632  13.388 -0.1476  0.1910  0.0921
 9059TIP3    H148592   2.220   2.696  13.338 -2.5248  1.2644 -1.0023
 9059TIP3    H248593   2.213   2.548  13.371  0.7053  0.9545 -1.5478
 9060TIP3   OH248594   3.085   4.948  17.208  1.0456  0.1183  0.1720
 9060TIP3    H148595   3.021   4.923  17.141  1.9430 -0.1101 -0.6164
 9060TIP3    H248596   3.170   4.938  17.164  1.6415 -0.0555  1.3567
 9061TIP3   OH248597   2.398   3.701  16.303  0.1072 -0.0766 -0.4361
 9061TIP3    H148598   2.346   3.688  16.383 -0.8683  1.3623 -0.8081
 9061TIP3    H248599   2.488   3.708  16.334 -0.3819  1.6048  0.6815
 9062TIP3   OH248600   5.323   2.627  16.554  0.0501  0.0006 -0.1604
 9062TIP3    H148601   5.267   2.621  16.476  1.7233 -0.6012 -1.3530
 9062TIP3    H248602   5.401   2.674  16.524  1.0001 -0.8164  0.9755
 9063TIP3   OH248603   5.533   5.667  15.939  0.1850  0.3120  0.5425
 9063TIP3    H148604   5.511   5.598  15.876  0.0766 -0.8848  1.8759
 9063TIP3    H248605   5.599   5.629  15.996 -0.3670  1.0709  1.7211
 9064TIP3   OH248606   1.407   3.351   4.698  0.5269  0.2836  0.4740
 9064TIP3    H148607   1.349   3.426   4.681  0.3919  0.6117  2.3037
 9064TIP3    H248608   1.479   3.387   4.750  0.8407 -0.7174  0.7448
 9065TIP3   OH248609   6.343   5.416   3.561  0.7995  0.1943 -0.0521
 9065TIP3    H148610   6.284   5.341   3.572 -0.2562  0.8662 -0.9919
 9065TIP3    H248611   6.428   5.377   3.545  0.6659 -0.7994  1.5056
 9066TIP3   OH248612   1.019   5.285   1.495 -0.3723  0.7113 -0.8854
 9066TIP3    H148613   1.083   5.346   1.532 -0.3942 -0.2875  0.8622
 9066TIP3    H248614   0.970   5.337   1.432  0.8521  2.0117 -0.7910
 9067TIP3   OH248615   6.416   4.464   4.257  0.0545 -0.2045 -0.5974
 9067TIP3    H148616   6.404   4.465   4.351 -0.9761  0.1620 -0.7348
 9067TIP3    H248617   6.508   4.440   4.245  0.0131 -0.9109  0.4775
 9068TIP3   OH248618   2.158   3.918   5.474  0.6950 -0.6395  0.2322
 9068TIP3    H148619   2.235   3.875   5.437  1.9926  0.7894  1.2035
 9068TIP3    H248620   2.193   3.974   5.543 -1.0639  1.0343 -0.1960
 9069TIP3   OH248621   2.190   1.849  13.291  0.2741 -0.0631  0.2383
 9069TIP3    H148622   2.098   1.861  13.316  0.3787  0.1861  0.5168
 9069TIP3    H248623   2.207   1.917  13.227 -0.0411 -0.8108 -0.6484
 9070TIP3   OH248624   1.207   0.668  16.546 -0.6946  0.6184 -0.5829
 9070TIP3    H148625   1.208   0.720  16.466 -0.4019  1.4397 -0.0581
 9070TIP3    H248626   1.269   0.712  16.604  0.4025 -0.9540 -0.5078
 9071TIP3   OH248627   3.930   6.667  16.226  0.4319 -0.0091 -0.0299
 9071TIP3    H148628   3.848   6.620  16.213 -1.1635  2.5141  0.4479
 9071TIP3    H248629   3.990   6.602  16.262 -0.5878 -2.5133 -2.6833
 9072TIP3   OH248630   1.207   5.698   3.545  0.5981  0.0365  0.4953
 9072TIP3    H148631   1.194   5.617   3.495  0.7038  0.3006  0.0355
 9072TIP3    H248632   1.302   5.705   3.554  0.6050  0.2832  0.2437
 9073TIP3   OH248633   4.171   5.502  13.330 -0.0966 -0.4526 -0.4732
 9073TIP3    H148634   4.246   5.446  13.312  0.2832 -0.5345  1.2761
 9073TIP3    H248635   4.097   5.442  13.339 -0.0373 -0.5127 -0.3976
 9074TIP3   OH248636   2.001   3.885   1.588 -0.2905 -1.2304  0.5270
 9074TIP3    H148637   1.970   3.805   1.632  0.1573 -0.4912  2.2319
 9074TIP3    H248638   2.035   3.939   1.659 -2.5444  1.4068 -0.3400
 9075TIP3   OH248639   1.970   3.146  14.205  0.5944 -0.1169 -0.5489
 9075TIP3    H148640   2.044   3.207  14.209 -0.3297  0.9145  2.9138
 9075TIP3    H248641   1.892   3.202  14.212 -0.2772 -1.5744  2.4946
 9076TIP3   OH248642   4.476   0.977  16.722 -0.0899  0.2184  0.2271
 9076TIP3    H148643   4.559   1.016  16.696  0.1015 -0.1388  0.2909
 9076TIP3    H248644   4.496   0.884  16.734 -0.6398  0.0183 -0.3742
 9077TIP3   OH248645   5.357   5.773  13.340  0.4286 -0.3336 -0.3475
 9077TIP3    H148646   5.284   5.829  13.368  0.7625  1.6163 -3.1725
 9077TIP3    H248647   5.434   5.811  13.383  0.1022 -1.1947  1.0457
 9078TIP3   OH248648   0.580   5.701  16.361 -0.3931  0.0623  0.1958
 9078TIP3    H148649   0.536   5.782  16.386 -0.0760  0.8242 -1.6386
 9078TIP3    H248650   0.666   5.707  16.402 -0.3242  0.7071 -0.0503
 9079TIP3   OH248651   4.422   0.076   5.807  0.3159  0.1929 -0.4551
 9079TIP3    H148652   4.458  -0.009   5.831 -1.4452 -0.8657 -1.4511
 9079TIP3    H248653   4.342   0.085   5.860  0.3728  1.1157 -0.5157
 9080TIP3   OH248654   5.498   5.340  15.068 -0.1860  0.9055  0.1671
 9080TIP3    H148655   5.490   5.267  15.130  0.2828  0.5639 -0.1680
 9080TIP3    H248656   5.428   5.325  15.005  0.4892  0.2101 -0.4343
 9081TIP3   OH248657   2.777   1.885  13.764 -0.5693 -0.4274 -0.4891
 9081TIP3    H148658   2.746   1.809  13.714  1.4995 -2.8265  1.6949
 9081TIP3    H248659   2.735   1.875  13.850 -0.7279  1.2480 -0.3556
 9082TIP3   OH248660   5.446   4.469  12.843  0.6974  0.5465 -0.3293
 9082TIP3    H148661   5.477   4.535  12.905  0.4723  0.4032 -0.0605
 9082TIP3    H248662   5.352   4.461  12.861  0.8084 -0.1798 -0.0385
 9083TIP3   OH248663   6.455   4.388  15.969 -0.2408 -0.3899  0.5281
 9083TIP3    H148664   6.483   4.473  15.935  2.2358 -0.2698  2.7511
 9083TIP3    H248665   6.400   4.409  16.044 -1.6048 -0.7335 -0.3640
 9084TIP3   OH248666   6.216   5.608   1.929  0.1222 -0.4081  0.1112
 9084TIP3    H148667   6.175   5.553   1.996  0.1016 -0.2855  0.2001
 9084TIP3    H248668   6.205   5.559   1.848 -0.1679 -0.3952  0.1393
 9085TIP3   OH248669   0.229   6.772  13.116  0.2208 -0.3780 -0.5066
 9085TIP3    H148670   0.166   6.718  13.069 -0.3959 -0.8057  0.7916
 9085TIP3    H248671   0.206   6.761  13.208  1.1928  0.7184 -0.1212
 9086TIP3   OH248672   2.307   1.347   2.023  0.3867  0.5657 -0.0089
 9086TIP3    H148673   2.369   1.416   1.998  0.0958  1.3833  1.4492
 9086TIP3    H248674   2.259   1.327   1.942  1.4952  1.0162 -0.7871
 9087TIP3   OH248675   2.314   2.341   2.742  0.2813  0.0990 -0.1408
 9087TIP3    H148676   2.314   2.285   2.820 -1.8308 -0.1920 -0.3384
 9087TIP3    H248677   2.363   2.419   2.770  0.7700 -0.6062  1.0238
 9088TIP3   OH248678   1.343   6.200   2.003 -0.5675  0.0572  0.4825
 9088TIP3    H148679   1.276   6.211   1.935 -0.2555  0.2915  0.2117
 9088TIP3    H248680   1.329   6.274   2.062  0.9036  1.4238 -0.8097
 9089TIP3   OH248681   2.719   2.901   2.378  0.5358  0.3700 -0.0030
 9089TIP3    H148682   2.747   2.817   2.413 -1.2812 -0.7457 -1.1554
 9089TIP3    H248683   2.756   2.966   2.438 -0.2882 -1.3745  2.4283
 9090TIP3   OH248684   0.883   1.822   4.998 -0.0185 -0.5611 -0.1325
 9090TIP3    H148685   0.942   1.782   4.933 -2.3167 -1.7117 -1.5529
 9090TIP3    H248686   0.852   1.748   5.050  1.6321  0.3294  2.2176
 9091TIP3   OH248687   0.106   3.823  11.796  0.3640  0.0570  0.2993
 9091TIP3    H148688   0.132   3.868  11.876 -0.0972  1.0643 -0.1059
 9091TIP3    H248689   0.187   3.785  11.762  1.0446  1.8679 -0.1429
 9092TIP3   OH248690   5.054   2.519  14.165 -0.1693 -0.3807 -0.1973
 9092TIP3    H148691   5.109   2.457  14.212 -1.4997  0.2169  2.2122
 9092TIP3    H248692   5.094   2.604  14.181  0.5987 -0.3900 -1.9693
 9093TIP3   OH248693   5.956   4.425  11.618  0.2991  0.0061  0.2850
 9093TIP3    H148694   6.050   4.416  11.602  0.1596 -0.2882 -0.3716
 9093TIP3    H248695   5.940   4.519  11.612  0.5577  0.0617  0.4455
 9094TIP3   OH248696   6.193   3.850   0.312 -0.5808 -0.1935  0.6852
 9094TIP3    H148697   6.162   3.892   0.392 -0.2678 -0.3179  0.8733
 9094TIP3    H248698   6.223   3.764   0.340 -2.0528 -0.8963  0.1584
 9095TIP3   OH248699   1.124   5.558  11.538 -0.2293  0.0089 -0.4445
 9095TIP3    H148700   1.101   5.576  11.629  1.0930 -0.3992 -0.0155
 9095TIP3    H248701   1.180   5.480  11.542 -0.3627 -0.1661 -1.6289
 9096TIP3   OH248702   5.696   5.321   0.165 -0.0918 -1.0962 -0.1345
 9096TIP3    H148703   5.733   5.233   0.159  0.0082 -0.9585 -2.1139
 9096TIP3    H248704   5.734   5.358   0.245 -0.4052 -2.9559  0.8863
 9097TIP3   OH248705   5.970   4.862  12.953  0.2398 -0.2245  0.0070
 9097TIP3    H148706   5.978   4.851  12.858 -0.5516  2.0989 -0.3619
 9097TIP3    H248707   6.050   4.906  12.980 -0.7295  1.6326 -0.0440
 9098TIP3   OH248708   4.564   4.340  12.048  0.2625  0.1322 -0.0350
 9098TIP3    H148709   4.560   4.259  12.098  1.8485 -1.7333 -2.8076
 9098TIP3    H248710   4.473   4.368  12.041 -0.0804 -0.0673  3.0041
 9099TIP3   OH248711   5.891   5.351  16.247  0.0930  0.3966 -0.4721
 9099TIP3    H148712   5.886   5.446  16.256  3.7384  0.5397  0.9261
 9099TIP3    H248713   5.924   5.337  16.159 -0.3827  0.4212 -0.6546
 9100TIP3   OH248714   3.603   0.443   1.527  0.1946 -0.3755 -0.7941
 9100TIP3    H148715   3.670   0.403   1.583 -0.7872  0.4296  1.0148
 9100TIP3    H248716   3.648   0.513   1.480  1.0718 -1.1634 -1.1303
 9101TIP3   OH248717   6.432   0.488  11.772 -0.1604  0.3758 -0.2255
 9101TIP3    H148718   6.480   0.497  11.690  0.4505 -0.1243  0.0748
 9101TIP3    H248719   6.373   0.564  11.774 -1.5391 -0.6361 -2.0060
 9102TIP3   OH248720   0.154   5.979   0.935 -0.3279 -0.5902 -0.2545
 9102TIP3    H148721   0.075   5.926   0.929  1.2731 -2.9377 -1.6468
 9102TIP3    H248722   0.171   6.008   0.845  0.3431 -0.0362  0.0420
 9103TIP3   OH248723   1.876   3.357   3.842 -0.2622 -0.0231  0.5504
 9103TIP3    H148724   1.931   3.364   3.921 -0.4375  0.7494  0.6066
 9103TIP3    H248725   1.788   3.340   3.875 -0.1253 -0.9122  0.4723
 9104TIP3   OH248726   1.789   3.910  11.609 -0.5002 -0.1459  0.1271
 9104TIP3    H148727   1.799   3.820  11.578 -0.7041 -0.4979  1.0938
 9104TIP3    H248728   1.873   3.951  11.589 -0.5578 -0.4176 -0.7200
 9105TIP3   OH248729   0.239   5.140  11.820  0.0623 -0.2987 -0.4261
 9105TIP3    H148730   0.311   5.202  11.833 -1.0022  1.0395 -0.7773
 9105TIP3    H248731   0.270   5.082  11.751  1.4139 -0.7020  0.4973
 9106TIP3   OH248732   5.130   3.557  17.198  0.2331 -0.6232  0.6369
 9106TIP3    H148733   5.167   3.618  17.261  1.1100  1.0066 -1.3983
 9106TIP3    H248734   5.046   3.596  17.173 -0.9376 -2.1442  2.0383
 9107TIP3   OH248735   5.707   5.151  11.832  0.2792  0.1510 -0.0010
 9107TIP3    H148736   5.615   5.165  11.810  0.2267 -1.9059 -1.2027
 9107TIP3    H248737   5.755   5.187  11.758  0.3322 -1.1651 -0.6144
 9108TIP3   OH248738   3.989   2.078  15.727 -0.1397 -0.4590  0.1766
 9108TIP3    H148739   3.939   2.040  15.655  0.5968 -3.1564  1.0143
 9108TIP3    H248740   3.971   2.021  15.802  0.0087  1.6244  1.8632
 9109TIP3   OH248741   0.904   6.647  11.340 -0.6981 -0.8186  0.0229
 9109TIP3    H148742   0.865   6.722  11.295  1.0999  0.3383  0.3318
 9109TIP3    H248743   0.917   6.582  11.271  0.7503  0.4184 -0.9147
 9110TIP3   OH248744   5.587   2.405   4.936 -0.1437 -0.3293  0.0336
 9110TIP3    H148745   5.518   2.373   4.995  0.3085 -0.5836  0.4233
 9110TIP3    H248746   5.553   2.388   4.848 -1.2958  1.0177  0.1960
 9111TIP3   OH248747   4.739   2.007  10.418  0.2776 -0.0010 -0.1273
 9111TIP3    H148748   4.645   2.009  10.433  0.2093 -0.8071 -0.4581
 9111TIP3    H248749   4.765   1.917  10.434  0.8524  0.0236 -0.8698
 9112TIP3   OH248750   3.590   5.099  13.918  0.4809  0.0906 -0.0821
 9112TIP3    H148751   3.635   5.130  13.839  2.2171  0.9122  1.2118
 9112TIP3    H248752   3.600   5.170  13.981 -1.6198 -0.2204  0.6379
 9113TIP3   OH248753   4.499   4.233  13.526  0.3869  0.0240 -0.2948
 9113TIP3    H148754   4.543   4.210  13.608  0.3094 -0.5542 -0.4168
 9113TIP3    H248755   4.523   4.164  13.465 -1.1904 -0.6566 -0.1842
 9114TIP3   OH248756   2.078   5.389  14.659  0.6866  0.2869  0.3028
 9114TIP3    H148757   2.157   5.422  14.618  0.0954  1.2504 -0.0686
 9114TIP3    H248758   2.062   5.448  14.733  0.5181 -0.1228  0.5981
 9115TIP3   OH248759   5.740   0.902   2.357 -0.6097  0.6472  0.0245
 9115TIP3    H148760   5.762   0.878   2.447  2.4938  1.7663 -0.3640
 9115TIP3    H248761   5.790   0.840   2.303 -1.1938  1.0008 -0.9286
 9116TIP3   OH248762   5.069   5.035  11.904 -0.0383  0.1779  0.2025
 9116TIP3    H148763   5.034   5.101  11.844  0.8185 -0.3149 -0.8683
 9116TIP3    H248764   4.999   4.970  11.913 -0.0781  0.1161 -0.4966
 9117TIP3   OH248765   2.255   2.413  11.926  0.6776  0.6331 -0.9041
 9117TIP3    H148766   2.264   2.368  11.842  1.9625  2.8441 -1.9872
 9117TIP3    H248767   2.344   2.429  11.955  0.2328  1.5061  0.0192
 9118TIP3   OH248768   6.430   5.735   3.969 -0.3330  0.0012  0.2777
 9118TIP3    H148769   6.335   5.726   3.965 -0.4604  0.9669  0.8289
 9118TIP3    H248770   6.448   5.759   4.060  0.4577 -0.4534  0.2448
 9119TIP3   OH248771   0.950   2.365   5.340  0.0194 -0.3738 -0.5240
 9119TIP3    H148772   0.922   2.301   5.406  1.3938 -1.0219 -0.5398
 9119TIP3    H248773   0.983   2.439   5.391 -2.2487  0.6654 -0.5033
 9120TIP3   OH248774   0.620   6.348  11.872 -0.1755 -0.4740  0.2181
 9120TIP3    H148775   0.627   6.268  11.925  0.8860 -1.1482 -0.9295
 9120TIP3    H248776   0.676   6.411  11.917 -1.2233 -0.2765  1.2785
 9121TIP3   OH248777   1.224   5.820  16.022  0.5702  0.2999  0.2669
 9121TIP3    H148778   1.198   5.729  16.003  2.3817  0.0806 -1.2718
 9121TIP3    H248779   1.155   5.873  15.983  0.5170 -0.3773 -0.5857
 9122TIP3   OH248780   6.208   4.239  16.918  0.0425 -0.3532  0.1809
 9122TIP3    H148781   6.150   4.195  16.856  0.3299 -0.5937  0.0782
 9122TIP3    H248782   6.165   4.230  17.003 -1.1004  1.2972 -0.2012
 9123TIP3   OH248783   6.332   0.702  14.983 -0.0188 -0.0427 -0.0324
 9123TIP3    H148784   6.250   0.748  14.967 -0.7953 -1.1593  0.7365
 9123TIP3    H248785   6.340   0.700  15.078  0.3671 -0.8703 -0.0783
 9124TIP3   OH248786   3.820   2.859  15.598 -0.0040 -0.3995  0.5523
 9124TIP3    H148787   3.884   2.789  15.608 -0.6380 -1.1509 -0.5457
 9124TIP3    H248788   3.872   2.937  15.583  0.6687 -1.0113 -0.3371
 9125TIP3   OH248789   0.402   0.248   2.754  0.3143 -0.2857  0.4840
 9125TIP3    H148790   0.354   0.201   2.823  0.8648 -1.3169  0.1810
 9125TIP3    H248791   0.463   0.183   2.719 -1.2976 -0.3602 -2.3200
 9126TIP3   OH248792   6.621   0.679   4.797 -0.7891 -0.0711 -0.2277
 9126TIP3    H148793   6.619   0.713   4.708  0.3481  0.5814 -0.0215
 9126TIP3    H248794   6.685   0.734   4.842  0.0225 -1.5764  0.4962
 9127TIP3   OH248795   1.694   5.251   2.805 -0.0345  0.7955 -0.0565
 9127TIP3    H148796   1.646   5.323   2.847  0.2875  0.3915  1.0019
 9127TIP3    H248797   1.728   5.290   2.724 -2.3436  1.0305 -0.9549
 9128TIP3   OH248798   3.502   5.710  14.701  1.0793  0.0864  0.7048
 9128TIP3    H148799   3.432   5.749  14.649  0.8466  0.1921  1.0931
 9128TIP3    H248800   3.457   5.652  14.762  1.2922  0.5139  1.2703
 9129TIP3   OH248801   4.473   0.264   0.706  0.7002  0.5783 -0.3641
 9129TIP3    H148802   4.421   0.226   0.635  0.7574  0.7290 -0.4860
 9129TIP3    H248803   4.534   0.195   0.731  0.6925  0.5319 -0.4752
 9130TIP3   OH248804   1.995   5.451  11.931  0.5163 -0.2992  0.1259
 9130TIP3    H148805   1.933   5.521  11.912  1.6938  1.1782  1.6269
 9130TIP3    H248806   1.942   5.383  11.974 -0.3569  0.2418 -0.0792
 9131TIP3   OH248807   1.648   2.381   5.537  0.1746 -0.6068  0.5270
 9131TIP3    H148808   1.609   2.322   5.601 -1.1792  0.2902  0.5350
 9131TIP3    H248809   1.740   2.387   5.563 -0.1771 -0.9248  1.8822
 9132TIP3   OH248810   3.203   0.092   2.578  0.2260 -0.6341  0.1047
 9132TIP3    H148811   3.165   0.149   2.645  2.6633 -0.0802  1.0435
 9132TIP3    H248812   3.162   0.120   2.496 -0.7558  0.4977  0.9716
 9133TIP3   OH248813   2.350   0.639  14.726 -0.2813 -0.2374  0.2498
 9133TIP3    H148814   2.336   0.705  14.658  1.5295 -0.3878 -0.2963
 9133TIP3    H248815   2.343   0.688  14.808 -4.0698 -0.3452  0.0699
 9134TIP3   OH248816   5.035   5.818   5.832 -0.2079  0.7578 -0.2950
 9134TIP3    H148817   4.942   5.811   5.855 -0.4622  1.1642 -1.1421
 9134TIP3    H248818   5.034   5.856   5.744  0.7145 -0.9024 -1.0271
 9135TIP3   OH248819   3.355   4.252   5.508 -0.1447 -1.0064  0.3901
 9135TIP3    H148820   3.310   4.173   5.476 -2.0347  1.0078 -2.1730
 9135TIP3    H248821   3.419   4.272   5.440 -1.5636  1.1784 -0.3444
 9136TIP3   OH248822   2.565   4.460  11.972 -0.7938  0.1795 -0.0483
 9136TIP3    H148823   2.641   4.446  12.029 -0.8488 -0.1226 -0.0464
 9136TIP3    H248824   2.509   4.520  12.020 -0.1995  1.0083 -0.3740
 9137TIP3   OH248825   4.082   2.965  15.793  0.5940 -0.1579  0.6217
 9137TIP3    H148826   4.040   3.049  15.808  1.5691 -0.0973  3.3047
 9137TIP3    H248827   4.091   2.959  15.698 -1.8344  1.5779  0.2579
 9138TIP3   OH248828   5.528   0.859   0.196 -0.0030 -0.3760 -0.1007
 9138TIP3    H148829   5.607   0.824   0.154  0.1400  1.2406 -1.1723
 9138TIP3    H248830   5.484   0.781   0.232  2.2966 -1.2606  0.9095
 9139TIP3   OH248831   4.984   0.810  12.872  0.0249 -0.4799  0.5186
 9139TIP3    H148832   4.994   0.723  12.835  2.2991 -0.2218  0.4289
 9139TIP3    H248833   4.943   0.796  12.957  0.9130 -1.7056  0.7602
 9140TIP3   OH248834   4.329   4.897  17.034  0.3390  0.2177  0.0788
 9140TIP3    H148835   4.388   4.829  17.004 -0.9995 -0.6771 -0.5637
 9140TIP3    H248836   4.336   4.895  17.130 -0.7935 -1.8370  0.1486
 9141TIP3   OH248837   4.424   4.135  12.829  0.3116  0.4615  0.2140
 9141TIP3    H148838   4.445   4.227  12.846  0.1756  0.7301 -1.0086
 9141TIP3    H248839   4.436   4.091  12.913 -1.6805  1.9693  1.3440
 9142TIP3   OH248840   5.946   1.598  14.882  0.0784 -0.5273  0.5901
 9142TIP3    H148841   6.037   1.623  14.863 -0.2451 -0.6778 -1.2252
 9142TIP3    H248842   5.953   1.510  14.920  0.6003 -1.0858 -0.7727
 9143TIP3   OH248843   3.838   1.543   0.587  0.0931  0.4556 -0.0304
 9143TIP3    H148844   3.845   1.631   0.550 -0.1474 -0.2974 -1.9285
 9143TIP3    H248845   3.785   1.555   0.666 -0.0975  1.9931 -0.3653
 9144TIP3   OH248846   5.645   3.578  16.153 -0.3457 -0.4073  0.1633
 9144TIP3    H148847   5.608   3.548  16.236  0.1615  0.0984  0.5694
 9144TIP3    H248848   5.737   3.556  16.158 -0.0397  0.8647  0.3014
 9145TIP3   OH248849   4.824   0.997  10.929  0.3236  0.0733 -0.2015
 9145TIP3    H148850   4.918   1.009  10.943  0.6566 -1.5771 -0.8027
 9145TIP3    H248851   4.811   0.902  10.935 -1.0069  0.1192 -1.8067
 9146TIP3   OH248852   5.150   1.524   1.695  0.0062  0.2456 -0.1238
 9146TIP3    H148853   5.065   1.481   1.693 -0.0354  0.3089  0.2845
 9146TIP3    H248854   5.132   1.614   1.721 -0.0697  0.9204 -2.4346
 9147TIP3   OH248855   1.961   3.941  16.897 -0.2676 -0.6815  0.2428
 9147TIP3    H148856   2.043   3.965  16.854 -1.2321 -0.5499 -1.5393
 9147TIP3    H248857   1.911   4.023  16.901 -1.5196 -1.3366 -1.3686
 9148TIP3   OH248858   4.783   4.551  10.750 -0.4711  0.4108  0.1619
 9148TIP3    H148859   4.719   4.594  10.693 -0.5599  1.9882  1.3867
 9148TIP3    H248860   4.862   4.606  10.742  0.0553 -0.3279  0.2578
 9149TIP3   OH248861   6.115   3.748   6.123  1.0462 -0.5622  0.5908
 9149TIP3    H148862   6.104   3.765   6.029  1.3264 -0.4438  0.5796
 9149TIP3    H248863   6.028   3.764   6.160  1.3171  0.9337  0.5888
 9150TIP3   OH248864   1.830   4.968   1.078 -0.0601  0.1984  0.1145
 9150TIP3    H148865   1.839   4.874   1.062 -0.5266 -0.1785  1.9373
 9150TIP3    H248866   1.874   4.983   1.162  0.2445  1.6659 -0.2811
 9151TIP3   OH248867   6.254   4.380  13.192 -0.6570  0.3850  0.4004
 9151TIP3    H148868   6.304   4.445  13.240 -0.7950  0.6770  0.1477
 9151TIP3    H248869   6.214   4.325  13.260 -0.8556  0.8006  0.6209
 9152TIP3   OH248870   3.453   4.581   3.011 -0.3024 -0.1260 -0.0838
 9152TIP3    H148871   3.542   4.569   2.977 -0.1652  0.5831  0.0086
 9152TIP3    H248872   3.398   4.531   2.952 -0.1093  1.4190 -1.6154
 9153TIP3   OH248873   2.847   5.702  15.134  0.0421  0.7157 -0.3277
 9153TIP3    H148874   2.772   5.686  15.076 -1.1500  2.4634  0.6800
 9153TIP3    H248875   2.836   5.793  15.162  3.0057  1.2544 -0.7934
 9154TIP3   OH248876   1.715   4.462   1.765  0.9085 -0.3774 -0.3643
 9154TIP3    H148877   1.708   4.386   1.823 -0.4828  0.4250  0.5487
 9154TIP3    H248878   1.801   4.453   1.724  1.3337 -1.7052  0.7750
 9155TIP3   OH248879   4.492   3.409   4.396  0.2147 -0.0845  0.6208
 9155TIP3    H148880   4.400   3.383   4.395  0.0450  0.5295 -0.1262
 9155TIP3    H248881   4.506   3.454   4.312  1.0335  0.3870  0.9978
 9156TIP3   OH248882   0.129   2.935  14.736  0.1002 -0.3110  0.0437
 9156TIP3    H148883   0.207   2.989  14.719 -0.0727 -0.3500 -0.9200
 9156TIP3    H248884   0.151   2.849  14.699 -0.1192 -0.5327  0.4276
 9157TIP3   OH248885   5.226   5.565  11.776 -0.2896 -0.4337  0.4019
 9157TIP3    H148886   5.269   5.481  11.756 -0.2945 -0.2481 -0.4233
 9157TIP3    H248887   5.245   5.580  11.868  1.4497 -0.3510  0.0449
 9158TIP3   OH248888   1.158   3.692   0.263 -0.6674 -0.0534 -0.3911
 9158TIP3    H148889   1.219   3.620   0.245 -0.1211  0.1496  0.5882
 9158TIP3    H248890   1.097   3.656   0.327 -1.3972 -0.1538 -1.1302
 9159TIP3   OH248891   4.469   4.265   1.419  0.2066 -0.0663  0.0045
 9159TIP3    H148892   4.473   4.254   1.324 -0.2692 -2.4357  0.2334
 9159TIP3    H248893   4.426   4.350   1.431 -0.2709 -0.0037 -1.8855
 9160TIP3   OH248894   4.713   2.920   2.457  0.2329 -0.0472  0.4175
 9160TIP3    H148895   4.760   2.920   2.374 -0.7231 -0.2654 -0.1278
 9160TIP3    H248896   4.781   2.936   2.523  0.8479  1.0795 -0.4739
 9161TIP3   OH248897   1.096   2.121  14.559 -0.1557 -0.2231  0.7317
 9161TIP3    H148898   1.141   2.049  14.515 -2.5658 -0.5957 -1.2210
 9161TIP3    H248899   1.083   2.089  14.649 -0.2160 -1.7883  0.1921
 9162TIP3   OH248900   1.860   3.590   6.129  0.0602 -0.6247  0.0687
 9162TIP3    H148901   1.942   3.584   6.079 -0.1292  0.0414 -0.3342
 9162TIP3    H248902   1.862   3.515   6.187  1.7254  0.2528  1.1871
 9163TIP3   OH248903   5.291   6.167   2.341 -0.6571  0.1151  0.1063
 9163TIP3    H148904   5.378   6.158   2.379 -0.3791  1.0484 -0.3192
 9163TIP3    H248905   5.233   6.122   2.404  0.0209  0.1434  0.7591
 9164TIP3   OH248906   4.432   2.382   2.088  0.3979 -0.1685  0.2434
 9164TIP3    H148907   4.407   2.391   1.996 -0.0792  2.8924  0.6159
 9164TIP3    H248908   4.357   2.340   2.130 -1.3046  2.5409  0.0370
 9165TIP3   OH248909   4.486   6.254   6.609 -0.1805  0.3211  0.4501
 9165TIP3    H148910   4.554   6.211   6.660  0.3789  2.0086  1.1898
 9165TIP3    H248911   4.404   6.216   6.641  0.3527 -0.9106  0.3583
 9166TIP3   OH248912   2.424   2.652   3.377  0.0514  0.3569  0.2295
 9166TIP3    H148913   2.503   2.600   3.388  0.1785  0.7556  1.2294
 9166TIP3    H248914   2.386   2.621   3.294  0.8441 -0.3601  0.1295
 9167TIP3   OH248915   0.155   1.107  14.437  0.2038  0.4659  0.5413
 9167TIP3    H148916   0.077   1.076  14.392 -0.8721  1.7546  1.4896
 9167TIP3    H248917   0.187   1.180  14.383  0.6564  0.0529  0.2472
 9168TIP3   OH248918   1.742   5.169  12.509  0.0102  0.3816  0.5634
 9168TIP3    H148919   1.745   5.179  12.604 -1.7583 -0.5015  0.7285
 9168TIP3    H248920   1.725   5.257  12.475 -0.1856  0.5585  1.1232
 9169TIP3   OH248921   5.988   5.905   1.732  0.0884 -0.2358 -0.3271
 9169TIP3    H148922   5.936   5.863   1.664 -0.3707 -0.4389  0.1468
 9169TIP3    H248923   5.942   5.886   1.814  0.7151 -0.1223  0.0632
 9170TIP3   OH248924   3.638   4.103  10.666  0.0609  0.3424  0.6337
 9170TIP3    H148925   3.640   4.049  10.587  0.1942  0.8795  0.2707
 9170TIP3    H248926   3.728   4.133  10.678 -0.3441  1.9237 -0.1651
 9171TIP3   OH248927   2.498   2.746   2.553  0.0449  0.3350  0.1941
 9171TIP3    H148928   2.520   2.666   2.506 -1.1816  0.3629 -0.4432
 9171TIP3    H248929   2.542   2.816   2.505  0.7643  0.1018  0.5023
 9172TIP3   OH248930   0.016   3.498   1.267  0.4514  0.6351 -0.5390
 9172TIP3    H148931  -0.059   3.509   1.208  0.2336 -0.3212 -0.4518
 9172TIP3    H248932   0.053   3.413   1.242 -0.2493 -0.2534  1.3526
 9173TIP3   OH248933   5.888   1.339  11.491 -0.2064 -0.1505 -0.3069
 9173TIP3    H148934   5.857   1.323  11.402 -0.3226  0.5924 -0.4028
 9173TIP3    H248935   5.966   1.284  11.499 -0.2130 -0.2472 -0.8565
 9174TIP3   OH248936   0.260   6.224  16.431  0.0171  0.5933  0.3234
 9174TIP3    H148937   0.190   6.209  16.367  1.8681  1.5959 -2.0102
 9174TIP3    H248938   0.316   6.291  16.391  2.4599 -0.3510  2.0249
 9175TIP3   OH248939   2.815   2.797  11.167  0.4607 -0.0043  0.0563
 9175TIP3    H148940   2.830   2.847  11.247  0.0820  0.7003 -0.3063
 9175TIP3    H248941   2.893   2.814  11.113  0.5989 -0.2741  0.1696
 9176TIP3   OH248942   0.099   5.800   0.442  0.6227 -0.4629 -0.0891
 9176TIP3    H148943   0.110   5.735   0.372  1.6879  0.0536 -0.4122
 9176TIP3    H248944   0.152   5.767   0.514  0.5919 -0.3189  0.0001
 9177TIP3   OH248945   2.422   2.162   1.026  0.0039  0.7582  0.2640
 9177TIP3    H148946   2.509   2.126   1.006 -1.5054 -3.5017  0.8412
 9177TIP3    H248947   2.390   2.196   0.943  0.8525 -0.7756 -0.7137
 9178TIP3   OH248948   2.315   5.579   4.150 -0.1981  0.0182 -0.1128
 9178TIP3    H148949   2.241   5.546   4.100  0.8882 -0.0072 -1.7436
 9178TIP3    H248950   2.390   5.567   4.093  1.1283 -0.2347  1.6365
 9179TIP3   OH248951   5.238   4.039   5.647 -0.4491  0.0868  0.3650
 9179TIP3    H148952   5.254   4.019   5.555  0.4126  0.3338  0.4558
 9179TIP3    H248953   5.320   4.075   5.678 -0.1868 -1.5994  1.6950
 9180TIP3   OH248954   2.699   3.542  12.028 -0.0681 -0.2774 -0.1511
 9180TIP3    H148955   2.652   3.538  12.112 -0.0505  0.5874 -0.0946
 9180TIP3    H248956   2.672   3.625  11.989 -0.9486 -1.1857 -1.5253
 9181TIP3   OH248957   1.409   2.539  14.758  0.2051 -0.2598 -0.3293
 9181TIP3    H148958   1.355   2.569  14.685 -2.1462  1.2405  1.9546
 9181TIP3    H248959   1.399   2.444  14.758  1.5046 -0.4283 -2.8846
 9182TIP3   OH248960   2.554   1.964  10.213 -0.2074 -0.1663 -0.4513
 9182TIP3    H148961   2.472   1.971  10.262  0.1738  2.2289 -0.1021
 9182TIP3    H248962   2.564   2.049  10.171  2.7726  0.0284  0.5578
 9183TIP3   OH248963   3.645   0.622   4.589  0.4048  0.5884  0.0842
 9183TIP3    H148964   3.564   0.578   4.616 -0.0401 -0.1267 -2.3024
 9183TIP3    H248965   3.625   0.657   4.502  2.0785  2.0288  0.2584
 9184TIP3   OH248966   4.232   5.235  17.042  0.2217 -0.3481 -0.0396
 9184TIP3    H148967   4.272   5.248  16.956 -0.1070 -0.8952 -0.2805
 9184TIP3    H248968   4.139   5.226  17.024 -0.2274  2.5257  0.6909
 9185TIP3   OH248969   4.799   3.648  11.378 -0.4634 -0.1954 -0.5430
 9185TIP3    H148970   4.717   3.681  11.342 -1.3858 -0.4343  1.2883
 9185TIP3    H248971   4.848   3.726  11.403 -1.5272 -0.0971  1.3433
 9186TIP3   OH248972   3.977   0.495  17.026 -0.3468 -0.3325  0.0150
 9186TIP3    H148973   3.952   0.446  17.104  0.0772  0.6314  0.7725
 9186TIP3    H248974   3.939   0.582  17.039  0.8333  0.2369 -0.2097
 9187TIP3   OH248975   5.011   5.764   6.635  0.3188  0.0461 -0.3157
 9187TIP3    H148976   5.048   5.814   6.563 -0.0031 -2.5976 -2.3774
 9187TIP3    H248977   5.083   5.752   6.696  1.1821  0.3902 -1.2590
 9188TIP3   OH248978   6.691   1.996  13.540 -0.2015 -0.0660  0.2685
 9188TIP3    H148979   6.667   2.086  13.562 -2.7417 -0.9753  1.3840
 9188TIP3    H248980   6.752   1.970  13.609  2.9670  1.7476 -1.7246
 9189TIP3   OH248981   0.461   2.103  17.062  0.1888 -0.2545 -0.1444
 9189TIP3    H148982   0.526   2.050  17.108  0.1514  0.0327  0.2436
 9189TIP3    H248983   0.448   2.179  17.119 -0.9149 -0.5923  0.0782
 9190TIP3   OH248984   6.041   0.567  17.028 -0.2584  0.1156 -0.7889
 9190TIP3    H148985   6.090   0.625  17.087 -0.4226 -1.8092  1.3422
 9190TIP3    H248986   6.103   0.543  16.960  0.8478  0.0825  0.2177
 9191TIP3   OH248987   3.588   2.766   5.913  0.2024  0.0981  0.2085
 9191TIP3    H148988   3.597   2.851   5.871  2.9153  0.3205  1.1110
 9191TIP3    H248989   3.615   2.703   5.845  2.0096  0.2748  0.7237
 9192TIP3   OH248990   1.448   1.211  11.620 -0.0718 -0.3082 -0.5470
 9192TIP3    H148991   1.392   1.136  11.643 -0.3676 -0.0589 -0.4534
 9192TIP3    H248992   1.392   1.267  11.566  0.8750 -1.3073 -2.6194
 9193TIP3   OH248993   4.392   6.518  14.586 -0.0253 -0.0088 -0.1550
 9193TIP3    H148994   4.385   6.600  14.637 -0.2557 -0.2972  0.2896
 9193TIP3    H248995   4.352   6.452  14.643  0.6185 -0.5255 -0.3068
 9194TIP3   OH248996   0.375   0.593   4.024  0.1904  0.5535 -0.5671
 9194TIP3    H148997   0.377   0.502   4.056 -1.3651  1.0272  0.9409
 9194TIP3    H248998   0.453   0.633   4.062  1.7014 -0.4928 -2.4211
 9195TIP3   OH248999   3.157   4.778  14.028 -0.1476 -0.0297  0.1260
 9195TIP3    H149000   3.203   4.767  13.945  2.7160 -0.9445  1.7563
 9195TIP3    H249001   3.095   4.849  14.012  1.0049  0.4461 -2.5060
 9196TIP3   OH249002   5.193   6.732   2.984 -0.0644  0.5278 -0.2377
 9196TIP3    H149003   5.137   6.655   2.989  0.4583  0.0743 -1.1623
 9196TIP3    H249004   5.179   6.766   2.895  1.6942 -0.0439 -0.7619
 9197TIP3   OH249005   4.393   4.446   0.057  0.1953 -0.3426  0.0899
 9197TIP3    H149006   4.355   4.359   0.047 -1.5427  0.3822  0.2932
 9197TIP3    H249007   4.385   4.466   0.150 -0.2883  0.4178 -0.1070
 9198TIP3   OH249008   1.929   5.596   2.966 -0.1634 -0.0891 -0.5081
 9198TIP3    H149009   1.921   5.622   3.058  0.4955  2.7002 -1.2013
 9198TIP3    H249010   1.996   5.655   2.930  1.6638 -3.0104 -2.1006
 9199TIP3   OH249011   1.869   0.085  16.199  0.0071  0.1148 -0.5194
 9199TIP3    H149012   1.913   0.002  16.212  1.1837  0.5826 -1.4291
 9199TIP3    H249013   1.910   0.123  16.121 -1.3351  1.0028 -0.8347
 9200TIP3   OH249014   5.172   5.285   5.525  0.1427 -0.0716  0.3150
 9200TIP3    H149015   5.186   5.318   5.614  0.8997 -2.4181  1.1093
 9200TIP3    H249016   5.259   5.261   5.495 -0.2698 -0.4497 -0.5865
 9201TIP3   OH249017   1.213   2.545  15.771  0.0517  0.0734  0.5495
 9201TIP3    H149018   1.266   2.576  15.845 -0.9044  1.8642  0.5080
 9201TIP3    H249019   1.149   2.487  15.811  0.0083  0.4527  1.0377
 9202TIP3   OH249020   6.148   4.351  14.818 -0.2176 -0.4538  0.3394
 9202TIP3    H149021   6.160   4.405  14.740 -3.0711 -0.1779  0.0407
 9202TIP3    H249022   6.143   4.414  14.890 -2.9777 -0.2838  0.0567
 9203TIP3   OH249023   5.796   6.754   0.859 -0.1523  0.3642  0.4811
 9203TIP3    H149024   5.835   6.759   0.772  0.4296 -0.8391  0.6567
 9203TIP3    H249025   5.869   6.728   0.916 -1.3649 -2.9761  0.6463
 9204TIP3   OH249026   0.881   1.190   0.669 -0.1378  0.1161 -0.8063
 9204TIP3    H149027   0.907   1.117   0.613 -1.7740 -0.6575 -0.5735
 9204TIP3    H249028   0.961   1.215   0.715  0.0917 -2.5867  0.3261
 9205TIP3   OH249029   2.067   2.834  15.025  0.4658  0.0459 -0.1072
 9205TIP3    H149030   2.162   2.845  15.034  0.3227  0.2013  1.4884
 9205TIP3    H249031   2.032   2.866  15.108 -0.8818 -1.2607 -0.1494
 9206TIP3   OH249032   2.462   2.563   2.781 -0.5052 -0.1359 -0.0652
 9206TIP3    H149033   2.456   2.648   2.737  1.3839  0.5671  0.9914
 9206TIP3    H249034   2.555   2.543   2.783 -0.7348 -1.1412  1.7483
 9207TIP3   OH249035   3.005   0.909   5.928 -0.5010  0.5098 -0.7484
 9207TIP3    H149036   2.986   0.859   6.008  0.3680  1.2659 -0.0656
 9207TIP3    H249037   3.011   1.000   5.957  0.4876  0.7124 -1.5674
 9208TIP3   OH249038   3.845   0.744   2.466 -0.2665 -0.7414 -0.3068
 9208TIP3    H149039   3.926   0.710   2.504  1.8765  3.5808 -0.6912
 9208TIP3    H249040   3.854   0.726   2.372  1.6087  2.0628 -0.7370
 9209TIP3   OH249041   4.357   3.944  16.656 -0.2416  0.0902  0.2205
 9209TIP3    H149042   4.279   3.997  16.672  0.4404  0.8536  1.1116
 9209TIP3    H249043   4.336   3.892  16.579 -1.9194 -0.2744  0.9092
 9210TIP3   OH249044   0.260   5.150  16.219  0.4703  0.8933  0.1230
 9210TIP3    H149045   0.352   5.158  16.246  0.5703 -1.8875  0.7415
 9210TIP3    H249046   0.257   5.069  16.168 -1.6403  0.9726  0.0729
 9211TIP3   OH249047   3.247   3.004  14.350 -0.5085  0.2660  0.3994
 9211TIP3    H149048   3.203   3.085  14.378 -0.0009  0.7153 -0.0995
 9211TIP3    H249049   3.306   3.032  14.280 -1.7542 -0.8550 -1.1274
 9212TIP3   OH249050   0.806   2.622  14.691  0.3825 -1.0022  0.2669
 9212TIP3    H149051   0.761   2.690  14.742  0.4669 -1.2113  0.6207
 9212TIP3    H249052   0.753   2.543  14.704  0.0343 -0.8998 -0.5086
 9213TIP3   OH249053   1.299   1.513   3.855 -0.3746  0.3470  0.4011
 9213TIP3    H149054   1.285   1.533   3.762 -0.3791 -1.4057  0.0142
 9213TIP3    H249055   1.323   1.420   3.856 -1.5057  0.0569  2.2586
 9214TIP3   OH249056   6.136   1.982   5.173  0.6481  0.3544  0.5199
 9214TIP3    H149057   6.220   2.022   5.152 -0.5366  3.0374  0.6926
 9214TIP3    H249058   6.071   2.050   5.154 -1.4964 -1.6365  0.4334
 9215TIP3   OH249059   0.689   2.025   1.902 -0.0187  0.5484  0.2159
 9215TIP3    H149060   0.756   2.091   1.882 -1.1883  1.1403 -1.9057
 9215TIP3    H249061   0.739   1.948   1.931  1.5349  1.2701 -0.4906
 9216TIP3   OH249062   3.510   6.159  16.651 -0.5458  0.7721 -0.9095
 9216TIP3    H149063   3.426   6.148  16.605 -0.3931 -0.5487 -0.9032
 9216TIP3    H249064   3.547   6.071  16.654  0.2373  1.1291  0.2527
 9217TIP3   OH249065   3.130   4.889  13.238  0.1568 -0.5651  0.3983
 9217TIP3    H149066   3.053   4.921  13.285 -0.2881 -0.8830 -0.1090
 9217TIP3    H249067   3.136   4.796  13.261 -0.0292 -0.7092 -0.1291
 9218TIP3   OH249068   6.635   1.713   0.758  0.0195 -0.0001  0.3063
 9218TIP3    H149069   6.651   1.628   0.798 -0.1056  0.0290  0.4206
 9218TIP3    H249070   6.594   1.764   0.828  1.7441  0.7391  0.8168
 9219TIP3   OH249071   2.922   0.827  11.604 -0.4570 -0.2530  0.4038
 9219TIP3    H149072   2.887   0.768  11.538 -2.7589  0.8834  0.5751
 9219TIP3    H249073   2.952   0.903  11.553  3.4070 -1.8756  0.0725
 9220TIP3   OH249074   2.854   6.077  13.965 -0.3418 -0.7307 -0.3354
 9220TIP3    H149075   2.935   6.029  13.985 -0.2385 -1.6341 -2.8170
 9220TIP3    H249076   2.786   6.030  14.013  0.6316  0.3064  2.1508
 9221TIP3   OH249077   0.687   3.278  14.417  0.1540 -0.0660  0.1487
 9221TIP3    H149078   0.660   3.294  14.508  1.2127  0.1249  0.4402
 9221TIP3    H249079   0.734   3.358  14.392 -0.3819  0.0001 -0.6670
 9222TIP3   OH249080   1.643   5.181  16.811  0.2763 -0.1316  0.5970
 9222TIP3    H149081   1.699   5.111  16.777 -0.1522  0.5447 -1.5621
 9222TIP3    H249082   1.555   5.158  16.782 -0.3015 -0.2096  2.3876
 9223TIP3   OH249083   0.979   4.378  15.378 -0.1101 -0.3786  0.2360
 9223TIP3    H149084   1.024   4.418  15.305  1.0192  0.8491  1.5759
 9223TIP3    H249085   0.903   4.334  15.339  0.6302  0.0196 -1.6710
 9224TIP3   OH249086   4.495   0.337   5.741 -0.6530  0.1738  0.7653
 9224TIP3    H149087   4.572   0.297   5.699 -0.4608 -0.3614  1.6070
 9224TIP3    H249088   4.446   0.263   5.777 -1.5845  0.5150  0.2045
 9225TIP3   OH249089   3.098   3.364  16.053  0.0684  0.0313 -0.6341
 9225TIP3    H149090   3.055   3.374  16.138  1.8027  1.0070  0.1396
 9225TIP3    H249091   3.030   3.325  15.997 -1.0789 -0.6516  1.1800
 9226TIP3   OH249092   5.432   1.852   2.281  0.1036 -0.1265 -0.1259
 9226TIP3    H149093   5.501   1.912   2.310  0.9055 -1.4059  0.6536
 9226TIP3    H249094   5.476   1.768   2.272 -1.4336 -1.0332  0.6942
 9227TIP3   OH249095   3.591   2.562   0.389 -0.1626 -0.3054  0.4815
 9227TIP3    H149096   3.541   2.623   0.443 -0.4673  0.5325 -0.7419
 9227TIP3    H249097   3.662   2.532   0.447  0.3694  1.6915  0.9072
 9228TIP3   OH249098   6.295   2.851   1.654  0.4982  0.4278  0.2785
 9228TIP3    H149099   6.280   2.776   1.596 -1.0312 -1.4093  2.9449
 9228TIP3    H249100   6.386   2.843   1.681  1.0391  0.9372 -1.3462
 9229TIP3   OH249101   3.239   3.154   1.428  0.4621  0.3720  0.7691
 9229TIP3    H149102   3.150   3.149   1.395  0.5402 -0.1939  0.6366
 9229TIP3    H249103   3.267   3.244   1.410  0.3046  0.2303 -0.1837
 9230TIP3   OH249104   4.729   6.492   0.839 -0.3998 -0.1637  0.1448
 9230TIP3    H149105   4.645   6.511   0.797 -0.5695  1.5900  1.2224
 9230TIP3    H249106   4.712   6.505   0.932  1.2523  0.8872  0.3015
 9231TIP3   OH249107   5.394   4.896   2.884 -0.4600 -0.8737 -0.4378
 9231TIP3    H149108   5.405   4.981   2.842  0.1410 -0.2788  0.9309
 9231TIP3    H249109   5.466   4.843   2.850  1.7913  0.5026  2.0954
 9232TIP3   OH249110   3.962   4.656   3.609  0.6604  0.6445  0.2517
 9232TIP3    H149111   4.025   4.598   3.653  0.7606  1.1367  0.7564
 9232TIP3    H249112   3.927   4.711   3.679 -0.7449  0.0152  0.0642
 9233TIP3   OH249113   5.539   1.943   3.708  0.0270 -0.2212  0.7399
 9233TIP3    H149114   5.534   1.850   3.730  1.3291 -0.3117  0.6854
 9233TIP3    H249115   5.450   1.966   3.681 -0.3967 -1.3514  1.1356
 9234TIP3   OH249116   0.967   4.306  13.774 -0.2756 -0.4428 -0.2459
 9234TIP3    H149117   0.882   4.272  13.747 -0.7197  0.5423 -0.1280
 9234TIP3    H249118   0.946   4.379  13.833  0.6437 -0.1508 -0.2666
 9235TIP3   OH249119   4.719   6.438   4.385 -0.4973 -0.2933 -0.3609
 9235TIP3    H149120   4.802   6.418   4.342 -0.5553  1.1566 -1.1874
 9235TIP3    H249121   4.655   6.441   4.315 -1.2162 -1.2229  0.2524
 9236TIP3   OH249122   5.189   4.945  16.273  0.0355  0.1867 -0.3641
 9236TIP3    H149123   5.173   5.036  16.251  1.6261  1.4848  3.4718
 9236TIP3    H249124   5.108   4.916  16.315  0.4215  0.6036  0.6741
 9237TIP3   OH249125   2.254   3.997   4.965  0.3652  0.2818  0.9481
 9237TIP3    H149126   2.309   3.923   4.939 -2.0997 -0.5725 -2.1399
 9237TIP3    H249127   2.205   3.965   5.042 -0.5167 -1.2531 -0.2191
 9238TIP3   OH249128   4.106   3.022  12.660 -0.0330 -0.9941 -0.3482
 9238TIP3    H149129   4.043   2.994  12.726 -1.3571  0.0986 -1.1072
 9238TIP3    H249130   4.101   3.118  12.662  1.9171 -0.8819 -0.1349
 9239TIP3   OH249131   1.554   4.953   6.585 -0.3663 -0.3717 -0.4987
 9239TIP3    H149132   1.618   4.901   6.634 -2.2957 -1.5196  0.8447
 9239TIP3    H249133   1.606   5.024   6.547  1.8570 -1.7270 -0.1251
 9240TIP3   OH249134   2.544   3.092  11.418 -0.3345  0.4555  0.0532
 9240TIP3    H149135   2.487   3.138  11.479 -0.1505 -0.5139  0.9700
 9240TIP3    H249136   2.485   3.033  11.370 -0.0082 -1.0851  1.5177
 9241TIP3   OH249137   1.724   1.366   3.236  0.2260 -0.5609 -0.0850
 9241TIP3    H149138   1.729   1.433   3.305 -1.0075  0.6114 -1.0816
 9241TIP3    H249139   1.815   1.340   3.220  0.9992  2.6032 -1.2704
 9242TIP3   OH249140   3.683   5.467  16.586 -0.4272 -0.3811  0.0793
 9242TIP3    H149141   3.670   5.392  16.528 -1.0938  0.7982 -1.3167
 9242TIP3    H249142   3.676   5.544  16.529  1.4007  0.7168  1.2795
 9243TIP3   OH249143   4.648   5.189   6.585  0.0327 -0.5843 -0.1477
 9243TIP3    H149144   4.695   5.120   6.631 -0.4599  0.2304  1.5955
 9243TIP3    H249145   4.682   5.270   6.622 -0.0423  0.1098 -1.5533
 9244TIP3   OH249146   4.634   4.404  14.088 -0.6853 -0.1979 -0.5279
 9244TIP3    H149147   4.544   4.416  14.057 -0.9473  0.0242  0.3135
 9244TIP3    H249148   4.625   4.359  14.172 -0.0774  0.8923  0.1345
 9245TIP3   OH249149   3.359   2.433   0.837 -0.2022 -0.6284  0.3521
 9245TIP3    H149150   3.296   2.492   0.796 -0.9348 -0.6807  1.4074
 9245TIP3    H249151   3.314   2.348   0.841  0.3694 -0.9532  0.0396
 9246TIP3   OH249152   3.062   2.879   1.697  0.4037  0.0628  0.2638
 9246TIP3    H149153   3.151   2.858   1.668  1.2682  2.2767  1.2159
 9246TIP3    H249154   3.014   2.894   1.615  1.1589 -0.1662 -0.2312
 9247TIP3   OH249155   5.950   5.966   5.376  0.2724  0.1161  0.1787
 9247TIP3    H149156   5.883   5.978   5.444 -0.7381  0.5520 -0.8843
 9247TIP3    H249157   5.965   6.053   5.340  2.0921  0.1763  1.0144
 9248TIP3   OH249158   0.967   5.359  14.439  0.1261 -0.7829 -0.2499
 9248TIP3    H149159   1.033   5.429  14.438 -0.3544 -0.3204 -1.1745
 9248TIP3    H249160   0.891   5.399  14.482 -0.4402 -0.4496 -1.5425
 9249TIP3   OH249161   4.246   4.128  15.118  0.0978 -0.0458  0.0593
 9249TIP3    H149162   4.219   4.075  15.193 -1.0577  1.3294  0.6282
 9249TIP3    H249163   4.169   4.130  15.061  0.6188 -0.1848 -0.6551
 9250TIP3   OH249164   0.985   6.581   0.673 -0.0167  0.0570  0.2299
 9250TIP3    H149165   1.026   6.500   0.703 -0.5778 -0.0927  0.5990
 9250TIP3    H249166   1.058   6.644   0.667  0.5350 -0.6512 -0.7208
 9251TIP3   OH249167   1.211   0.140   5.559  0.2247  0.5754  0.0471
 9251TIP3    H149168   1.193   0.055   5.517  0.8138  1.5630 -2.2742
 9251TIP3    H249169   1.147   0.199   5.520  1.3737  1.7165 -0.1085
 9252TIP3   OH249170   0.565   6.029  15.504  0.0059  0.1365 -0.0112
 9252TIP3    H149171   0.502   6.082  15.456  2.2821  2.3499 -0.6381
 9252TIP3    H249172   0.585   6.081  15.582  1.4785 -0.2523 -0.1083
 9253TIP3   OH249173   2.029   1.842  15.763 -0.2512  0.2157  0.6273
 9253TIP3    H149174   1.979   1.784  15.820  1.8965 -1.4640  0.8797
 9253TIP3    H249175   1.983   1.839  15.679 -0.5103 -1.3589  0.8203
 9254TIP3   OH249176   1.750   0.904  15.897  0.1630 -0.0410 -0.0205
 9254TIP3    H149177   1.673   0.961  15.893  0.9067  1.0899  1.3778
 9254TIP3    H249178   1.822   0.960  15.868  0.8850 -0.3126  1.2364
 9255TIP3   OH249179   4.046   2.264   0.071 -0.4248 -0.0938 -0.2926
 9255TIP3    H149180   4.038   2.189   0.130 -1.2508 -0.6422 -1.1026
 9255TIP3    H249181   3.956   2.290   0.052 -0.1519  0.9112 -0.2737
 9256TIP3   OH249182   0.476   2.560   3.057  0.3733  0.4823  0.5402
 9256TIP3    H149183   0.560   2.549   3.103 -0.0976  1.4819  1.6765
 9256TIP3    H249184   0.411   2.560   3.127 -0.8553 -2.9471 -0.5495
 9257TIP3   OH249185   3.794   2.438  15.323 -0.3635  0.2398  0.0981
 9257TIP3    H149186   3.845   2.467  15.398  0.0838 -1.3143  0.4101
 9257TIP3    H249187   3.710   2.483  15.332  0.0367  0.8268  0.9710
 9258TIP3   OH249188   4.329   3.084  14.395 -0.3237  0.0365 -0.0695
 9258TIP3    H149189   4.274   3.006  14.403 -1.0770  0.7251  1.4265
 9258TIP3    H249190   4.299   3.125  14.314 -1.4040 -0.0681  0.2664
 9259TIP3   OH249191   4.617   5.364   5.547  0.0995  0.1654 -0.2629
 9259TIP3    H149192   4.631   5.339   5.455  1.0857  1.6190 -0.5286
 9259TIP3    H249193   4.683   5.315   5.595 -0.6587 -0.8853 -0.2640
 9260TIP3   OH249194   5.654   6.697  11.740  0.3200  0.2636  0.3773
 9260TIP3    H149195   5.718   6.654  11.682  0.6874  0.8054  0.3720
 9260TIP3    H249196   5.706   6.725  11.815 -0.4989 -2.0900  1.8646
 9261TIP3   OH249197   4.469   2.396   5.325  0.1979  0.2638  0.5296
 9261TIP3    H149198   4.460   2.306   5.354  1.2945  0.4460  1.4875
 9261TIP3    H249199   4.426   2.399   5.240  1.0228 -1.4057  0.0365
 9262TIP3   OH249200   5.969   1.873  15.747  0.2203  0.3249 -0.1476
 9262TIP3    H149201   6.032   1.919  15.691  0.5779  1.6312  1.2806
 9262TIP3    H249202   5.885   1.883  15.703  0.7434  0.0062 -1.2266
 9263TIP3   OH249203   6.211   6.492  11.513  0.0997  0.5557  0.0338
 9263TIP3    H149204   6.214   6.478  11.608 -1.2801  0.1277  0.0219
 9263TIP3    H249205   6.118   6.509  11.495  0.5504  1.9528 -1.0525
 9264TIP3   OH249206   5.132   3.034   3.254  0.1918 -0.0912 -0.3786
 9264TIP3    H149207   5.064   3.090   3.216 -0.0145 -1.8753 -2.7194
 9264TIP3    H249208   5.093   3.003   3.336 -1.1636  0.2113 -0.8839
 9265TIP3   OH249209   3.763   5.410   4.395  0.4654  0.1721 -0.3445
 9265TIP3    H149210   3.782   5.395   4.487  0.5128  1.1554 -0.1939
 9265TIP3    H249211   3.681   5.460   4.396 -0.4478 -1.2713 -0.8871
 9266TIP3   OH249212   4.665   6.621   4.061  0.3821  0.5132  0.3786
 9266TIP3    H149213   4.591   6.566   4.088 -0.4229  1.8752  0.9541
 9266TIP3    H249214   4.740   6.561   4.061 -1.0808 -1.4199 -2.3804
 9267TIP3   OH249215   4.489   6.760   0.719  0.5628 -0.4923 -0.3499
 9267TIP3    H149216   4.448   6.719   0.795  1.0648  0.5771  0.5210
 9267TIP3    H249217   4.514   6.687   0.663  1.8911 -1.4100  1.3841
 9268TIP3   OH249218   4.316   0.102  12.657 -0.1024 -0.1575  0.3568
 9268TIP3    H149219   4.285   0.190  12.636  1.3013  0.2062 -0.2571
 9268TIP3    H249220   4.372   0.114  12.733 -3.2390 -1.1365  2.9524
 9269TIP3   OH249221   0.619   0.019  14.054 -0.4130 -0.1738 -0.3116
 9269TIP3    H149222   0.550   0.016  13.987 -0.7840  0.0951  0.0552
 9269TIP3    H249223   0.687  -0.038  14.021 -0.4800  0.1718 -1.0562
 9270TIP3   OH249224   1.066   6.180  16.505 -0.0585 -0.1713 -0.4356
 9270TIP3    H149225   1.008   6.190  16.429 -1.1578 -0.6840  0.3198
 9270TIP3    H249226   1.058   6.087  16.528  1.9405 -0.4940 -1.0135
 9271TIP3   OH249227   2.362   2.478  11.589 -0.1057 -0.7486 -0.2020
 9271TIP3    H149228   2.270   2.454  11.598 -0.4670  0.7105  0.0191
 9271TIP3    H249229   2.407   2.427  11.656 -1.1115  0.5429  1.4800
 9272TIP3   OH249230   3.749   1.279  15.846  0.3387 -0.2568 -0.0766
 9272TIP3    H149231   3.705   1.221  15.910  1.8203  1.3844  2.5024
 9272TIP3    H249232   3.757   1.363  15.892  2.4727  0.6389 -2.0229
 9273TIP3   OH249233   2.706   0.944  13.832  0.0861  0.0913  0.1170
 9273TIP3    H149234   2.724   0.900  13.749  0.1103  0.5752 -0.1345
 9273TIP3    H249235   2.776   1.010  13.840 -0.0362  0.1869  0.4197
 9274TIP3   OH249236   2.196   3.248  15.446  0.8751  0.0569 -0.1330
 9274TIP3    H149237   2.119   3.303  15.456 -0.1432 -1.5036  0.6274
 9274TIP3    H249238   2.196   3.224  15.353 -0.3808 -1.1329  0.1626
 9275TIP3   OH249239   3.212   5.859  11.553 -0.4847 -0.8071 -0.1680
 9275TIP3    H149240   3.206   5.858  11.648 -0.2398  1.3934 -0.1112
 9275TIP3    H249241   3.155   5.787  11.525  0.0548 -1.9746  1.6449
 9276TIP3   OH249242   5.932   0.039   2.602  0.0884 -0.6094 -0.1231
 9276TIP3    H149243   5.965   0.127   2.585  0.1898 -0.8507 -1.2017
 9276TIP3    H249244   5.884   0.047   2.684 -0.7093  0.6639 -0.7056
 9277TIP3   OH249245   0.986   0.338   0.708  0.1857  0.3514  0.0638
 9277TIP3    H149246   0.994   0.335   0.803  0.3467  1.7936  0.1026
 9277TIP3    H249247   0.927   0.265   0.687 -0.8317  0.7808  1.3788
 9278TIP3   OH249248   6.270   2.933  12.512 -0.3216 -0.2734 -0.3794
 9278TIP3    H149249   6.352   2.976  12.487  1.0522 -2.0005  1.0441
 9278TIP3    H249250   6.227   2.914  12.428  0.0955  1.7759 -1.0973
 9279TIP3   OH249251   1.265   2.544  10.437 -0.6024 -0.4112  0.3115
 9279TIP3    H149252   1.176   2.537  10.400 -0.0683  0.4386 -1.1953
 9279TIP3    H249253   1.297   2.453  10.439 -1.5512 -0.7362  0.9975
 9280TIP3   OH249254   5.687   0.419   2.757 -0.1071 -0.3647  0.7135
 9280TIP3    H149255   5.752   0.373   2.704 -0.0024 -0.8174  1.2388
 9280TIP3    H249256   5.609   0.421   2.703  0.7508  1.4362 -0.5203
 9281TIP3   OH249257   5.988   5.862   4.530  0.3459 -0.6608  0.3019
 9281TIP3    H149258   5.963   5.944   4.486 -0.9549  0.4691  3.0479
 9281TIP3    H249259   6.005   5.801   4.458 -0.0472  1.6030 -1.7929
 9282TIP3   OH249260   1.865   4.974   0.523  0.5632  0.3223 -0.2387
 9282TIP3    H149261   1.860   4.948   0.615 -2.5297 -2.0732 -1.0040
 9282TIP3    H249262   1.779   5.010   0.504  0.9935  0.2793 -2.3608
 9283TIP3   OH249263   4.547   0.919  10.902  0.6362  0.1398 -0.0366
 9283TIP3    H149264   4.570   0.838  10.857  0.6177 -0.3136  0.7705
 9283TIP3    H249265   4.628   0.970  10.903  1.7557 -1.5634  3.0394
 9284TIP3   OH249266   4.749   6.462  11.343  0.0072 -0.3300  0.1854
 9284TIP3    H149267   4.752   6.385  11.287  0.9284 -2.5410  3.1517
 9284TIP3    H249268   4.839   6.493  11.346 -0.1395  0.1230  0.0310
 9285TIP3   OH249269   6.620   6.448   3.345  0.1548  0.2747 -0.0858
 9285TIP3    H149270   6.676   6.453   3.269  0.1521  1.4387 -0.0162
 9285TIP3    H249271   6.680   6.433   3.419  0.4106  1.8027  0.0270
 9286TIP3   OH249272   1.155   6.020   4.164 -0.6295  0.1355 -0.4990
 9286TIP3    H149273   1.211   6.033   4.240 -0.3267  3.3027 -1.1969
 9286TIP3    H249274   1.105   5.941   4.184 -0.4613  0.8156  2.9464
 9287TIP3   OH249275   1.117   6.698   1.542  0.2228 -0.0715  0.3926
 9287TIP3    H149276   1.111   6.730   1.632 -1.1001  0.0334  0.2754
 9287TIP3    H249277   1.134   6.777   1.490 -1.0614  0.1704  0.3276
 9288TIP3   OH249278   0.180   4.691   2.063 -0.1512 -0.2573  0.7322
 9288TIP3    H149279   0.135   4.737   2.135 -0.1517 -0.2350  0.7179
 9288TIP3    H249280   0.172   4.599   2.085 -0.4445 -0.2675  0.5889
 9289TIP3   OH249281   0.313   3.979  12.488 -0.6614  0.0200  0.1866
 9289TIP3    H149282   0.301   4.040  12.416 -1.0706 -1.0717 -0.6816
 9289TIP3    H249283   0.366   3.908  12.451  3.8689  1.9940  2.3712
 9290TIP3   OH249284   4.415   5.789  11.968  0.2494 -0.3698  0.4198
 9290TIP3    H149285   4.500   5.778  12.011  0.7754 -1.1988 -0.8121
 9290TIP3    H249286   4.423   5.741  11.885 -0.8601  0.9160 -0.4619
 9291TIP3   OH249287   4.963   4.322  13.134  0.1637  0.0814  0.0493
 9291TIP3    H149288   4.893   4.269  13.095  1.3126  0.2529 -2.3882
 9291TIP3    H249289   4.940   4.412  13.112  0.0322  0.3176  1.1364
 9292TIP3   OH249290   5.459   4.359  14.706 -0.5991 -0.2754 -0.7132
 9292TIP3    H149291   5.469   4.454  14.713 -1.9193 -0.1845  0.1361
 9292TIP3    H249292   5.529   4.323  14.760  0.2980  0.1930 -1.5437
 9293TIP3   OH249293   0.909   4.663  11.289 -0.0830 -0.1808  0.4537
 9293TIP3    H149294   0.820   4.644  11.259 -0.1795  0.6072  0.2404
 9293TIP3    H249295   0.965   4.624  11.223 -0.2821  0.1569  0.0829
 9294TIP3   OH249296   1.181   5.298   3.207 -0.7999  0.0144  0.6959
 9294TIP3    H149297   1.111   5.360   3.188 -1.0080 -1.0244 -2.1031
 9294TIP3    H249298   1.236   5.298   3.129  1.9993  0.3315  2.6013
 9295TIP3   OH249299   5.336   4.931   6.294 -0.8674 -0.0841 -1.0602
 9295TIP3    H149300   5.289   4.883   6.362  1.4797 -0.4003  0.3851
 9295TIP3    H249301   5.339   5.021   6.326  1.9073 -0.5892  0.2458
 9296TIP3   OH249302   6.222   4.504   5.863 -0.3702  0.0616 -0.2624
 9296TIP3    H149303   6.155   4.520   5.929  0.4736 -0.9203  0.8442
 9296TIP3    H249304   6.178   4.449   5.798 -0.7309 -0.3526  0.3231
 9297TIP3   OH249305   0.013   3.779   2.703 -0.7462  0.8984 -0.9094
 9297TIP3    H149306   0.044   3.750   2.789 -1.8826  2.4476  0.0309
 9297TIP3    H249307   0.054   3.717   2.642 -0.2085 -0.4446  0.7537
 9298TIP3   OH249308   4.651   3.631   2.080 -0.2340  0.0263  0.4797
 9298TIP3    H149309   4.586   3.622   2.010  1.0381 -1.7895 -0.4810
 9298TIP3    H249310   4.618   3.575   2.151  0.5913 -1.4014 -0.2504
 9299TIP3   OH249311   1.670   1.200  15.836  0.0975  0.1240 -0.0108
 9299TIP3    H149312   1.677   1.210  15.931 -0.4901 -0.4335  0.1014
 9299TIP3    H249313   1.739   1.138  15.813  0.0758  0.0623  0.0904
 9300TIP3   OH249314   3.724   6.256   5.433  0.8477  0.1273 -0.1218
 9300TIP3    H149315   3.746   6.349   5.436 -1.1460  0.6949 -2.0832
 9300TIP3    H249316   3.734   6.232   5.341  0.9569 -1.5221  0.3033
 9301TIP3   OH249317   5.938   1.895  13.019  0.3299  0.0706  0.0525
 9301TIP3    H149318   5.911   1.804  13.011 -1.0855  0.5471 -0.7366
 9301TIP3    H249319   6.004   1.907  12.950 -2.3398  0.6724 -2.4728
 9302TIP3   OH249320   3.655   1.749  16.336 -0.1433 -0.2958 -0.1203
 9302TIP3    H149321   3.577   1.798  16.361 -1.2539 -1.4805 -1.1497
 9302TIP3    H249322   3.650   1.668  16.387 -1.8056 -2.1988 -3.1082
 9303TIP3   OH249323   5.144   0.262  14.285  0.2499  0.3392 -0.7029
 9303TIP3    H149324   5.064   0.219  14.315  0.7100  0.8590  1.3392
 9303TIP3    H249325   5.194   0.192  14.243  0.9429 -1.1927  2.4804
 9304TIP3   OH249326   5.311   5.509  14.648  0.4935 -0.1900  0.3895
 9304TIP3    H149327   5.396   5.539  14.679  0.1570 -0.0011  1.1486
 9304TIP3    H249328   5.329   5.423  14.608  1.2381  0.4251 -0.6263
 9305TIP3   OH249329   0.012   4.987  11.795  0.5100 -0.0503  0.1348
 9305TIP3    H149330   0.037   4.984  11.702  2.3381  0.8532  0.5909
 9305TIP3    H249331   0.071   5.051  11.834 -0.5638 -0.0800  1.8496
 9306TIP3   OH249332   5.892   0.789   2.166 -0.1868 -0.0399 -0.5247
 9306TIP3    H149333   5.909   0.838   2.086  1.2269  0.2745 -0.0469
 9306TIP3    H249334   5.927   0.702   2.149 -0.1630 -0.0639 -0.3569
 9307TIP3   OH249335   3.032   3.911   3.706  0.1312  0.1803  0.1711
 9307TIP3    H149336   2.950   3.869   3.731 -1.0390  1.6243 -1.1535
 9307TIP3    H249337   3.069   3.942   3.789 -0.3231 -1.0516  0.8442
 9308TIP3   OH249338   5.049   0.671  12.626  0.0557 -0.4224  0.1383
 9308TIP3    H149339   5.127   0.710  12.665 -0.4975 -0.6089  1.4364
 9308TIP3    H249340   5.025   0.732  12.556  1.9357 -0.8807 -0.9399
 9309TIP3   OH249341   1.461   2.207   3.270 -0.2033 -0.1595  0.3507
 9309TIP3    H149342   1.421   2.286   3.233 -1.0164  0.5782  2.7352
 9309TIP3    H249343   1.496   2.236   3.355 -2.7982 -2.9168  2.4528
 9310TIP3   OH249344   0.307   6.454  15.303 -0.2666 -0.2302  0.1925
 9310TIP3    H149345   0.385   6.444  15.248 -1.6838 -1.7403 -1.5949
 9310TIP3    H249346   0.316   6.542  15.341  1.2209  0.4674 -1.6934
 9311TIP3   OH249347   0.648   0.707  16.439 -0.0061 -0.0781 -0.4383
 9311TIP3    H149348   0.571   0.731  16.491 -0.1036 -0.1095 -0.5667
 9311TIP3    H249349   0.615   0.698  16.349  0.0477 -0.5840 -0.4125
 9312TIP3   OH249350   4.375   1.538  15.103 -0.3013  0.1131  0.3244
 9312TIP3    H149351   4.321   1.459  15.108  0.3662 -0.3583  0.0552
 9312TIP3    H249352   4.349   1.578  15.020  1.3764 -1.2938 -0.9036
 9313TIP3   OH249353   5.291   2.205  11.284  0.2041 -0.0202  0.7163
 9313TIP3    H149354   5.201   2.175  11.296 -0.6605  2.2628  0.1727
 9313TIP3    H249355   5.306   2.201  11.190  1.1031 -1.4982  0.8979
 9314TIP3   OH249356   2.494   1.936   0.692  0.1837  0.1747 -0.5182
 9314TIP3    H149357   2.585   1.966   0.694  0.3662 -0.0230 -3.0957
 9314TIP3    H249358   2.500   1.840   0.700  0.2968  0.0792 -1.6242
 9315TIP3   OH249359   3.418   2.142  15.956  0.2793 -0.0298 -0.0994
 9315TIP3    H149360   3.489   2.205  15.966  0.3035 -0.2311  1.0542
 9315TIP3    H249361   3.339   2.191  15.978  0.0458  0.1923 -1.3719
 9316TIP3   OH249362   2.704   2.445   3.569 -0.3311 -0.1687 -0.1509
 9316TIP3    H149363   2.644   2.458   3.643 -1.4442  1.3547 -1.2902
 9316TIP3    H249364   2.682   2.358   3.536 -2.7898  0.8018 -1.2599
 9317TIP3   OH249365   4.322   2.541  13.364 -0.4094  0.0660  0.0202
 9317TIP3    H149366   4.342   2.619  13.416 -1.7430  0.4766 -0.0642
 9317TIP3    H249367   4.406   2.498  13.353 -0.0187  0.2276  2.0971
 9318TIP3   OH249368   4.815   3.941  14.849  1.0184  0.0951 -0.1441
 9318TIP3    H149369   4.777   4.004  14.788 -0.2147 -1.1236 -0.6749
 9318TIP3    H249370   4.910   3.955  14.843  0.8036  1.3051 -0.8706
 9319TIP3   OH249371   4.252   2.753  13.990  0.1736 -0.4468 -0.3106
 9319TIP3    H149372   4.324   2.795  14.036 -1.2866  1.7650  0.0330
 9319TIP3    H249373   4.261   2.784  13.900 -0.0364 -0.5973 -0.3818
 9320TIP3   OH249374   0.443   0.730  12.250  0.1366  0.3081 -0.2564
 9320TIP3    H149375   0.474   0.809  12.207 -0.9800  1.1925  0.5198
 9320TIP3    H249376   0.361   0.708  12.205 -0.2139  0.3285  0.3670
 9321TIP3   OH249377   0.791   6.241  14.208 -0.4409 -1.1090 -0.0754
 9321TIP3    H149378   0.712   6.215  14.256  0.5021 -2.3347  0.8577
 9321TIP3    H249379   0.863   6.220  14.268  0.5180  1.2035 -0.3933
 9322TIP3   OH249380   5.329   2.980   6.336  0.3149 -0.0305  0.0490
 9322TIP3    H149381   5.419   3.003   6.314 -0.1283  0.5841 -1.2066
 9322TIP3    H249382   5.276   3.038   6.281 -0.8343 -0.9811  0.1420
 9323TIP3   OH249383   3.359   2.035  12.505 -0.1593  0.1881  0.3163
 9323TIP3    H149384   3.387   2.090  12.432 -1.2988  0.6618  0.2223
 9323TIP3    H249385   3.397   1.949  12.486  0.8021  0.6898 -0.0533
 9324TIP3   OH249386   3.533   3.673  13.821 -0.6413  0.0942 -0.1605
 9324TIP3    H149387   3.525   3.603  13.756  0.0798  0.4061 -0.5997
 9324TIP3    H249388   3.514   3.631  13.904 -0.4509 -0.5752 -0.4508
 9325TIP3   OH249389   0.566   4.408   6.108 -0.2188 -0.1624  0.2949
 9325TIP3    H149390   0.471   4.407   6.104 -0.2637 -0.6856  1.2223
 9325TIP3    H249391   0.594   4.354   6.034 -0.6013  0.9245 -0.6598
 9326TIP3   OH249392   1.505   1.865   1.835 -0.3610 -0.1854 -0.3559
 9326TIP3    H149393   1.496   1.858   1.930 -1.8319  1.3312 -0.3559
 9326TIP3    H249394   1.595   1.894   1.822 -0.2305 -0.1250  0.6040
 9327TIP3   OH249395   3.387   4.915  15.889  0.2616  0.4863  0.7977
 9327TIP3    H149396   3.422   5.004  15.881 -0.4991  0.6443 -0.9758
 9327TIP3    H249397   3.460   4.858  15.866  0.0214  0.7493 -0.6817
 9328TIP3   OH249398   6.271   5.267  13.367 -0.1372  0.0315 -0.1423
 9328TIP3    H149399   6.187   5.257  13.322 -0.3073  0.4572  0.0757
 9328TIP3    H249400   6.333   5.214  13.315 -0.3955  0.2647 -0.6943
 9329TIP3   OH249401   3.138   5.574  16.289  0.1296  0.9733  0.8800
 9329TIP3    H149402   3.114   5.617  16.371 -1.7633 -2.0597  2.0226
 9329TIP3    H249403   3.065   5.593  16.230  0.7751  1.8892  0.3640
 9330TIP3   OH249404   6.470   4.046   4.309  0.0361  0.4201 -0.5868
 9330TIP3    H149405   6.460   3.953   4.329 -2.5653  0.8541  0.2394
 9330TIP3    H249406   6.486   4.087   4.394 -1.6644  1.0794 -0.5730
 9331TIP3   OH249407   3.718   2.771  14.173  0.0202  0.0139 -0.2104
 9331TIP3    H149408   3.654   2.747  14.106 -1.0612 -0.8350  1.1188
 9331TIP3    H249409   3.782   2.700  14.171 -0.7517 -0.7212  0.5852
 9332TIP3   OH249410   5.021   3.636  16.534  0.0305 -0.2747  0.5270
 9332TIP3    H149411   5.020   3.587  16.453 -0.5100  0.8004 -0.1282
 9332TIP3    H249412   4.955   3.705  16.522 -0.6775 -0.6312  2.2006
 9333TIP3   OH249413   4.313   3.794  14.460  0.3917 -0.0083 -0.3145
 9333TIP3    H149414   4.262   3.874  14.470  0.4748  0.0791 -0.5803
 9333TIP3    H249415   4.388   3.820  14.406  1.2426  0.0980  0.9031
 9334TIP3   OH249416   0.045   5.178   6.601  0.2494 -0.0978  0.2144
 9334TIP3    H149417   0.135   5.186   6.572  0.0654 -0.9577 -0.6129
 9334TIP3    H249418   0.005   5.263   6.580  0.4689 -0.2479 -0.8158
 9335TIP3   OH249419   6.422   2.252   3.217 -0.3906 -0.5157 -0.3849
 9335TIP3    H149420   6.451   2.256   3.126 -1.5973  0.3956 -0.7482
 9335TIP3    H249421   6.502   2.240   3.267  0.7899  2.8000 -1.3109
 9336TIP3   OH249422   0.360   5.783   2.701  0.1834 -0.2050 -0.0983
 9336TIP3    H149423   0.324   5.868   2.675  1.4007  0.3176 -0.1398
 9336TIP3    H249424   0.351   5.781   2.796 -0.0294 -0.1184 -0.1157
 9337TIP3   OH249425   3.066   6.737   3.652  0.2446 -0.2739  0.4779
 9337TIP3    H149426   3.014   6.658   3.636 -0.8685  0.0547  2.3347
 9337TIP3    H249427   3.100   6.726   3.740 -1.2085  2.0284  1.3726
 9338TIP3   OH249428   3.902   5.318  15.907  0.0110 -0.3151 -0.6913
 9338TIP3    H149429   3.912   5.385  15.975 -1.8274  0.2594 -0.9622
 9338TIP3    H249430   3.884   5.367  15.827 -1.2350 -1.1150 -0.9188
 9339TIP3   OH249431   4.735   4.995  13.978  0.9704  0.4832 -0.3186
 9339TIP3    H149432   4.756   4.926  13.915  1.3958 -0.6968  1.0871
 9339TIP3    H249433   4.645   4.975  14.006  2.2838 -1.5831  2.6653
 9340TIP3   OH249434   0.123   3.836   2.007 -0.7677 -0.1166 -0.2195
 9340TIP3    H149435   0.100   3.923   2.037  1.9951  1.0450 -1.2923
 9340TIP3    H249436   0.075   3.826   1.924 -3.2921 -0.7984  1.2501
 9341TIP3   OH249437   2.285   0.744  12.016 -0.2299  0.1441 -0.9430
 9341TIP3    H149438   2.256   0.658  12.048 -1.4990  1.3235  1.1672
 9341TIP3    H249439   2.380   0.735  12.006  0.2946 -0.1900  3.6046
 9342TIP3   OH249440   4.251   5.830  11.371 -0.5853  0.0522 -0.3919
 9342TIP3    H149441   4.290   5.784  11.445  1.7359  0.2069 -1.4458
 9342TIP3    H249442   4.201   5.763  11.324  0.6509 -0.8317 -0.4877
 9343TIP3   OH249443   2.913   6.481   3.608 -0.4435  0.2043  0.4920
 9343TIP3    H149444   2.944   6.397   3.573 -0.5205  1.0576 -1.6665
 9343TIP3    H249445   2.892   6.462   3.700  0.7580 -1.8252  0.3731
 9344TIP3   OH249446   3.821   5.747  16.519  0.1973 -0.4129 -0.4716
 9344TIP3    H149447   3.781   5.827  16.485 -1.6425 -1.4946 -0.8969
 9344TIP3    H249448   3.764   5.720  16.591  2.2868  0.0827  1.4196
 9345TIP3   OH249449   6.366   1.454  16.822  0.5401  0.1183  0.0130
 9345TIP3    H149450   6.316   1.372  16.819  0.6233  0.0727 -0.1500
 9345TIP3    H249451   6.300   1.521  16.841  0.3884  0.0802 -0.3661
 9346TIP3   OH249452   0.911   3.562  11.368 -0.4006 -0.0019  0.3420
 9346TIP3    H149453   0.945   3.472  11.370 -0.1992  0.0383 -0.9313
 9346TIP3    H249454   0.827   3.557  11.414 -0.2866 -0.8050  0.4720
 9347TIP3   OH249455   4.300   6.078  11.238  0.0903 -0.4320  0.1765
 9347TIP3    H149456   4.263   6.152  11.286 -0.1841 -0.4475 -0.0073
 9347TIP3    H249457   4.271   6.001  11.286  1.4890 -0.3817  1.1396
 9348TIP3   OH249458   6.558   6.205  13.988  0.3327  0.8312 -1.1989
 9348TIP3    H149459   6.540   6.201  14.082  1.9827  2.2570 -0.7914
 9348TIP3    H249460   6.472   6.199  13.946 -0.5566  1.8510  0.4506
 9349TIP3   OH249461   0.727   2.627   5.460  0.4312 -0.3161 -0.5998
 9349TIP3    H149462   0.746   2.705   5.408 -3.2787  0.4958 -0.8368
 9349TIP3    H249463   0.689   2.565   5.398 -2.2496 -0.0517  0.7334
 9350TIP3   OH249464   1.361   5.726   5.158  0.4229 -0.0593  0.1771
 9350TIP3    H149465   1.272   5.730   5.125 -0.1710 -0.8124  1.6244
 9350TIP3    H249466   1.374   5.633   5.181  1.4673  0.0938  0.2299
 9351TIP3   OH249467   4.309   3.222  13.645  0.3033  0.5040 -0.1779
 9351TIP3    H149468   4.342   3.312  13.644 -0.4857  0.8031  0.1173
 9351TIP3    H249469   4.214   3.231  13.647  0.2443 -0.3144  2.3487
 9352TIP3   OH249470   4.918   2.343   1.376 -0.3818  0.6028  0.0927
 9352TIP3    H149471   4.923   2.315   1.467 -1.0634  0.1709  0.0053
 9352TIP3    H249472   4.948   2.434   1.376  0.4415  0.3293  0.6132
 9353TIP3   OH249473   6.637   5.349  10.805 -0.2807 -0.1484 -0.0063
 9353TIP3    H149474   6.575   5.277  10.793 -0.4816 -0.2208  1.3208
 9353TIP3    H249475   6.721   5.313  10.778 -0.6643 -0.3351 -0.9788
 9354TIP3   OH249476   4.025   1.291  15.722 -0.6579  0.6451  0.1358
 9354TIP3    H149477   4.070   1.324  15.799 -1.5062  1.0282  0.4751
 9354TIP3    H249478   3.932   1.305  15.741 -0.9383 -0.3494 -0.4470
 9355TIP3   OH249479   1.943   0.717   0.949  0.5495  0.2997  0.2171
 9355TIP3    H149480   1.915   0.663   1.023  0.6843 -2.7470 -1.8970
 9355TIP3    H249481   2.025   0.757   0.979 -0.4691  0.7979  2.4653
 9356TIP3   OH249482   0.327   2.095   3.925  0.3486  0.8757 -0.4920
 9356TIP3    H149483   0.292   2.181   3.946  1.2595  1.0338  0.4437
 9356TIP3    H249484   0.368   2.106   3.840 -0.5310  1.0744 -0.8924
 9357TIP3   OH249485   3.017   1.028  11.453  0.4947 -0.0239 -0.4869
 9357TIP3    H149486   2.965   1.083  11.394  1.4543  1.9062  0.4021
 9357TIP3    H249487   3.052   1.090  11.518  2.5221 -1.5281 -0.1083
 9358TIP3   OH249488   1.042   6.464  11.209 -0.3403  0.0280 -0.3309
 9358TIP3    H149489   0.955   6.427  11.227 -0.1598 -0.6008 -0.7420
 9358TIP3    H249490   1.096   6.388  11.185  0.4629  0.3489  0.4462
 9359TIP3   OH249491   6.037   0.598   4.095 -0.6588 -0.4964 -0.3588
 9359TIP3    H149492   6.025   0.649   4.015 -1.4104  1.2635  0.8586
 9359TIP3    H249493   6.109   0.641   4.141 -0.4139 -1.3327  0.0578
 9360TIP3   OH249494   5.572   4.707   3.373  0.0910 -0.2972 -0.2743
 9360TIP3    H149495   5.583   4.765   3.298  1.2712  2.1703  1.7170
 9360TIP3    H249496   5.484   4.728   3.406  0.8186  0.9873  0.9089
 9361TIP3   OH249497   6.209   4.787  14.926 -0.0207  0.1587 -0.5696
 9361TIP3    H149498   6.225   4.861  14.984  0.2177 -2.1173  2.3909
 9361TIP3    H249499   6.284   4.729  14.941 -2.3061 -2.6411  0.4510
 9362TIP3   OH249500   0.988   2.243   2.975 -0.5781  0.1895 -0.3720
 9362TIP3    H149501   1.021   2.178   3.036 -2.1387  0.7161  1.0871
 9362TIP3    H249502   1.005   2.327   3.018  0.6262  0.7106 -1.8357
 9363TIP3   OH249503   0.499   2.439   0.614  0.5433 -0.0346 -0.1873
 9363TIP3    H149504   0.424   2.470   0.561 -1.5537  1.8571  3.6837
 9363TIP3    H249505   0.481   2.346   0.628  1.5264 -0.7677 -3.3086
 9364TIP3   OH249506   0.945   3.170   2.872 -0.0981 -0.1164 -0.1905
 9364TIP3    H149507   1.001   3.093   2.868  0.0516  0.0628 -2.4649
 9364TIP3    H249508   0.877   3.148   2.936  0.0364 -2.0831 -0.6929
 9365TIP3   OH249509   2.308   1.951   3.534 -0.1045  0.5248 -0.0890
 9365TIP3    H149510   2.241   2.009   3.570  1.2983  0.3599  2.9330
 9365TIP3    H249511   2.390   1.997   3.549  0.9641 -1.8307  1.6093
 9366TIP3   OH249512   1.661   3.888  16.598  0.0548 -0.2824 -0.5712
 9366TIP3    H149513   1.666   3.981  16.620 -0.3519 -0.6187  1.0548
 9366TIP3    H249514   1.702   3.881  16.512 -1.1644  1.5952 -1.3241
 9367TIP3   OH249515   6.612   0.659  13.551 -0.5577  0.1246  0.0918
 9367TIP3    H149516   6.524   0.653  13.587 -1.0075  1.1532 -0.7764
 9367TIP3    H249517   6.652   0.732  13.597 -0.5411  0.3476 -0.2699
 9368TIP3   OH249518   4.552   6.565  13.292  0.0316 -0.1274 -0.4510
 9368TIP3    H149519   4.616   6.494  13.278  0.2300  0.0590 -0.4807
 9368TIP3    H249520   4.495   6.560  13.216  1.2020  0.9814 -1.4216
 9369TIP3   OH249521   2.744   2.515  11.692 -0.3766  0.4355 -0.9579
 9369TIP3    H149522   2.807   2.583  11.715  2.2042 -1.3658 -2.4267
 9369TIP3    H249523   2.762   2.496  11.600 -2.0419 -1.1991 -0.9713
 9370TIP3   OH249524   1.232   6.343  14.647  0.0235  0.1426  0.3797
 9370TIP3    H149525   1.238   6.419  14.705 -0.6388  0.0988  0.5049
 9370TIP3    H249526   1.139   6.337  14.625  0.5057  1.2787 -2.1494
 9371TIP3   OH249527   6.127   2.138   0.479 -0.0074  0.3805  0.8593
 9371TIP3    H149528   6.119   2.229   0.450 -1.0409 -0.3904 -1.3708
 9371TIP3    H249529   6.037   2.107   0.485  0.4004 -1.0612 -0.2698
 9372TIP3   OH249530   1.337   1.646  17.066 -0.2604  0.1960 -0.1451
 9372TIP3    H149531   1.293   1.681  17.144  1.1486  1.3488  0.1494
 9372TIP3    H249532   1.428   1.634  17.093 -0.2022 -1.4182 -0.9883
 9373TIP3   OH249533   2.071   5.981   5.446  0.5649  0.6003 -0.4346
 9373TIP3    H149534   1.987   6.019   5.419  0.8493  1.1028 -0.6164
 9373TIP3    H249535   2.130   6.055   5.451  0.6065  0.4702  1.2511
 9374TIP3   OH249536   0.565   5.636   1.357  0.3843 -0.6928  0.2164
 9374TIP3    H149537   0.595   5.725   1.375 -0.7756 -0.0461 -0.9381
 9374TIP3    H249538   0.543   5.599   1.442  1.3134 -0.0458  0.7441
 9375TIP3   OH249539   5.859   6.572   1.970  0.1581 -0.8244 -0.1197
 9375TIP3    H149540   5.923   6.560   2.040  2.1143  1.0172 -1.5556
 9375TIP3    H249541   5.911   6.591   1.892 -2.0088 -2.3220 -2.0094
 9376TIP3   OH249542   5.357   0.406  15.248  0.8145 -0.4803 -1.0109
 9376TIP3    H149543   5.323   0.334  15.302  1.1648 -0.1006 -0.2680
 9376TIP3    H249544   5.428   0.444  15.301 -0.6281  1.6411 -0.5219
 9377TIP3   OH249545   5.700   3.414   1.241  0.2633 -0.7115 -0.0242
 9377TIP3    H149546   5.604   3.415   1.240  0.2828  1.8591 -0.2903
 9377TIP3    H249547   5.722   3.321   1.235 -2.2145 -1.4200  1.0932
 9378TIP3   OH249548   2.941   3.546  13.014 -0.3380 -0.6611 -0.1718
 9378TIP3    H149549   2.957   3.506  12.928  2.0280 -0.7735  0.2841
 9378TIP3    H249550   2.911   3.634  12.994 -0.7548 -1.0038 -1.1195
 9379TIP3   OH249551   5.477   2.045   2.776  0.5589  0.1969 -0.4860
 9379TIP3    H149552   5.474   1.958   2.817 -1.0337  0.3440 -0.2579
 9379TIP3    H249553   5.412   2.096   2.824 -1.5852  0.2783 -3.3683
 9380TIP3   OH249554   3.805   0.130   0.329  0.4704  0.8905 -0.0525
 9380TIP3    H149555   3.801   0.133   0.425 -0.8491  0.8087 -0.1008
 9380TIP3    H249556   3.861   0.055   0.310  0.8596  0.9923  0.6602
 9381TIP3   OH249557   0.521   5.829   5.575 -0.7971 -0.0933 -0.3478
 9381TIP3    H149558   0.599   5.778   5.594 -0.5023  0.3483 -0.3626
 9381TIP3    H249559   0.542   5.917   5.606 -1.3475 -0.0100 -0.2025
 9382TIP3   OH249560   2.325   2.484  16.672  0.0392 -0.5929  0.4664
 9382TIP3    H149561   2.351   2.409  16.725 -0.3614 -1.3967 -0.4801
 9382TIP3    H249562   2.244   2.515  16.712  1.2262  0.5826  2.0790
 9383TIP3   OH249563   1.198   3.260   5.134 -0.3420  0.1972 -0.1176
 9383TIP3    H149564   1.282   3.215   5.129 -0.1517  0.5895 -0.4370
 9383TIP3    H249565   1.208   3.338   5.079 -0.7121  0.5680  0.3328
 9384TIP3   OH249566   0.492   4.608  11.389 -0.0179 -0.4806  0.1148
 9384TIP3    H149567   0.420   4.622  11.328 -0.0250 -0.2821  0.1671
 9384TIP3    H249568   0.466   4.532  11.440 -1.7875  1.6374  2.4666
 9385TIP3   OH249569   6.179   2.084  12.295 -0.1615 -0.0943 -0.4664
 9385TIP3    H149570   6.088   2.066  12.316 -0.7029  0.9764 -1.8962
 9385TIP3    H249571   6.212   2.002  12.256 -0.2855 -0.7233  0.7234
 9386TIP3   OH249572   4.945   2.274   2.213 -0.5912 -0.6241 -0.6453
 9386TIP3    H149573   4.975   2.204   2.155  0.4207  0.9016 -2.0122
 9386TIP3    H249574   4.867   2.309   2.171  0.7591  1.2137 -1.7464
 9387TIP3   OH249575   5.177   4.896   2.221 -0.3020 -0.0608 -0.2306
 9387TIP3    H149576   5.194   4.965   2.285 -1.0934 -1.3392  1.3697
 9387TIP3    H249577   5.250   4.834   2.232 -0.4179 -0.2708 -0.6050
 9388TIP3   OH249578   1.485   2.767   5.603 -0.1426 -0.7449 -0.0081
 9388TIP3    H149579   1.578   2.747   5.592  0.0420 -0.3327  0.7738
 9388TIP3    H249580   1.450   2.766   5.514  0.7796 -0.0549 -0.3950
 9389TIP3   OH249581   2.769   6.053   4.220 -0.2709 -0.2667 -0.3951
 9389TIP3    H149582   2.733   5.975   4.262  0.5793 -0.6078 -0.2961
 9389TIP3    H249583   2.694   6.113   4.213 -0.8731 -1.0009 -0.2736
 9390TIP3   OH249584   4.112   6.170  15.002 -0.5151 -0.2066  0.5271
 9390TIP3    H149585   4.089   6.091  15.051 -3.1974 -0.4357 -0.9933
 9390TIP3    H249586   4.096   6.147  14.911  0.5597  1.4822 -0.1130
 9391TIP3   OH249587   2.037   6.067  16.550 -0.7093 -0.1662 -0.3734
 9391TIP3    H149588   2.059   6.011  16.625  2.7730  1.4283 -0.0950
 9391TIP3    H249589   2.084   6.029  16.476  0.4806  1.4308 -0.4902
 9392TIP3   OH249590   1.862   1.634   4.309  0.0439  0.0365 -0.3184
 9392TIP3    H149591   1.788   1.673   4.263 -0.7060 -0.4301  0.4703
 9392TIP3    H249592   1.927   1.704   4.313 -0.4458  0.5317 -0.8066
 9393TIP3   OH249593   2.153   3.594  14.434 -0.0213  0.1210 -0.1347
 9393TIP3    H149594   2.160   3.566  14.525 -2.0924  0.4425  0.1559
 9393TIP3    H249595   2.085   3.662  14.435 -1.1375 -0.9019 -2.1386
 9394TIP3   OH249596   2.833   1.454  14.764  0.1523  0.2487 -0.0920
 9394TIP3    H149597   2.870   1.509  14.695  2.4516  0.3908  1.2085
 9394TIP3    H249598   2.865   1.494  14.845  0.7896 -2.2676  0.9230
 9395TIP3   OH249599   6.612   6.710   3.144  0.2801  0.2432  0.0043
 9395TIP3    H149600   6.703   6.690   3.123  0.3838  0.7240 -0.0108
 9395TIP3    H249601   6.599   6.673   3.231  0.4529  0.0609 -0.0467
 9396TIP3   OH249602   1.579   6.275  11.560 -0.3363  0.2696  0.0922
 9396TIP3    H149603   1.648   6.335  11.532  0.5466 -1.6932 -2.1540
 9396TIP3    H249604   1.626   6.207  11.609 -1.1146  0.5533  1.2516
 9397TIP3   OH249605   0.808   0.698  11.024  0.0990  0.3253  0.1961
 9397TIP3    H149606   0.834   0.762  11.090  1.7530  0.1415 -0.2492
 9397TIP3    H249607   0.885   0.690  10.967  0.3583 -2.8709  0.9008
 9398TIP3   OH249608   0.036   5.894  17.140  0.2871  0.1416 -0.0794
 9398TIP3    H149609  -0.053   5.862  17.151  0.1692  0.0537 -1.2557
 9398TIP3    H249610   0.026   5.988  17.125  0.4951  0.3806  1.1662
 9399TIP3   OH249611   1.508   4.689  10.358  0.6194  0.1500  0.1998
 9399TIP3    H149612   1.444   4.734  10.411 -0.4005 -0.3396 -0.5955
 9399TIP3    H249613   1.477   4.598  10.354  1.1726 -0.0204 -0.4586
 9400TIP3   OH249614   1.262   1.932  16.217  0.2476 -0.3808  0.2027
 9400TIP3    H149615   1.312   1.944  16.298  0.8975  1.5410 -0.4500
 9400TIP3    H249616   1.315   1.872  16.164  0.7576 -0.1375  0.4382
 9401TIP3   OH249617   0.568   3.968   4.444  0.3231  0.0637  0.5130
 9401TIP3    H149618   0.643   3.931   4.399  1.1131 -0.7045  2.4099
 9401TIP3    H249619   0.541   3.901   4.507 -1.2095  0.8013  0.6823
 9402TIP3   OH249620   3.498   6.693  12.649 -0.5320  0.1806  0.0722
 9402TIP3    H149621   3.415   6.676  12.693 -0.8064 -1.0444 -0.8990
 9402TIP3    H249622   3.522   6.782  12.677 -2.4444  0.7835 -0.0804
 9403TIP3   OH249623   3.516   5.369   1.026  0.4197  0.2101  0.1296
 9403TIP3    H149624   3.448   5.331   1.081  0.4997  0.7138  0.5856
 9403TIP3    H249625   3.522   5.460   1.056  0.5327  0.4588 -0.6460
 9404TIP3   OH249626   1.947   2.043  16.447  0.0873  0.0097  0.0871
 9404TIP3    H149627   1.963   2.056  16.540 -1.6388 -2.5696  0.8174
 9404TIP3    H249628   2.034   2.038  16.408  0.8329  0.9609  1.5823
 9405TIP3   OH249629   2.122   0.036   4.373  0.2074 -0.0415  0.2576
 9405TIP3    H149630   2.162   0.123   4.374  0.6944 -0.2532 -0.6252
 9405TIP3    H249631   2.159  -0.007   4.296  0.3142 -1.1913  0.9429
 9406TIP3   OH249632   1.044   0.889  11.920 -0.3310 -0.4178 -0.4759
 9406TIP3    H149633   1.058   0.840  11.838  1.0673 -0.9234  0.0431
 9406TIP3    H249634   1.048   0.822  11.988  2.0630  0.4631  0.2823
 9407TIP3   OH249635   5.696   1.228   3.025 -0.2500 -0.3505 -0.0615
 9407TIP3    H149636   5.720   1.140   2.996  1.0104 -0.8220  2.3125
 9407TIP3    H249637   5.683   1.220   3.119  1.2930  2.2692  0.4202
 9408TIP3   OH249638   6.292   0.296  13.204 -0.1330 -0.3985 -0.5154
 9408TIP3    H149639   6.229   0.291  13.276  0.5333 -2.3465 -0.0260
 9408TIP3    H249640   6.300   0.206  13.172 -0.7262  0.4896 -3.3322
 9409TIP3   OH249641   3.904   4.566  15.651  0.1402 -0.2463  0.3116
 9409TIP3    H149642   3.837   4.511  15.610  1.5005 -1.0355 -0.9063
 9409TIP3    H249643   3.866   4.654  15.654 -0.5246 -0.4715 -1.3719
 9410TIP3   OH249644   0.962   1.290   5.304 -0.3938 -0.3979 -0.3853
 9410TIP3    H149645   0.997   1.352   5.369  0.3036  0.1468 -1.2745
 9410TIP3    H249646   0.883   1.332   5.271 -0.5412 -0.5014 -0.1644
 9411TIP3   OH249647   6.625   6.024   2.286  0.6666  0.0138  0.1892
 9411TIP3    H149648   6.618   5.974   2.368 -0.3101 -2.4609 -1.3362
 9411TIP3    H249649   6.715   6.008   2.257  0.7848  0.2819  0.4071
 9412TIP3   OH249650   6.597   3.175  16.746 -0.3845  0.1788  0.4517
 9412TIP3    H149651   6.586   3.111  16.816  1.8633 -0.2959  0.4240
 9412TIP3    H249652   6.540   3.248  16.770 -0.3889 -0.4093  2.2625
 9413TIP3   OH249653   0.339   2.574   0.851 -0.5029  0.3793 -0.3310
 9413TIP3    H149654   0.385   2.645   0.807  0.9718  0.3008  1.0480
 9413TIP3    H249655   0.348   2.499   0.792  0.6305  0.5173 -0.3351
 9414TIP3   OH249656   1.840   1.909  10.577  0.1838  0.6326 -0.1111
 9414TIP3    H149657   1.909   1.849  10.607  2.6802  3.7944  0.8017
 9414TIP3    H249658   1.778   1.912  10.650 -0.5883 -1.7062 -0.6434
 9415TIP3   OH249659   1.334   0.348   5.308  0.0913 -0.1802  0.3817
 9415TIP3    H149660   1.321   0.440   5.284 -2.8584  0.2228  3.1553
 9415TIP3    H249661   1.278   0.299   5.248  1.7732 -0.2409 -1.1915
 9416TIP3   OH249662   5.491   3.117  14.209 -0.2938 -0.0473 -0.4031
 9416TIP3    H149663   5.584   3.137  14.211 -0.4322  0.7958 -1.8652
 9416TIP3    H249664   5.472   3.084  14.296  1.5175 -0.8859 -0.2967
 9417TIP3   OH249665   0.091   0.025  13.776 -0.6324 -0.5182  0.4318
 9417TIP3    H149666   0.129   0.086  13.713 -1.0189  0.0064  0.6965
 9417TIP3    H249667   0.018  -0.016  13.728 -0.1713 -1.0090  0.1492
 9418TIP3   OH249668   1.201   0.352  14.349  0.4362 -0.2422 -0.7765
 9418TIP3    H149669   1.245   0.272  14.378  0.6651  0.4603  0.8240
 9418TIP3    H249670   1.108   0.330  14.351  0.4508 -0.2289  0.4121
 9419TIP3   OH249671   6.462   0.095   5.217  0.5738  0.2465  0.1415
 9419TIP3    H149672   6.397   0.143   5.165 -0.2714 -0.8405  0.1640
 9419TIP3    H249673   6.528   0.160   5.239 -0.4702  1.3667  0.0390
 9420TIP3   OH249674   4.767   2.769  10.807 -0.5336  0.0244 -0.2467
 9420TIP3    H149675   4.695   2.747  10.748 -0.6310  2.6613 -1.1841
 9420TIP3    H249676   4.841   2.716  10.776 -1.3064 -0.5897 -1.0489
 9421TIP3   OH249677   5.528   0.376   3.220  0.4074 -0.3156 -0.3225
 9421TIP3    H149678   5.463   0.367   3.152  1.7857  2.6068 -2.1330
 9421TIP3    H249679   5.504   0.457   3.266  1.9426  0.0641 -0.1510
 9422TIP3   OH249680   3.454   1.178  14.334 -0.4224  0.0401  0.0573
 9422TIP3    H149681   3.365   1.185  14.369 -0.0859 -0.5325  1.0327
 9422TIP3    H249682   3.450   1.226  14.251 -1.1543  1.7266  1.0182
 9423TIP3   OH249683   0.263   4.860   4.449  0.7853 -0.4014 -0.2483
 9423TIP3    H149684   0.209   4.810   4.511  1.0740  0.6816  0.9083
 9423TIP3    H249685   0.200   4.914   4.401  0.6511 -0.5127 -0.1965
 9424TIP3   OH249686   5.214   3.186   0.580  0.5938 -0.1795 -0.2246
 9424TIP3    H149687   5.164   3.222   0.506 -0.8180 -1.7292 -0.0622
 9424TIP3    H249688   5.305   3.192   0.552  0.2938  2.0770 -0.8229
 9425TIP3   OH249689   4.157   0.851   4.346 -0.4325 -0.3238  0.0444
 9425TIP3    H149690   4.222   0.884   4.408 -0.3333  0.0477 -0.2599
 9425TIP3    H249691   4.208   0.823   4.270 -0.4518 -1.7788  0.5524
 9426TIP3   OH249692   6.444   2.386   4.112  0.2131  0.0088 -0.6025
 9426TIP3    H149693   6.387   2.334   4.054 -0.0529 -0.7214  0.2940
 9426TIP3    H249694   6.470   2.324   4.180  0.1861  0.9720  0.2882
 9427TIP3   OH249695   3.127   2.148   3.012  0.0665 -0.1380  0.8764
 9427TIP3    H149696   3.197   2.137   2.947  1.1441  1.3935  1.7531
 9427TIP3    H249697   3.089   2.061   3.021 -0.2523 -0.3528 -1.9770
 9428TIP3   OH249698   0.970   3.161   3.464  0.3030 -0.1947 -0.3138
 9428TIP3    H149699   1.057   3.190   3.490 -0.0459 -0.2860  1.0306
 9428TIP3    H249700   0.911   3.199   3.530 -0.7007  0.0729 -1.3443
 9429TIP3   OH249701   0.044   4.882   3.899  0.2767 -0.4347  0.3909
 9429TIP3    H149702   0.087   4.946   3.956  1.1355 -0.0147 -0.7089
 9429TIP3    H249703  -0.038   4.925   3.874  0.9172  0.2976 -0.4572
 9430TIP3   OH249704   0.418   4.487  16.546 -0.0521 -0.1704  0.4478
 9430TIP3    H149705   0.339   4.492  16.601 -0.5498  0.1992 -0.2840
 9430TIP3    H249706   0.426   4.394  16.524 -0.8488 -0.0842 -0.2610
 9431TIP3   OH249707   4.459   4.917  15.404  0.6676  0.4281 -0.1534
 9431TIP3    H149708   4.395   4.848  15.387  1.7891 -0.6644 -0.0998
 9431TIP3    H249709   4.529   4.901  15.340  1.2341  1.1252  0.2803
 9432TIP3   OH249710   0.974   4.654   3.568  0.2881  0.4298 -0.4239
 9432TIP3    H149711   0.963   4.576   3.622  1.3668 -0.6463 -1.7218
 9432TIP3    H249712   0.897   4.656   3.511  0.2967  0.2592 -0.4401
 9433TIP3   OH249713   5.115   2.291   0.787  0.9721  0.0596  0.2070
 9433TIP3    H149714   5.092   2.270   0.878 -1.0360 -2.8374 -0.8925
 9433TIP3    H249715   5.096   2.210   0.739 -1.0978  2.5481 -3.3253
 9434TIP3   OH249716   4.809   0.945  12.661  0.7345  0.5933 -0.1819
 9434TIP3    H149717   4.855   1.020  12.623 -0.3859  1.5798  0.3775
 9434TIP3    H249718   4.829   0.949  12.755 -0.3567  0.9315  0.0407
 9435TIP3   OH249719   1.862   1.314  14.579  0.2984  0.2292 -0.4774
 9435TIP3    H149720   1.825   1.394  14.617 -2.2403 -1.1398 -0.0009
 9435TIP3    H249721   1.934   1.290  14.638 -0.5000  0.8032  0.7470
 9436TIP3   OH249722   3.011   2.931  13.729 -0.2031  0.2928 -0.1443
 9436TIP3    H149723   3.081   2.995  13.716 -0.1704  0.0688 -1.1828
 9436TIP3    H249724   3.053   2.846  13.714 -0.2001  0.0166  1.4167
 9437TIP3   OH249725   3.121   3.730  14.438 -0.2976 -0.0218 -0.2513
 9437TIP3    H149726   3.130   3.670  14.511 -0.6185  0.2253 -0.0029
 9437TIP3    H249727   3.210   3.746  14.407 -0.0708  0.6756  0.7413
 9438TIP3   OH249728   0.912   6.459   4.215 -0.3018  0.3296  0.2572
 9438TIP3    H149729   0.952   6.384   4.171  0.0045  1.1888 -0.9811
 9438TIP3    H249730   0.986   6.516   4.237 -0.3805 -0.4558  2.6286
 9439TIP3   OH249731   1.149   3.310  12.291  0.0762 -0.4476 -0.1305
 9439TIP3    H149732   1.151   3.332  12.198 -0.4785  0.9258  0.1705
 9439TIP3    H249733   1.239   3.322  12.320  0.1758 -0.5260 -0.4048
 9440TIP3   OH249734   5.753   2.255  11.675 -0.4725 -0.5601  0.3124
 9440TIP3    H149735   5.777   2.250  11.767 -0.5189 -0.4243  0.3315
 9440TIP3    H249736   5.836   2.259  11.628 -0.4107 -2.2006  0.2549
 9441TIP3   OH249737   3.663   4.434   1.313 -0.2718  0.2159  0.2530
 9441TIP3    H149738   3.679   4.521   1.276 -0.6175  0.4516  0.6602
 9441TIP3    H249739   3.580   4.406   1.273  0.1063 -0.1505 -0.2840
 9442TIP3   OH249740   6.207   5.718  11.487  0.0817 -0.4060  0.0686
 9442TIP3    H149741   6.157   5.694  11.564 -2.2388 -0.6542 -1.4502
 9442TIP3    H249742   6.161   5.795  11.452  3.0624  1.7681  0.7549
 9443TIP3   OH249743   2.681   6.645   1.735  0.0795  0.1285  0.8625
 9443TIP3    H149744   2.680   6.589   1.657 -0.8194  1.8178 -0.3784
 9443TIP3    H249745   2.774   6.653   1.758  0.3738 -0.2100 -0.1718
 9444TIP3   OH249746   5.733   2.130  12.974 -0.2849 -0.1318 -0.0232
 9444TIP3    H149747   5.728   2.089  12.888  0.0818  1.1490 -0.6541
 9444TIP3    H249748   5.805   2.085  13.018 -0.0053 -0.2876 -0.6448
 9445TIP3   OH249749   4.765   3.850  10.796 -0.3361  0.2945  0.0051
 9445TIP3    H149750   4.855   3.845  10.829 -0.8987  0.8720  1.7045
 9445TIP3    H249751   4.759   3.780  10.731  1.7666  1.1979 -1.2066
 9446TIP3   OH249752   0.962   4.375   3.759  0.3188 -0.0091  0.2369
 9446TIP3    H149753   1.045   4.411   3.791  0.0140  2.0795 -1.2326
 9446TIP3    H249754   0.981   4.345   3.671 -0.5878  0.9198 -0.2850
 9447TIP3   OH249755   0.653   0.552  16.809 -0.1993  0.2831 -0.6154
 9447TIP3    H149756   0.656   0.648  16.805 -0.3679  0.2603 -1.3272
 9447TIP3    H249757   0.629   0.533  16.899  1.6457  0.8823  0.0441
 9448TIP3   OH249758   3.671   0.322   5.938  0.0116 -0.7599  0.3778
 9448TIP3    H149759   3.651   0.307   6.030  0.7805 -0.5248  0.5759
 9448TIP3    H249760   3.675   0.234   5.900 -1.1454 -0.8272  0.3885
 9449TIP3   OH249761   3.744   3.373   4.731  0.1143  0.3923 -0.2547
 9449TIP3    H149762   3.673   3.315   4.759 -0.0998  0.6832 -0.1913
 9449TIP3    H249763   3.797   3.383   4.810 -0.7747  1.6286  0.2046
 9450TIP3   OH249764   4.319   3.684  14.032  0.1504  0.3363 -0.3272
 9450TIP3    H149765   4.325   3.609  13.973  1.1332 -0.3926  0.6787
 9450TIP3    H249766   4.309   3.646  14.119 -0.8300  1.3955  0.0359
 9451TIP3   OH249767   2.800   0.605  11.174  0.1962 -0.3758 -0.1990
 9451TIP3    H149768   2.875   0.664  11.184  1.2098 -1.6014 -0.4161
 9451TIP3    H249769   2.833   0.519  11.200 -1.7407 -0.5603  1.8375
 9452TIP3   OH249770   6.457   2.550  11.892 -0.1851  0.1008 -0.1112
 9452TIP3    H149771   6.445   2.555  11.797 -1.8573 -1.7548 -0.0282
 9452TIP3    H249772   6.500   2.632  11.915  1.2363  0.1136 -2.6213
 9453TIP3   OH249773   4.673   5.231   4.162 -0.5584  0.6606 -0.1667
 9453TIP3    H149774   4.589   5.185   4.157 -0.4392  0.4891 -0.6652
 9453TIP3    H249775   4.712   5.200   4.244 -0.3689 -0.3229 -0.6262
 9454TIP3   OH249776   3.041   4.473  15.425  0.1948 -0.2848  0.0262
 9454TIP3    H149777   2.981   4.417  15.475 -0.4821 -0.1492 -0.6301
 9454TIP3    H249778   2.986   4.517  15.361  0.6431  1.5269  0.8618
 9455TIP3   OH249779   0.080   5.115  15.965  0.0144  0.1678  0.0161
 9455TIP3    H149780   0.125   5.040  16.004  0.6639  1.0663  1.0305
 9455TIP3    H249781   0.035   5.156  16.039 -0.5765  0.6041 -0.5853
 9456TIP3   OH249782   1.826   4.815  12.326  0.3943 -0.3663  0.1390
 9456TIP3    H149783   1.851   4.724  12.341  1.5756  0.0501  0.8523
 9456TIP3    H249784   1.907   4.857  12.295 -0.1983  0.3870 -0.3991
 9457TIP3   OH249785   2.573   4.815  14.687 -0.1111  0.2376 -0.0896
 9457TIP3    H149786   2.505   4.750  14.704 -0.4832  0.7351  0.3629
 9457TIP3    H249787   2.535   4.897  14.719 -0.8259  1.2208 -3.3232
 9458TIP3   OH249788   1.792   2.877   0.409  0.4474  0.5678 -0.3998
 9458TIP3    H149789   1.809   2.784   0.427  0.6812  0.8497  0.8796
 9458TIP3    H249790   1.874   2.921   0.430 -0.2375  1.2952  0.8272
 9459TIP3   OH249791   3.764   4.009   1.610  0.1924 -0.0161  1.1875
 9459TIP3    H149792   3.684   4.017   1.662  1.7998  0.1783  3.7125
 9459TIP3    H249793   3.744   4.055   1.528 -2.5591 -0.7476  1.4083
 9460TIP3   OH249794   5.662   4.285  15.244  0.1711  1.4718  0.3972
 9460TIP3    H149795   5.630   4.312  15.158 -0.0309  0.7710  0.2553
 9460TIP3    H249796   5.607   4.211  15.269  1.1984  0.7169  0.4667
 9461TIP3   OH249797   4.876   1.320   0.071 -0.4413 -0.7290  0.1364
 9461TIP3    H149798   4.904   1.353   0.156 -1.5173  1.9233 -0.4844
 9461TIP3    H249799   4.954   1.279   0.034  0.8879  0.8898  1.0948
 9462TIP3   OH249800   3.415   1.106   4.056 -0.0708  0.2795 -0.0675
 9462TIP3    H149801   3.348   1.171   4.075  0.5992  0.8057  0.5108
 9462TIP3    H249802   3.498   1.154   4.061  0.5962 -1.0403  2.4214
 9463TIP3   OH249803   4.908   5.788  13.271  0.0554  0.0351 -0.0861
 9463TIP3    H149804   4.839   5.747  13.218 -1.2660  2.4585 -0.3041
 9463TIP3    H249805   4.867   5.803  13.356  1.0232 -0.4943  0.4845
 9464TIP3   OH249806   1.231   0.454   4.982 -0.2178  0.0205 -0.6597
 9464TIP3    H149807   1.156   0.415   5.026 -0.1327  1.3670  0.7217
 9464TIP3    H249808   1.194   0.494   4.903 -0.6936 -0.7355 -0.8184
 9465TIP3   OH249809   5.346   2.388   4.265  0.1864  0.1306 -0.0618
 9465TIP3    H149810   5.290   2.334   4.209 -0.6629  0.8385  0.0943
 9465TIP3    H249811   5.365   2.332   4.341  0.0344 -0.2624 -0.3131
 9466TIP3   OH249812   5.758   1.113   0.103 -0.2084  0.0245  0.1891
 9466TIP3    H149813   5.830   1.050   0.107 -0.8439 -0.6328  1.4204
 9466TIP3    H249814   5.691   1.070   0.050 -0.6395 -0.3403  1.0238
 9467TIP3   OH249815   5.979   1.376   3.214  0.0067  0.3780  0.5044
 9467TIP3    H149816   5.956   1.458   3.170  0.2228  0.6845  0.9676
 9467TIP3    H249817   5.894   1.337   3.238 -0.2755 -1.3265 -2.9525
 9468TIP3   OH249818   1.790   0.882  13.721  0.2266  0.1389  0.0065
 9468TIP3    H149819   1.711   0.829  13.711  2.1145 -2.6831 -0.2259
 9468TIP3    H249820   1.759   0.963  13.762 -2.7764 -0.8920 -0.1178
 9469TIP3   OH249821   1.054   6.300   0.537 -0.0078 -0.2599 -0.1976
 9469TIP3    H149822   1.114   6.274   0.467 -0.4774  0.3022 -0.8170
 9469TIP3    H249823   1.109   6.345   0.601  0.2944 -0.0711 -0.5870
 9470TIP3   OH249824   5.719   6.425   4.900 -0.5319  0.0610  0.1871
 9470TIP3    H149825   5.725   6.357   4.967 -0.9291 -0.3797 -0.2195
 9470TIP3    H249826   5.670   6.496   4.943  0.2106  0.2489  0.7335
 9471TIP3   OH249827   6.385   2.677   4.761  0.2046 -0.3483  0.5743
 9471TIP3    H149828   6.467   2.627   4.766 -1.4181 -3.0570  1.2948
 9471TIP3    H249829   6.362   2.695   4.852 -0.1470  0.1476  0.3892
 9472TIP3   OH249830   3.089   3.187  11.904  0.2370  0.3060 -0.4625
 9472TIP3    H149831   3.160   3.248  11.885 -1.4223  1.8838 -1.8196
 9472TIP3    H249832   3.011   3.228  11.865 -1.5261 -1.0863  1.4916
 9473TIP3   OH249833   3.851   3.020  14.632 -0.4620 -0.4239  0.5034
 9473TIP3    H149834   3.844   2.927  14.615  0.3105 -0.5987  1.1202
 9473TIP3    H249835   3.810   3.062  14.556  2.4334 -1.1857 -1.5583
 9474TIP3   OH249836   3.007   1.189  12.245 -0.5182 -0.5426  0.0531
 9474TIP3    H149837   3.084   1.245  12.234  0.6075 -2.2757 -1.1421
 9474TIP3    H249838   2.959   1.197  12.163 -1.6555  0.5884  0.8274
 9475TIP3   OH249839   0.425   4.685  14.678  0.6448 -0.1607 -0.0455
 9475TIP3    H149840   0.386   4.602  14.652 -0.2401 -0.4024  1.9085
 9475TIP3    H249841   0.458   4.669  14.767 -0.3119  1.8203  0.6878
 9476TIP3   OH249842   0.780   0.362   4.334  0.7055 -0.1539 -0.5350
 9476TIP3    H149843   0.815   0.412   4.260 -0.8365  0.4406 -0.8705
 9476TIP3    H249844   0.773   0.426   4.405 -1.0916  0.0747 -0.9068
 9477TIP3   OH249845   1.534   5.175  11.981 -0.2841  0.8719  0.0178
 9477TIP3    H149846   1.483   5.246  12.019  0.8303  0.4187  2.4467
 9477TIP3    H249847   1.524   5.102  12.042 -1.6761 -1.2183 -2.5828
 9478TIP3   OH249848   4.628   6.397   4.627  0.4632 -0.1779 -0.9591
 9478TIP3    H149849   4.610   6.489   4.644 -1.9681 -0.6136 -1.0967
 9478TIP3    H249850   4.673   6.396   4.543 -1.4703  0.7102 -2.0114
 9479TIP3   OH249851   3.295   5.431   5.210 -0.0103  0.5949  0.0087
 9479TIP3    H149852   3.285   5.469   5.122  1.0343  1.2601  0.1657
 9479TIP3    H249853   3.387   5.445   5.231 -0.4399  1.1633  1.5415
 9480TIP3   OH249854   2.754   1.470  16.655 -0.0396  0.0821  0.4788
 9480TIP3    H149855   2.737   1.413  16.580  0.3874  0.4328  0.1221
 9480TIP3    H249856   2.836   1.438  16.692 -0.4556 -0.3517  1.0451
 9481TIP3   OH249857   2.550   1.595  14.741 -0.0925  0.3695 -0.5579
 9481TIP3    H149858   2.588   1.509  14.756 -1.2350 -0.2277 -1.0860
 9481TIP3    H249859   2.537   1.631  14.829  1.2199  0.3806 -0.3576
 9482TIP3   OH249860   0.791   5.890  16.205 -0.3462 -0.2674  0.5688
 9482TIP3    H149861   0.875   5.903  16.161  0.1039  2.0239  2.0264
 9482TIP3    H249862   0.741   5.969  16.183 -1.0750 -0.3264  2.0236
 9483TIP3   OH249863   6.304   4.476   1.803  0.3430 -0.4315 -0.1171
 9483TIP3    H149864   6.273   4.389   1.778  0.8610 -0.7547  0.3554
 9483TIP3    H249865   6.274   4.533   1.733  1.2281 -1.2250 -1.1679
 9484TIP3   OH249866   0.685   4.648  14.430 -0.1299  0.6079  0.7244
 9484TIP3    H149867   0.699   4.601  14.348  0.8707 -0.2117  1.3611
 9484TIP3    H249868   0.609   4.704  14.413  0.0116  0.3690 -0.7250
 9485TIP3   OH249869   1.742   0.076  16.718  0.0911  0.0449 -0.0330
 9485TIP3    H149870   1.701   0.053  16.635  1.0504  0.6087 -0.6766
 9485TIP3    H249871   1.676   0.128  16.764 -0.9155 -1.3343  0.1130
 9486TIP3   OH249872   5.204   6.632  11.490  0.3126  0.4441  0.0854
 9486TIP3    H149873   5.166   6.672  11.568 -0.3560  1.4529 -0.7504
 9486TIP3    H249874   5.283   6.683  11.473  1.2426 -0.6857  0.9280
 9487TIP3   OH249875   5.628   5.455   5.465  0.7217  0.6309  0.3494
 9487TIP3    H149876   5.674   5.441   5.547  1.5506 -0.1664 -0.2453
 9487TIP3    H249877   5.686   5.511   5.414  1.1435 -0.5444 -0.4838
 9488TIP3   OH249878   4.069   4.343   4.744 -0.1428 -0.2951  0.3840
 9488TIP3    H149879   4.065   4.397   4.665  2.4187  1.2174  1.2151
 9488TIP3    H249880   4.143   4.284   4.728 -0.6108 -1.0655  1.0231
 9489TIP3   OH249881   5.061   6.049  10.822 -0.3074 -0.1125  0.2646
 9489TIP3    H149882   5.098   6.027  10.736 -0.8955  0.0437 -0.0376
 9489TIP3    H249883   4.966   6.040  10.809 -0.5341  1.9101  0.3271
 9490TIP3   OH249884   5.787   2.462  13.016  0.0580  0.2861 -0.4485
 9490TIP3    H149885   5.811   2.551  12.989 -0.9802  0.7686  0.1747
 9490TIP3    H249886   5.691   2.463  13.018  0.0756 -0.3722  1.1329
 9491TIP3   OH249887   6.539   1.943  10.884 -0.5746  0.6253 -0.1540
 9491TIP3    H149888   6.507   1.995  10.810  0.4367  0.0642 -0.9912
 9491TIP3    H249889   6.491   1.860  10.876 -0.3408  0.5023 -0.2809
 9492TIP3   OH249890   1.148   1.466  11.583  0.1818  0.3373 -0.3381
 9492TIP3    H149891   1.121   1.388  11.633  1.4350 -0.1080 -0.3380
 9492TIP3    H249892   1.223   1.436  11.531  2.0064  2.0710  1.2260
 9493TIP3   OH249893   3.612   0.765   3.046 -0.1854 -0.8585  0.8905
 9493TIP3    H149894   3.580   0.675   3.055 -1.4489 -0.3545  1.4004
 9493TIP3    H249895   3.567   0.799   2.969  2.4045 -1.5542 -1.0310
 9494TIP3   OH249896   4.517   2.995  15.685 -0.1281  0.0778  0.4993
 9494TIP3    H149897   4.585   2.928  15.681 -1.2395 -1.0160 -1.0091
 9494TIP3    H249898   4.547   3.064  15.625  0.2564  0.1902  0.8224
 9495TIP3   OH249899   4.619   1.615  16.569  0.3920 -0.1220 -0.1552
 9495TIP3    H149900   4.579   1.642  16.652  0.6272 -0.1022 -0.0479
 9495TIP3    H249901   4.577   1.532  16.547 -0.2024  0.2425 -0.3946
 9496TIP3   OH249902   2.022   2.278  16.855 -0.4321  0.0769 -0.2906
 9496TIP3    H149903   2.004   2.251  16.945 -1.7214 -0.0319 -0.5767
 9496TIP3    H249904   2.035   2.373  16.861  0.7200 -0.1033  0.1905
 9497TIP3   OH249905   0.610   3.512  12.834 -0.1971 -0.2797 -0.3348
 9497TIP3    H149906   0.516   3.518  12.816 -0.0067 -0.4781 -1.4517
 9497TIP3    H249907   0.615   3.456  12.911 -1.0485  0.5968  0.3724
 9498TIP3   OH249908   0.441   0.577   1.941  0.0205 -0.1779 -0.8420
 9498TIP3    H149909   0.523   0.627   1.937 -0.7009  1.0403 -0.6933
 9498TIP3    H249910   0.375   0.637   1.905 -0.7261 -1.3195 -1.4008
 9499TIP3   OH249911   2.888   3.257   0.735  0.6344 -0.3250 -0.1466
 9499TIP3    H149912   2.838   3.218   0.807 -0.7371  0.7567 -0.4945
 9499TIP3    H249913   2.838   3.235   0.657  0.6948  0.7959 -0.4973
 9500TIP3   OH249914   2.851   1.077  16.383  0.4219  0.3438  0.0299
 9500TIP3    H149915   2.907   1.094  16.458  1.3236  1.3410 -0.8547
 9500TIP3    H249916   2.910   1.041  16.316 -0.2250  0.2114 -0.4779
 9501TIP3   OH249917   5.576   5.584   2.687 -0.1970 -0.4295 -0.3770
 9501TIP3    H149918   5.537   5.670   2.697 -1.2823 -0.8033 -1.3386
 9501TIP3    H249919   5.667   5.595   2.717 -1.2815  0.2010  2.8504
 9502TIP3   OH249920   3.078   5.195   5.039  0.0954 -0.2120 -0.0289
 9502TIP3    H149921   3.053   5.288   5.032 -0.3047 -0.3230 -0.0906
 9502TIP3    H249922   3.109   5.186   5.129  2.3550  0.5096 -0.7163
 9503TIP3   OH249923   5.096   4.622   5.051 -0.3740 -0.4151  0.1174
 9503TIP3    H149924   5.167   4.653   5.107  0.1882 -1.1725 -0.1779
 9503TIP3    H249925   5.019   4.619   5.109 -0.1064  0.1190  0.5067
 9504TIP3   OH249926   3.963   1.732   4.539 -0.4697 -0.7823 -0.3747
 9504TIP3    H149927   3.925   1.659   4.490 -2.5379  1.7327 -2.7079
 9504TIP3    H249928   3.888   1.790   4.556  1.3633  1.5006  0.1078
 9505TIP3   OH249929   1.840   0.570  17.198 -0.0380 -0.4164 -0.0953
 9505TIP3    H149930   1.923   0.523  17.185  0.1425 -0.8259  2.2919
 9505TIP3    H249931   1.865   0.652  17.240 -0.9547 -1.2258  2.0942
 9506TIP3   OH249932   3.471   0.100  15.027  0.1245  0.4165 -0.1366
 9506TIP3    H149933   3.413   0.099  14.950 -1.5810  2.3840  1.0762
 9506TIP3    H249934   3.514   0.185  15.023 -0.2805  0.7000  1.2946
 9507TIP3   OH249935   6.185   5.163  16.481  0.0918  0.3615  0.1493
 9507TIP3    H149936   6.207   5.088  16.537 -2.1357  0.3821  1.1048
 9507TIP3    H249937   6.240   5.234  16.514 -0.4383  0.0965  1.6478
 9508TIP3   OH249938   6.781   4.914  13.317 -0.4670 -0.4469 -0.8750
 9508TIP3    H149939   6.695   4.932  13.356 -0.6527 -1.5629 -0.7514
 9508TIP3    H249940   6.763   4.905  13.223 -0.3259  0.3403 -0.9733
 9509TIP3   OH249941   1.576   6.223  12.698  0.0293  0.6280  0.0128
 9509TIP3    H149942   1.522   6.185  12.628  0.9933  1.4564 -1.2046
 9509TIP3    H249943   1.649   6.162  12.706 -0.1016  0.5129  0.3425
 9510TIP3   OH249944   6.292   3.897   5.424  0.1815  0.1721 -0.1964
 9510TIP3    H149945   6.380   3.885   5.388  0.6409  0.6252  0.7536
 9510TIP3    H249946   6.305   3.954   5.499 -0.8947  0.0038  0.1214
 9511TIP3   OH249947   2.693   0.232   2.614  0.1504 -0.0901 -0.0109
 9511TIP3    H149948   2.609   0.276   2.615 -0.5678 -1.4286  1.8863
 9511TIP3    H249949   2.718   0.230   2.522 -2.0069  0.1248 -0.6269
 9512TIP3   OH249950   2.551   3.610  13.587  0.3869  0.1950 -0.2353
 9512TIP3    H149951   2.473   3.586  13.537  0.1927  1.4682 -0.5762
 9512TIP3    H249952   2.599   3.528  13.598 -1.4113 -0.7795  0.7136
 9513TIP3   OH249953   5.052   0.880   3.382  0.3658  0.4696  0.0882
 9513TIP3    H149954   5.074   0.833   3.462 -1.9771  0.4836  0.7597
 9513TIP3    H249955   4.977   0.832   3.346 -0.3497  2.1045 -0.6359
 9514TIP3   OH249956   0.557   1.878  11.498 -0.2889  0.7474  0.3477
 9514TIP3    H149957   0.623   1.937  11.536  0.9379 -0.8433  0.7225
 9514TIP3    H249958   0.513   1.932  11.432  0.3665  2.2906  1.1354
 9515TIP3   OH249959   3.903   0.874   4.416  0.2820 -0.3068 -0.2963
 9515TIP3    H149960   3.993   0.888   4.389  0.8072 -0.6594  1.2233
 9515TIP3    H249961   3.907   0.867   4.512 -0.8799 -3.5704 -0.4184
 9516TIP3   OH249962   3.586   1.930  12.870  0.1608  0.1044 -0.2054
 9516TIP3    H149963   3.638   1.862  12.827 -1.0706  0.3683 -2.1248
 9516TIP3    H249964   3.497   1.915  12.840 -0.2121  2.2659 -0.2458
 9517TIP3   OH249965   1.768   4.945  16.560 -0.1164  0.4861  0.3339
 9517TIP3    H149966   1.837   4.914  16.501 -0.8001 -1.0243  0.3084
 9517TIP3    H249967   1.738   4.866  16.605  0.0938  1.5604  2.3813
 9518TIP3   OH249968   0.145   0.082  17.066  0.1779 -0.6034  0.0164
 9518TIP3    H149969   0.060   0.099  17.107 -0.0758 -2.7433  0.4117
 9518TIP3    H249970   0.191   0.025  17.127  1.0789 -1.1812 -1.1752
 9519TIP3   OH249971   6.645   4.401   4.541  0.3355  0.0663 -0.8810
 9519TIP3    H149972   6.632   4.315   4.580  0.6249  1.1462  1.6850
 9519TIP3    H249973   6.558   4.440   4.538  0.5792  0.7543  0.5871
 9520TIP3   OH249974   5.874   2.826  15.303  0.8013 -0.2342  0.2517
 9520TIP3    H149975   5.966   2.850  15.310  1.2778 -1.5409 -1.3417
 9520TIP3    H249976   5.837   2.848  15.389  3.3267 -2.8649  2.0770
 9521TIP3   OH249977   6.216   0.373  17.206  0.6759 -0.1824  0.7222
 9521TIP3    H149978   6.159   0.428  17.259  0.6902 -0.0196  0.5726
 9521TIP3    H249979   6.245   0.430  17.135  1.7507 -0.0042  1.2949
 9522TIP3   OH249980   0.542   4.670   1.443 -0.2157  0.4033  0.0842
 9522TIP3    H149981   0.472   4.726   1.478 -0.2799  0.1250  0.4031
 9522TIP3    H249982   0.622   4.716   1.466 -0.2956  0.8219 -0.4507
 9523TIP3   OH249983   0.477   0.489  14.327  0.2738 -0.1403 -0.0807
 9523TIP3    H149984   0.416   0.541  14.378  0.1710  1.8236 -2.1524
 9523TIP3    H249985   0.562   0.501  14.371 -0.1071  0.1960  0.5608
 9524TIP3   OH249986   1.644   6.179   3.181  0.4728  0.9345 -0.5120
 9524TIP3    H149987   1.596   6.102   3.210  0.9405  1.3931  1.5745
 9524TIP3    H249988   1.658   6.165   3.087 -1.8975 -0.1724 -0.7353
 9525TIP3   OH249989   6.171   5.320   2.043  0.4763  0.0683 -0.0841
 9525TIP3    H149990   6.082   5.354   2.036  1.0092  1.7373  1.0659
 9525TIP3    H249991   6.160   5.224   2.042 -1.3539  0.2607  0.4585
 9526TIP3   OH249992   2.561   1.998   4.411  0.4798 -0.0069  0.1912
 9526TIP3    H149993   2.553   2.078   4.359  0.9211  0.0735  0.2467
 9526TIP3    H249994   2.634   2.016   4.471  1.1178 -0.7742 -0.3605
 9527TIP3   OH249995   2.340   4.973  15.932 -0.5823  0.0989  0.1666
 9527TIP3    H149996   2.376   5.033  15.997 -1.5968  0.6525  0.2228
 9527TIP3    H249997   2.294   5.029  15.870  0.5520 -0.4043 -1.1649
 9528TIP3   OH249998   4.071   4.691  15.017 -0.1518 -0.2984  0.2304
 9528TIP3    H149999   4.020   4.769  15.039 -0.3355 -0.7951  1.6130
 9528TIP3    H250000   4.043   4.626  15.081 -0.4081 -1.6802 -1.2775
 9529TIP3   OH250001   4.281   6.465  17.031  0.0628 -0.4257 -0.5323
 9529TIP3    H150002   4.307   6.388  16.981  1.4255 -0.2255 -0.1432
 9529TIP3    H250003   4.332   6.459  17.112 -2.0240 -0.6910  0.8165
 9530TIP3   OH250004   1.360   0.927  16.792 -0.6817  0.5002 -0.6106
 9530TIP3    H150005   1.441   0.958  16.751 -0.2504  0.1255 -0.0401
 9530TIP3    H250006   1.295   0.994  16.769  0.0110  1.3135 -0.2335
 9531TIP3   OH250007   4.149   4.503  15.513 -0.6502  0.8657 -0.0093
 9531TIP3    H150008   4.131   4.415  15.478  1.4722  0.7156 -0.8049
 9531TIP3    H250009   4.062   4.542  15.524 -1.5418 -0.5043 -1.7878
 9532TIP3   OH250010   5.927   6.485  14.442  0.2868 -0.2258 -0.7342
 9532TIP3    H150011   5.871   6.452  14.371  0.7017 -2.3130 -0.1385
 9532TIP3    H250012   5.999   6.528  14.397  0.3983 -1.2847 -1.6014
 9533TIP3   OH250013   1.174   5.517  14.515 -0.3200 -0.2475  0.0619
 9533TIP3    H150014   1.244   5.455  14.495  0.4450  0.5299  0.2549
 9533TIP3    H250015   1.153   5.502  14.607 -0.1227 -0.2131  0.1128
 9534TIP3   OH250016   1.676   0.711  16.286  0.0663  0.2555 -0.3000
 9534TIP3    H150017   1.724   0.668  16.358 -1.0106 -0.0394  0.2522
 9534TIP3    H250018   1.604   0.756  16.329 -1.0547 -0.5679 -1.2630
 9535TIP3   OH250019   3.232   1.169   5.685  0.2921 -0.3605  0.3718
 9535TIP3    H150020   3.254   1.106   5.753 -1.4974 -1.0002  0.3863
 9535TIP3    H250021   3.205   1.115   5.611  3.1465  0.2877 -1.2374
 9536TIP3   OH250022   4.259   2.006   3.403 -0.0753 -0.2897  0.6053
 9536TIP3    H150023   4.195   1.992   3.333 -0.1166  0.1319  0.5565
 9536TIP3    H250024   4.340   1.967   3.370 -0.1360 -0.2306  0.3880
 9537TIP3   OH250025   0.001   0.381  12.791 -0.5691 -0.1426 -0.2515
 9537TIP3    H150026   0.068   0.449  12.801 -0.2043 -0.5765  0.3116
 9537TIP3    H250027  -0.013   0.349  12.880 -3.2094  1.5296 -0.0094
 9538TIP3   OH250028   2.293   6.530  10.166  0.0955 -0.0092 -0.2134
 9538TIP3    H150029   2.369   6.555  10.220  0.3274  1.7215 -1.3117
 9538TIP3    H250030   2.227   6.595  10.187 -0.9714 -1.2528  0.3981
 9539TIP3   OH250031   1.902   1.258  12.319 -0.0628  0.1856  0.1732
 9539TIP3    H150032   1.859   1.283  12.401  2.2599  0.0423  1.4850
 9539TIP3    H250033   1.859   1.177  12.293 -1.4411  0.7169  0.7701
 9540TIP3   OH250034   1.332   4.058   1.017 -0.1207 -0.1516  0.1606
 9540TIP3    H150035   1.303   4.004   0.943  0.4933  1.1638 -1.0519
 9540TIP3    H250036   1.404   4.009   1.055 -1.4660 -1.6178  0.8961
 9541TIP3   OH250037   6.469   0.657  10.276  0.3962  0.8272 -0.1973
 9541TIP3    H150038   6.514   0.575  10.257  1.2082  1.5405 -1.4302
 9541TIP3    H250039   6.389   0.653  10.223  0.1770  0.5976  0.1512
 9542TIP3   OH250040   5.561   5.174   6.263 -0.5374 -0.4079  0.1608
 9542TIP3    H150041   5.622   5.151   6.334 -0.8803 -2.8489 -0.2968
 9542TIP3    H250042   5.476   5.181   6.307 -0.8220 -2.3231 -0.0278
 9543TIP3   OH250043   2.998   0.382   3.017  0.2739 -0.0293 -0.2086
 9543TIP3    H150044   2.985   0.475   2.998  0.3895 -0.3837 -2.0827
 9543TIP3    H250045   2.912   0.342   3.005  0.1214 -0.1051  1.0498
 9544TIP3   OH250046   0.776   2.281   4.666 -0.4054 -0.1489  0.0825
 9544TIP3    H150047   0.835   2.356   4.665 -0.7808  0.1547 -1.0122
 9544TIP3    H250048   0.813   2.221   4.730  1.2114 -0.0557 -0.7370
 9545TIP3   OH250049   2.678   6.472  11.719  0.7157 -0.3681 -0.0312
 9545TIP3    H150050   2.654   6.554  11.763 -2.5886 -0.0815 -2.2298
 9545TIP3    H250051   2.659   6.404  11.784 -0.8942  0.2827  0.1897
 9546TIP3   OH250052   5.423   1.793  12.833 -0.5937  0.7201 -0.1136
 9546TIP3    H150053   5.343   1.845  12.823 -1.1364  0.1374  1.0574
 9546TIP3    H250054   5.422   1.732  12.760 -1.0338  0.9688 -0.3183
 9547TIP3   OH250055   3.346   2.534   2.672 -0.0908 -0.4325  0.2324
 9547TIP3    H150056   3.348   2.458   2.730  0.3442 -0.6594 -0.0785
 9547TIP3    H250057   3.392   2.603   2.720  1.2754 -0.9569 -0.3178
 9548TIP3   OH250058   3.732   3.761   3.114 -0.5173  0.2432  0.1925
 9548TIP3    H150059   3.712   3.837   3.060 -0.0149  1.1737  1.2983
 9548TIP3    H250060   3.667   3.764   3.184  0.8107  0.8721  1.4227
 9549TIP3   OH250061   4.610   3.758   0.874  0.5074  0.1538  0.1597
 9549TIP3    H150062   4.613   3.734   0.967  0.2899 -1.4550 -0.2342
 9549TIP3    H250063   4.577   3.848   0.874  0.3729  0.1247  1.6322
 9550TIP3   OH250064   1.809   4.833  14.216  0.3659 -0.3665 -0.0251
 9550TIP3    H150065   1.856   4.914  14.196  1.4065 -0.7786  0.6337
 9550TIP3    H250066   1.717   4.856  14.211  0.6321  0.3658 -1.7980
 9551TIP3   OH250067   4.794   6.226   5.602  0.1776  0.3127 -0.3968
 9551TIP3    H150068   4.790   6.321   5.592  0.9849  0.2784 -1.1724
 9551TIP3    H250069   4.887   6.208   5.620  0.2417 -0.4224 -1.4171
 9552TIP3   OH250070   0.541   4.778  13.599  0.2694  0.4096  0.4058
 9552TIP3    H150071   0.491   4.803  13.677 -0.9587 -0.8011  0.0433
 9552TIP3    H250072   0.474   4.758  13.534  1.2169 -1.6629  0.0324
 9553TIP3   OH250073   4.461   4.226   6.743  0.3347  0.2182  0.0370
 9553TIP3    H150074   4.466   4.131   6.753 -0.2447  0.0999 -0.7388
 9553TIP3    H250075   4.540   4.250   6.694  0.3297  0.0912 -0.0339
 9554TIP3   OH250076   5.187   4.611   2.037  0.9480  0.0557 -0.2238
 9554TIP3    H150077   5.181   4.585   1.945 -0.4425 -1.3488  0.2372
 9554TIP3    H250078   5.112   4.569   2.078  0.8850  1.6575  1.3355
 9555TIP3   OH250079   5.653   6.008   1.140  0.3048  0.3254  0.1535
 9555TIP3    H150080   5.573   6.054   1.112  0.5899  0.6960 -0.0522
 9555TIP3    H250081   5.621   5.934   1.192 -0.1194  1.3450  1.3685
 9556TIP3   OH250082   0.534   0.660   3.387 -0.0470 -0.3672  0.1899
 9556TIP3    H150083   0.556   0.568   3.403  1.3540 -0.1734 -0.5474
 9556TIP3    H250084   0.615   0.707   3.408 -0.8634  0.7371  0.8854
 9557TIP3   OH250085   1.528   6.457   2.065 -0.3508 -0.1286 -0.1800
 9557TIP3    H150086   1.588   6.389   2.097 -1.2746 -0.1923  1.4399
 9557TIP3    H250087   1.536   6.528   2.128  0.2369  1.1039 -1.5987
 9558TIP3   OH250088   0.307   3.375  14.193  0.2699  0.2930 -0.2404
 9558TIP3    H150089   0.220   3.375  14.233 -0.0097 -0.5481 -0.8094
 9558TIP3    H250090   0.298   3.431  14.116  0.1860  0.1085 -0.3680
 9559TIP3   OH250091   2.196   4.492   2.060 -0.6534  0.0857  0.3855
 9559TIP3    H150092   2.261   4.441   2.109 -0.1556 -0.3021 -0.6587
 9559TIP3    H250093   2.192   4.576   2.105  0.0724 -0.1367  0.8693
 9560TIP3   OH250094   4.244   2.660   5.075 -1.0251  0.0084  0.5722
 9560TIP3    H150095   4.241   2.755   5.061 -3.0044 -0.0545  0.4017
 9560TIP3    H250096   4.230   2.650   5.169  5.9657  0.1345  1.9000
 9561TIP3   OH250097   4.298   2.352   1.831 -0.1608 -0.4044 -0.3256
 9561TIP3    H150098   4.318   2.260   1.814 -1.7668 -0.8464  0.0403
 9561TIP3    H250099   4.296   2.392   1.744 -0.9573 -1.0483 -0.6110
 9562TIP3   OH250100   5.315   4.189   1.661 -0.1213 -0.4105 -0.4438
 9562TIP3    H150101   5.402   4.178   1.623  0.0855 -0.9091  0.1521
 9562TIP3    H250102   5.270   4.251   1.604  1.5019  1.8522  0.6773
 9563TIP3   OH250103   5.389   2.473   0.487 -0.5198 -0.9087  0.0887
 9563TIP3    H150104   5.313   2.414   0.493 -0.9830 -0.4386 -0.9912
 9563TIP3    H250105   5.448   2.429   0.426 -2.2454  1.1750 -3.2583
 9564TIP3   OH250106   5.826   3.407   4.273 -0.1349  1.1662  0.1781
 9564TIP3    H150107   5.757   3.445   4.327 -1.3466  1.6643 -1.6788
 9564TIP3    H250108   5.793   3.321   4.247  1.0533  0.3306  1.3806
 9565TIP3   OH250109   1.574   5.433  11.777  0.9472 -0.1908  0.4703
 9565TIP3    H150110   1.665   5.430  11.805  0.9024 -1.0107  0.5631
 9565TIP3    H250111   1.541   5.517  11.808  1.2181 -0.5910  1.8878
 9566TIP3   OH250112   5.896   3.820   2.570 -0.6932  0.4875 -0.3239
 9566TIP3    H150113   5.955   3.894   2.557 -0.5079  0.1341 -1.5771
 9566TIP3    H250114   5.903   3.770   2.489 -0.0854 -1.4233  0.8846
 9567TIP3   OH250115   2.561   1.937  16.752  0.2315 -0.0867 -0.2062
 9567TIP3    H150116   2.618   1.867  16.784  0.7159 -0.3777 -1.7088
 9567TIP3    H250117   2.616   2.015  16.752  0.1753 -0.0467 -0.1723
 9568TIP3   OH250118   2.403   5.818   0.666 -0.4348  0.6087  0.4556
 9568TIP3    H150119   2.340   5.814   0.738  0.0743 -1.1789  0.8406
 9568TIP3    H250120   2.461   5.891   0.688 -1.0363  0.8517  1.2343
 9569TIP3   OH250121   0.161   3.934   3.998  0.5188 -0.8254  0.0350
 9569TIP3    H150122   0.075   3.976   3.999  0.6305 -0.6042  2.4127
 9569TIP3    H250123   0.146   3.851   3.953 -0.6873 -0.2833 -0.5894
 9570TIP3   OH250124   1.948   1.752  14.427 -0.0535 -0.3925  0.4191
 9570TIP3    H150125   1.860   1.758  14.465  0.1036 -1.7767  1.0444
 9570TIP3    H250126   1.993   1.689  14.483  1.1074 -0.2615 -0.3607
 9571TIP3   OH250127   6.413   4.019   0.177  0.3047  0.0476  0.1600
 9571TIP3    H150128   6.472   3.945   0.193  0.0225 -0.2954 -0.3759
 9571TIP3    H250129   6.333   3.996   0.224  0.6890  0.6441  1.1229
 9572TIP3   OH250130   4.935   2.078  17.036 -0.3074  0.3969  0.6016
 9572TIP3    H150131   4.891   2.161  17.050  0.3685  0.5232  2.0953
 9572TIP3    H250132   4.950   2.043  17.125  0.0490 -0.9623  0.0239
 9573TIP3   OH250133   3.609   4.570   0.337  0.0522 -0.3636 -0.1493
 9573TIP3    H150134   3.616   4.662   0.314  1.5779 -0.2130  0.8370
 9573TIP3    H250135   3.548   4.568   0.411 -0.3989 -0.2166 -0.5134
 9574TIP3   OH250136   4.957   3.598  13.052 -0.4478  0.0308 -0.6986
 9574TIP3    H150137   4.982   3.529  12.990  0.4478  0.4241 -0.7795
 9574TIP3    H250138   4.879   3.637  13.014 -0.7647 -0.7130 -0.8285
 9575TIP3   OH250139   6.763   3.618   3.479 -0.1528  0.0143 -0.0199
 9575TIP3    H150140   6.691   3.581   3.530  0.8183  1.0547  2.1593
 9575TIP3    H250141   6.722   3.651   3.400 -1.9957  0.1143  0.9551
 9576TIP3   OH250142   3.814   5.735  12.546 -0.2602 -0.0159  0.0971
 9576TIP3    H150143   3.894   5.684  12.532 -1.0545 -1.0688 -0.7135
 9576TIP3    H250144   3.844   5.820  12.577  1.2098 -0.1405 -0.9584
 9577TIP3   OH250145   3.690   2.892   2.870  0.1941  0.2683 -0.8255
 9577TIP3    H150146   3.652   2.868   2.954  0.4046  0.0337 -0.7988
 9577TIP3    H250147   3.784   2.896   2.886  0.2537  0.0097 -1.1028
 9578TIP3   OH250148   2.699   0.794  11.768  0.0386 -1.2870 -0.7895
 9578TIP3    H150149   2.610   0.775  11.739 -0.0140 -1.4161 -0.5475
 9578TIP3    H250150   2.743   0.832  11.692 -0.7179  0.3688 -0.4283
 9579TIP3   OH250151   5.342   1.826  14.914  0.2235 -0.2173  0.3086
 9579TIP3    H150152   5.265   1.836  14.858  1.2488  0.3002 -1.0476
 9579TIP3    H250153   5.338   1.735  14.944  0.8546 -1.2415 -2.4946
 9580TIP3   OH250154   4.961   3.387  13.265  0.5152  0.2927  0.7101
 9580TIP3    H150155   5.033   3.412  13.323 -0.6242  1.5174  1.6301
 9580TIP3    H250156   4.958   3.456  13.200 -0.1368  0.5004  0.9586
 9581TIP3   OH250157   1.453   0.273   5.880 -0.3233  0.1103 -0.0652
 9581TIP3    H150158   1.378   0.330   5.899  0.1454  0.2115  1.5758
 9581TIP3    H250159   1.413   0.192   5.849 -0.9642  1.6908 -3.5835
 9582TIP3   OH250160   1.046   2.406   0.063  0.0383 -0.0829 -0.0182
 9582TIP3    H150161   1.124   2.457   0.044 -0.1219 -0.8247 -2.8670
 9582TIP3    H250162   1.078   2.318   0.084 -0.0246 -0.4539 -1.4385
 9583TIP3   OH250163   3.529   5.123   3.299  0.2422  0.1202 -0.0908
 9583TIP3    H150164   3.500   5.073   3.222  0.7708 -0.3330  0.0022
 9583TIP3    H250165   3.499   5.212   3.282 -0.8837 -0.2603 -0.1751
 9584TIP3   OH250166   3.412   1.411   4.566 -0.2507  0.1705  0.3988
 9584TIP3    H150167   3.462   1.385   4.644  1.8483  0.7925 -0.7028
 9584TIP3    H250168   3.356   1.336   4.548  3.2791 -2.3262 -0.7525
 9585TIP3   OH250169   5.821   4.737   2.983 -0.2947 -0.1503 -0.1739
 9585TIP3    H150170   5.868   4.761   2.904  0.7746 -1.9698 -0.1145
 9585TIP3    H250171   5.874   4.771   3.055 -1.3573  1.6610 -0.2053
 9586TIP3   OH250172   5.258   1.094  15.813  0.5393 -0.4892 -0.4397
 9586TIP3    H150173   5.252   1.117  15.720 -1.8641  0.0292 -0.1878
 9586TIP3    H250174   5.245   1.176  15.859 -1.2930 -1.2006  0.3685
 9587TIP3   OH250175   0.616   4.982  11.767 -0.4923 -0.2676  0.0217
 9587TIP3    H150176   0.578   4.942  11.845 -0.4907 -0.3960 -0.0425
 9587TIP3    H250177   0.614   4.912  11.701 -1.9174  0.2808 -0.5497
 9588TIP3   OH250178   6.755   1.946  15.309 -0.1985  0.1864 -0.3439
 9588TIP3    H150179   6.661   1.954  15.291 -0.2128  0.4797 -0.1339
 9588TIP3    H250180   6.764   1.971  15.401 -0.0148 -0.5720 -0.1583
 9589TIP3   OH250181   4.733   4.597   2.984  0.3021  0.3622 -0.2780
 9589TIP3    H150182   4.673   4.547   3.038  1.4084 -0.0933  0.5538
 9589TIP3    H250183   4.686   4.677   2.961 -0.5253  0.1004  0.5318
 9590TIP3   OH250184   3.560   4.709  15.912  0.1363  0.4163 -0.3279
 9590TIP3    H150185   3.474   4.682  15.943  0.1988 -0.1977 -0.6845
 9590TIP3    H250186   3.621   4.679  15.979 -0.1627  3.2238  1.2828
 9591TIP3   OH250187   2.113   5.996   2.303 -0.0965 -0.5722  0.3148
 9591TIP3    H150188   2.147   5.930   2.364 -0.7856 -1.6482 -0.4387
 9591TIP3    H250189   2.157   5.976   2.220 -2.8325 -2.2608 -0.7938
 9592TIP3   OH250190   1.011   6.568   5.215  0.1805 -0.0263  0.5941
 9592TIP3    H150191   0.991   6.481   5.180 -0.2094  0.2625  0.0852
 9592TIP3    H250192   1.105   6.579   5.199 -0.1669  0.4857 -1.2801
 9593TIP3   OH250193   0.549   0.827  10.479 -0.1097 -0.0736 -0.2021
 9593TIP3    H150194   0.611   0.759  10.503 -2.3711 -2.6665 -1.3727
 9593TIP3    H250195   0.525   0.806  10.388 -3.0597  0.4831  0.3990
 9594TIP3   OH250196   2.508   4.286  15.320  0.0172  0.3751  0.3012
 9594TIP3    H150197   2.544   4.342  15.251 -1.5907 -0.9383 -1.6544
 9594TIP3    H250198   2.420   4.321  15.335 -0.4121 -0.6503  0.1778
 9595TIP3   OH250199   5.158   5.065  12.191  0.0296 -0.2937 -0.1495
 9595TIP3    H150200   5.175   4.972  12.203  1.4384 -0.0129  0.1114
 9595TIP3    H250201   5.170   5.079  12.097  1.5149 -0.0668  0.0525
 9596TIP3   OH250202   2.764   3.564   5.711 -0.3230 -0.0698  0.0881
 9596TIP3    H150203   2.843   3.556   5.659 -0.3825  0.1970 -0.0427
 9596TIP3    H250204   2.793   3.549   5.801 -0.3659 -1.3409 -0.1103
 9597TIP3   OH250205   0.079   2.070  10.650  0.0858 -0.4525  0.3585
 9597TIP3    H150206  -0.001   2.058  10.600 -0.1467 -0.0676  0.6377
 9597TIP3    H250207   0.056   2.133  10.719  0.0091 -2.0074  1.7963
 9598TIP3   OH250208   4.450   2.588  10.928 -0.0613 -0.0150 -0.1302
 9598TIP3    H150209   4.421   2.498  10.942  0.8648 -0.8003 -2.9038
 9598TIP3    H250210   4.545   2.582  10.916 -0.0331  1.2709 -0.7138
 9599TIP3   OH250211   0.539   1.915  14.281 -0.4309  0.7082  0.1963
 9599TIP3    H150212   0.504   1.884  14.198 -0.2996  0.0111  0.3959
 9599TIP3    H250213   0.489   1.867  14.347  1.0694 -0.4852  0.4821
 9600TIP3   OH250214   1.271   3.389  12.615  0.1865 -0.1788 -0.1031
 9600TIP3    H150215   1.206   3.319  12.615 -0.5590  0.5003 -0.9182
 9600TIP3    H250216   1.344   3.355  12.668 -0.0729 -1.6413 -0.6715
 9601TIP3   OH250217   3.531   4.198  14.256  0.3624  0.0012 -0.3688
 9601TIP3    H150218   3.586   4.222  14.330  0.6285 -0.3311 -0.4561
 9601TIP3    H250219   3.443   4.223  14.282  0.4107 -0.4028  0.1800
 9602TIP3   OH250220   1.456   1.109   0.171 -0.6046 -0.1493 -0.2468
 9602TIP3    H150221   1.452   1.204   0.180 -0.1230 -0.1616  0.1171
 9602TIP3    H250222   1.425   1.092   0.082  3.2641  0.6618 -1.8480
 9603TIP3   OH250223   1.951   2.183  11.907  0.3553 -0.7923 -0.5122
 9603TIP3    H150224   2.001   2.189  11.826 -0.7052 -0.6941 -1.1654
 9603TIP3    H250225   2.017   2.187  11.976  1.1347  0.7002 -1.3196
 9604TIP3   OH250226   3.822   5.175   4.231 -0.0813 -0.1251 -0.0805
 9604TIP3    H150227   3.811   5.113   4.303  2.8338  0.3393  0.8590
 9604TIP3    H250228   3.814   5.261   4.272  0.4959  0.1320 -0.4990
 9605TIP3   OH250229   0.741   4.887   3.901  0.1781  0.2307  0.1559
 9605TIP3    H150230   0.677   4.927   3.958  0.0693  0.2362  0.0306
 9605TIP3    H250231   0.709   4.797   3.888 -1.0332  0.9100 -1.7485
 9606TIP3   OH250232   5.165   5.605  12.976 -0.4531 -0.4908  0.2083
 9606TIP3    H150233   5.190   5.513  12.967 -0.2889 -0.4807  0.5521
 9606TIP3    H250234   5.069   5.605  12.970 -0.4794 -0.7309  0.5818
 9607TIP3   OH250235   2.550   5.551   1.253  0.0271  0.4039  0.2727
 9607TIP3    H150236   2.539   5.581   1.343 -1.1283 -0.4727  0.4389
 9607TIP3    H250237   2.509   5.464   1.252 -0.4258  0.6214 -1.2254
 9608TIP3   OH250238   4.542   4.666   2.575  0.1034 -0.0077  0.0573
 9608TIP3    H150239   4.448   4.670   2.594  0.2811  2.1806  0.7150
 9608TIP3    H250240   4.553   4.590   2.519 -1.9257 -0.8574  0.7846
 9609TIP3   OH250241   1.047   2.642  12.362 -0.0110 -0.1399  0.5058
 9609TIP3    H150242   0.959   2.661  12.331  0.6246  1.1479 -0.5710
 9609TIP3    H250243   1.069   2.558  12.323 -0.7670 -0.4895  0.8170
 9610TIP3   OH250244   1.119   2.481  16.253 -0.0307  0.6245  0.5674
 9610TIP3    H150245   1.130   2.537  16.330  0.9633  0.1080  0.8129
 9610TIP3    H250246   1.200   2.430  16.249 -0.3807  0.1329 -0.4060
 9611TIP3   OH250247   1.003   4.229  13.430  0.3817 -0.1477 -0.2771
 9611TIP3    H150248   1.050   4.244  13.348 -0.1679  0.1685 -0.5313
 9611TIP3    H250249   0.998   4.315  13.472  0.0508 -0.1843 -0.2382
 9612TIP3   OH250250   4.324   4.412   3.441  0.5813 -0.4339  1.1534
 9612TIP3    H150251   4.334   4.479   3.509  0.6629 -0.5930  1.2965
 9612TIP3    H250252   4.412   4.381   3.423  0.5695 -0.3325  0.9135
 9613TIP3   OH250253   1.431   1.421   2.351  0.4664 -0.1485  0.2616
 9613TIP3    H150254   1.389   1.500   2.384  0.9524 -0.2743  1.1971
 9613TIP3    H250255   1.435   1.433   2.256  0.9193  1.1381  0.4362
 9614TIP3   OH250256   6.287   2.859  14.874 -0.4527  0.7007 -0.2520
 9614TIP3    H150257   6.193   2.862  14.891 -0.6896  0.3656 -1.4283
 9614TIP3    H250258   6.296   2.799  14.800  0.5284  1.9351 -1.1578
 9615TIP3   OH250259   2.806   1.100  12.596  0.2779  0.0842  0.8511
 9615TIP3    H150260   2.711   1.089  12.589  0.3731 -0.4418  0.3365
 9615TIP3    H250261   2.819   1.137  12.683 -0.3319 -0.7385  1.3045
 9616TIP3   OH250262   0.349   2.617  12.467  0.1283  0.5432  0.1918
 9616TIP3    H150263   0.444   2.611  12.456  0.3823  2.1269  1.2753
 9616TIP3    H250264   0.318   2.653  12.384  0.3639 -0.7666 -0.4756
 9617TIP3   OH250265   5.338   5.426   2.693 -0.1534  0.3725  0.2223
 9617TIP3    H150266   5.418   5.478   2.684 -1.3258  2.1372 -0.1722
 9617TIP3    H250267   5.267   5.490   2.696 -1.6184 -1.1921  0.0187
 9618TIP3   OH250268   2.707   2.931   5.072 -0.8376 -0.1510  0.0167
 9618TIP3    H150269   2.687   2.838   5.089  0.4207 -0.3441  0.4627
 9618TIP3    H250270   2.801   2.932   5.055 -0.7904  1.1037  0.3666
 9619TIP3   OH250271   3.078   5.275   1.765 -0.9817 -0.1901 -0.3191
 9619TIP3    H150272   3.124   5.337   1.708 -0.2187 -0.5990 -0.1622
 9619TIP3    H250273   2.992   5.265   1.725 -0.0055 -1.5034 -2.1916
 9620TIP3   OH250274   3.920   2.161   4.181  0.1388 -0.3527 -0.6330
 9620TIP3    H150275   3.959   2.102   4.246  1.2796 -0.5679 -1.5010
 9620TIP3    H250276   3.931   2.116   4.098  0.5051  0.8345 -1.2351
 9621TIP3   OH250277   5.757   0.421  11.688 -0.7107 -0.2572  0.2093
 9621TIP3    H150278   5.761   0.474  11.768  0.1299 -0.0728  0.0501
 9621TIP3    H250279   5.722   0.480  11.622  1.1919  0.4406 -0.2206
 9622TIP3   OH250280   6.369   5.402  11.558  0.4114  0.5244  0.0763
 9622TIP3    H150281   6.365   5.396  11.654 -0.7160  1.6991  0.1232
 9622TIP3    H250282   6.279   5.423  11.532  1.1817  2.5895 -1.0321
 9623TIP3   OH250283   1.266   2.267   1.896  0.1863  0.3384  0.1725
 9623TIP3    H150284   1.301   2.262   1.984  0.4563 -0.0154  0.0442
 9623TIP3    H250285   1.342   2.269   1.839  0.0110 -1.5598 -0.1634
 9624TIP3   OH250286   0.454   1.877  13.977 -0.2623  0.2852  0.0345
 9624TIP3    H150287   0.368   1.865  13.937 -1.1706 -0.4669  2.1491
 9624TIP3    H250288   0.463   1.972  13.987 -1.2837  0.3039  0.7415
 9625TIP3   OH250289   4.438   3.385   2.359 -0.0538  0.2247 -0.1199
 9625TIP3    H150290   4.508   3.331   2.395  0.7124 -0.4811 -2.5581
 9625TIP3    H250291   4.357   3.341   2.384  0.4179  0.1678  1.3356
 9626TIP3   OH250292   0.501   1.147  16.048  0.3798  0.5170  0.0934
 9626TIP3    H150293   0.483   1.153  16.142 -1.0434  0.4942 -0.1699
 9626TIP3    H250294   0.556   1.223  16.029  0.3622  0.7283  0.8723
 9627TIP3   OH250295   3.058   4.483   3.947 -0.1908  0.0212 -0.1636
 9627TIP3    H150296   3.065   4.389   3.965  1.1861  0.2292  0.4467
 9627TIP3    H250297   2.989   4.490   3.881  2.1371 -1.7486 -2.8710
 9628TIP3   OH250298   1.191   6.376   0.769 -0.2654  0.1248 -0.2025
 9628TIP3    H150299   1.221   6.296   0.812  0.8367 -0.8177 -2.6358
 9628TIP3    H250300   1.229   6.447   0.820  1.9618 -0.9866 -0.2849
 9629TIP3   OH250301   4.285   4.731   3.439  0.3706 -0.7190  0.1404
 9629TIP3    H150302   4.236   4.804   3.476 -0.9534 -1.9234  0.8141
 9629TIP3    H250303   4.376   4.761   3.438 -0.2913  1.2831 -0.4841
 9630TIP3   OH250304   3.326   2.270   3.996 -0.2442  0.2419 -0.0594
 9630TIP3    H150305   3.376   2.323   4.058 -2.1823  1.0560  0.8442
 9630TIP3    H250306   3.330   2.181   4.032  1.0870  0.1745 -0.3522
 9631TIP3   OH250307   3.298   5.557   3.103 -0.1574  0.3163  0.2103
 9631TIP3    H150308   3.310   5.527   3.013  0.1382  0.6972  0.1202
 9631TIP3    H250309   3.249   5.487   3.145 -1.1605  0.5736 -0.5093
 9632TIP3   OH250310   3.168   6.365  13.256  0.3602  0.0812  0.1905
 9632TIP3    H150311   3.110   6.418  13.202  1.8780  1.3365 -0.2317
 9632TIP3    H250312   3.244   6.421  13.273  0.3933 -0.6472  2.7613
 9633TIP3   OH250313   2.863   4.384   6.407  0.0700  0.0797  0.1075
 9633TIP3    H150314   2.885   4.429   6.489 -2.6539  0.2510  0.7876
 9633TIP3    H250315   2.838   4.296   6.435 -1.5069  0.3411 -0.4618
 9634TIP3   OH250316   3.414   0.733   2.859  0.2367  0.3819  0.8716
 9634TIP3    H150317   3.414   0.783   2.778  0.0621 -2.6893 -1.0930
 9634TIP3    H250318   3.337   0.764   2.907 -0.0771  1.6764 -0.4507
 9635TIP3   OH250319   3.485   6.228   0.989 -0.4151  0.0796 -0.0453
 9635TIP3    H150320   3.432   6.303   1.016  0.1549  0.6940 -0.6301
 9635TIP3    H250321   3.567   6.266   0.957  0.3786 -0.8698  0.8328
 9636TIP3   OH250322   0.940   4.726   1.833  0.1562 -0.3763 -0.3015
 9636TIP3    H150323   0.888   4.802   1.859 -1.0127 -1.1026 -0.4655
 9636TIP3    H250324   0.969   4.746   1.744  0.4519  0.1864 -0.0808
 9637TIP3   OH250325   3.820   1.257   1.257  0.2634  0.0391 -0.2192
 9637TIP3    H150326   3.842   1.192   1.191 -0.6161 -1.2921  0.7787
 9637TIP3    H250327   3.805   1.338   1.207  0.0907 -0.8244 -1.5842
 9638TIP3   OH250328   2.353   5.523  14.709  0.3661 -0.3164  0.2121
 9638TIP3    H150329   2.292   5.578  14.758 -0.3001  0.0759 -1.0444
 9638TIP3    H250330   2.395   5.582  14.647  0.9202 -0.8858  0.0376
 9639TIP3   OH250331   4.006   5.129   4.027  0.6520  0.6042  0.1001
 9639TIP3    H150332   4.022   5.224   4.023 -1.3603  0.9925  0.4574
 9639TIP3    H250333   3.979   5.114   4.118  0.7513 -0.2723 -0.0172
 9640TIP3   OH250334   1.875   6.630  11.320 -0.0794  0.1610 -0.2116
 9640TIP3    H150335   1.924   6.672  11.250  0.5442 -0.9238 -0.4248
 9640TIP3    H250336   1.789   6.673  11.318  0.1831  0.6490 -1.1497
 9641TIP3   OH250337   0.236   5.457  11.038  0.1081 -0.0347 -0.0401
 9641TIP3    H150338   0.216   5.512  10.963 -1.9787 -0.7282 -0.0084
 9641TIP3    H250339   0.164   5.471  11.098  0.0005 -2.1214  0.3432
 9642TIP3   OH250340   4.948   5.715  14.776 -0.3389  0.3399 -0.1159
 9642TIP3    H150341   4.911   5.661  14.706  0.1432  0.8307 -0.7620
 9642TIP3    H250342   4.872   5.758  14.816 -0.6770 -0.4465  0.0913
 9643TIP3   OH250343   2.728   2.686   0.647 -0.1304  0.3600 -0.3170
 9643TIP3    H150344   2.633   2.691   0.641 -0.0538  0.7914 -1.3126
 9643TIP3    H250345   2.756   2.654   0.562  0.5528 -0.8079  0.3417
 9644TIP3   OH250346   1.062   6.379   2.578 -0.1826  0.0468  0.3122
 9644TIP3    H150347   1.090   6.453   2.524 -0.3688 -0.0564  0.0732
 9644TIP3    H250348   1.013   6.418   2.650 -0.3428  0.1525  0.1469
 9645TIP3   OH250349   3.813   3.570  11.780 -0.3348 -0.3718  0.3377
 9645TIP3    H150350   3.841   3.484  11.750 -0.0438 -0.6539  1.4143
 9645TIP3    H250351   3.858   3.584  11.863 -0.7016  0.6402  0.3851
 9646TIP3   OH250352   0.092   1.244  10.827 -0.1138  0.1705 -0.2884
 9646TIP3    H150353   0.150   1.224  10.753 -1.1695 -2.0380 -0.5539
 9646TIP3    H250354   0.128   1.192  10.900  0.1496  1.3287  0.4223
 9647TIP3   OH250355   0.065   1.421   3.129 -0.0156 -0.5846 -0.2111
 9647TIP3    H150356   0.091   1.428   3.037 -0.8318 -1.5608 -0.5179
 9647TIP3    H250357   0.133   1.469   3.177  2.0701 -2.6009 -1.0624
 9648TIP3   OH250358   2.015   4.170  13.333 -0.1348  0.5230 -0.2731
 9648TIP3    H150359   1.949   4.238  13.319  0.2277  1.0142  0.3360
 9648TIP3    H250360   2.075   4.179  13.259 -0.8098 -0.0015 -0.8909
 9649TIP3   OH250361   4.967   1.095   0.593 -0.0474  0.4280 -0.6791
 9649TIP3    H150362   4.950   1.019   0.648  0.5903  2.1354  1.9662
 9649TIP3    H250363   4.881   1.119   0.558 -0.7590  0.3355  0.9840
 9650TIP3   OH250364   0.025   5.022   4.402 -0.2545 -1.0230 -0.3711
 9650TIP3    H150365   0.055   5.107   4.369  0.6322 -0.3812  1.9930
 9650TIP3    H250366  -0.069   5.023   4.387 -0.1970  0.2212 -0.7375
 9651TIP3   OH250367   1.518   5.750  11.091  0.3197 -0.3338  0.1095
 9651TIP3    H150368   1.481   5.730  11.005  1.0306 -1.0569 -0.0418
 9651TIP3    H250369   1.442   5.760  11.148 -0.1329 -1.1959 -0.3223
 9652TIP3   OH250370   2.777   4.508   4.282 -0.3043  0.0384 -0.2905
 9652TIP3    H150371   2.802   4.430   4.332  0.9634  2.0496  2.3203
 9652TIP3    H250372   2.821   4.580   4.327 -1.8066  2.3332 -2.4028
 9653TIP3   OH250373   1.187   2.938   0.334  1.1160 -0.2647 -0.3082
 9653TIP3    H150374   1.117   2.880   0.366  0.7887 -1.6127 -3.3387
 9653TIP3    H250375   1.268   2.896   0.364  0.7401 -0.3164  0.6511
 9654TIP3   OH250376   4.453   1.201  15.842 -0.6464  0.0408  0.8069
 9654TIP3    H150377   4.371   1.152  15.841 -0.6885  0.1284 -0.2406
 9654TIP3    H250378   4.430   1.284  15.884 -1.3554  0.4986 -0.4569
 9655TIP3   OH250379   5.148   3.258   0.304 -0.0453 -0.5463 -0.1469
 9655TIP3    H150380   5.086   3.311   0.253 -0.7480 -0.2398  0.9977
 9655TIP3    H250381   5.234   3.279   0.268 -0.4784  0.1334 -0.7861
 9656TIP3   OH250382   3.072   5.614   4.585  0.0824  0.2567 -1.0959
 9656TIP3    H150383   3.024   5.667   4.521 -0.4772 -0.5168 -1.3186
 9656TIP3    H250384   3.084   5.673   4.660 -2.1442  0.1396 -0.6132
 9657TIP3   OH250385   1.528   3.618   4.739  0.9169  0.3615  0.1535
 9657TIP3    H150386   1.446   3.643   4.695  0.7851 -1.3512 -0.6261
 9657TIP3    H250387   1.596   3.643   4.677  0.7968 -0.9055 -0.5231
 9658TIP3   OH250388   3.951   0.165   5.836  0.1437  0.0667  0.2907
 9658TIP3    H150389   3.974   0.189   5.747 -0.7935 -3.1074 -0.8803
 9658TIP3    H250390   3.856   0.156   5.836  0.1679 -0.4097  1.4727
 9659TIP3   OH250391   1.653   3.257   3.614 -0.0007  0.4093 -0.3955
 9659TIP3    H150392   1.685   3.340   3.650  1.8117 -1.1742  1.7700
 9659TIP3    H250393   1.595   3.283   3.542  1.9773  3.4984 -0.9519
 9660TIP3   OH250394   0.134   5.338  10.693  0.0427 -0.5705  0.1043
 9660TIP3    H150395   0.229   5.336  10.706  0.2687  2.2506 -0.8790
 9660TIP3    H250396   0.122   5.312  10.602  0.0508  1.1039 -0.3915
 9661TIP3   OH250397   1.128   0.074   0.147 -0.5894  0.1162 -0.9963
 9661TIP3    H150398   1.197   0.138   0.161 -1.1757  0.7184 -0.8286
 9661TIP3    H250399   1.104   0.045   0.235 -0.7244  0.0964 -1.0391
 9662TIP3   OH250400   6.427   5.578   0.919  0.0786  0.4077 -0.5949
 9662TIP3    H150401   6.492   5.639   0.955 -0.8873  2.2355 -1.8115
 9662TIP3    H250402   6.346   5.599   0.966 -0.7888  1.6450 -2.5686
 9663TIP3   OH250403   4.551   0.436   3.688 -0.2390 -0.5054  0.4675
 9663TIP3    H150404   4.535   0.352   3.645  1.2068 -0.3582 -0.4089
 9663TIP3    H250405   4.545   0.418   3.781  0.4375 -1.6624  0.2871
 9664TIP3   OH250406   3.118   3.461   1.720 -0.2866 -0.3189  0.0826
 9664TIP3    H150407   3.062   3.412   1.659 -1.4134 -0.5590  1.2928
 9664TIP3    H250408   3.115   3.410   1.801  1.9312 -0.4929  0.0746
 9665TIP3   OH250409   4.117   2.522  15.230  0.3926  0.2986  0.2398
 9665TIP3    H150410   4.038   2.485  15.190  0.9010 -0.3981 -0.1383
 9665TIP3    H250411   4.121   2.612  15.198  0.7474 -0.2232 -1.2304
 9666TIP3   OH250412   3.251   1.681  10.337  0.2361  0.1197  0.1851
 9666TIP3    H150413   3.234   1.743  10.267  2.5977  0.1747 -0.3884
 9666TIP3    H250414   3.323   1.719  10.386 -0.7437 -0.4031  2.0700
 9667TIP3   OH250415   4.709   0.270   4.144  0.4829  0.5125 -0.2475
 9667TIP3    H150416   4.733   0.183   4.175 -0.5084  0.6441  0.9259
 9667TIP3    H250417   4.788   0.302   4.100  0.1839 -1.7769 -2.5261
 9668TIP3   OH250418   2.842   1.883  11.880 -0.3682 -0.3165 -0.1374
 9668TIP3    H150419   2.772   1.944  11.900 -0.0715  0.2312 -0.7466
 9668TIP3    H250420   2.900   1.887  11.955  0.0771  0.7627 -0.5323
 9669TIP3   OH250421   0.079   5.668   0.188 -0.5250  0.4122  0.0530
 9669TIP3    H150422   0.068   5.715   0.105 -2.2774  1.1289  0.6651
 9669TIP3    H250423  -0.000   5.616   0.198  0.2685 -0.7216  0.6427
 9670TIP3   OH250424   6.011   1.762   3.877 -0.6195 -0.0204  0.3219
 9670TIP3    H150425   5.938   1.700   3.878  0.0632 -0.8376  0.4220
 9670TIP3    H250426   5.999   1.814   3.798 -0.2097 -1.4870 -0.7190
 9671TIP3   OH250427   1.902   5.536  16.028  0.0663 -0.1597  0.1047
 9671TIP3    H150428   1.847   5.554  16.105  0.1943  0.7348 -0.0064
 9671TIP3    H250429   1.901   5.441  16.020  0.4914 -0.2964  1.5427
 9672TIP3   OH250430   4.324   1.078   2.377  0.0871 -0.1644 -0.1120
 9672TIP3    H150431   4.370   0.994   2.378  0.1187 -0.1771 -1.5165
 9672TIP3    H250432   4.379   1.137   2.428 -0.3225 -1.1928  1.5461
 9673TIP3   OH250433   0.088   5.631  14.965 -0.3438  0.1113 -0.2373
 9673TIP3    H150434   0.149   5.616  15.037  0.0706 -2.1080 -0.9841
 9673TIP3    H250435   0.133   5.690  14.905  0.0366  0.5103  0.4481
 9674TIP3   OH250436   5.588   2.419   4.647 -0.5365 -0.2887  0.4309
 9674TIP3    H150437   5.580   2.356   4.575 -1.8496 -2.3022  2.2713
 9674TIP3    H250438   5.498   2.436   4.674 -0.0235 -0.3846  2.2728
 9675TIP3   OH250439   2.770   4.172  14.452 -0.2621 -0.0154 -0.9154
 9675TIP3    H150440   2.730   4.110  14.513  0.7713 -0.3976 -0.6146
 9675TIP3    H250441   2.719   4.162  14.371 -0.4898 -0.8095 -0.6770
 9676TIP3   OH250442   1.528   0.415   1.702 -0.6658 -0.3931 -0.3641
 9676TIP3    H150443   1.605   0.438   1.650 -0.5843  2.1728  0.8392
 9676TIP3    H250444   1.560   0.351   1.765 -0.1286 -1.3467 -1.5890
 9677TIP3   OH250445   4.671   1.431  16.938 -0.5942 -0.3003 -0.0088
 9677TIP3    H150446   4.597   1.437  16.876  0.1304 -1.6203 -1.0453
 9677TIP3    H250447   4.630   1.412  17.022 -1.7268  3.1936  0.3130
 9678TIP3   OH250448   4.171   4.222  13.848 -0.6589  0.0379  0.4115
 9678TIP3    H150449   4.092   4.170  13.842 -0.2735 -0.3585 -1.9209
 9678TIP3    H250450   4.166   4.282  13.774  0.3009  1.3310  1.3594
 9679TIP3   OH250451   5.967   6.582  11.413 -0.6802  0.0066  0.0669
 9679TIP3    H150452   5.999   6.574  11.323 -1.2540 -0.1392 -0.1267
 9679TIP3    H250453   5.897   6.648  11.408 -0.0403  0.7395  0.5865
 9680TIP3   OH250454   1.398   0.285   2.184  0.1959  0.0592  0.5321
 9680TIP3    H150455   1.356   0.255   2.103  1.7725 -0.2937 -0.1850
 9680TIP3    H250456   1.325   0.304   2.243 -0.9916  0.3335 -0.9696
 9681TIP3   OH250457   5.200   0.033   0.670 -0.8254 -0.4671  0.1568
 9681TIP3    H150458   5.129   0.096   0.687 -0.4488  0.7446 -2.4557
 9681TIP3    H250459   5.183   0.002   0.581  1.5458 -0.6897 -0.2421
 9682TIP3   OH250460   5.782   4.095  14.325 -0.3604  0.8166  0.4818
 9682TIP3    H150461   5.691   4.085  14.296 -0.5525  3.8888 -0.2265
 9682TIP3    H250462   5.775   4.119  14.417 -0.1612 -0.8618  0.9380
 9683TIP3   OH250463   4.431   2.047   2.134  0.0559  0.0721  0.4167
 9683TIP3    H150464   4.356   2.108   2.131 -0.3584 -0.2952  2.3782
 9683TIP3    H250465   4.398   1.972   2.185  0.9205 -1.2975 -1.0202
 9684TIP3   OH250466   2.711   3.816   2.158  0.7819 -0.5982  0.2773
 9684TIP3    H150467   2.627   3.832   2.201  0.9577 -0.3406  0.5234
 9684TIP3    H250468   2.763   3.894   2.177  0.2459  0.3198 -1.9098
 9685TIP3   OH250469   2.084   5.003  15.316 -0.4463  0.6800 -0.1245
 9685TIP3    H150470   1.994   4.982  15.341  0.6177 -0.2459  3.1676
 9685TIP3    H250471   2.109   4.933  15.256 -0.8419 -0.9356  1.5543
 9686TIP3   OH250472   0.539   0.652   0.668  0.4828 -0.6073  0.0927
 9686TIP3    H150473   0.492   0.663   0.751 -0.0272 -3.4930  0.2236
 9686TIP3    H250474   0.504   0.722   0.613 -1.4460 -0.5440  1.3241
 9687TIP3   OH250475   5.953   4.592   4.309  0.3481 -0.2541 -0.2063
 9687TIP3    H150476   5.933   4.498   4.311 -1.1528 -0.0310 -2.3909
 9687TIP3    H250477   6.032   4.598   4.255  1.1898 -0.3714  1.0105
 9688TIP3   OH250478   3.889   3.433  16.148  0.3083  0.1156 -0.3223
 9688TIP3    H150479   3.892   3.445  16.242 -0.1895 -1.0403 -0.1452
 9688TIP3    H250480   3.797   3.446  16.125  0.3757  0.0954 -0.6076
 9689TIP3   OH250481   3.086   1.931  10.906 -0.1191  0.5470  0.1407
 9689TIP3    H150482   3.074   1.942  11.000  0.2909 -0.4001  0.3113
 9689TIP3    H250483   3.163   1.985  10.885 -0.6757  1.3685  0.2106
 9690TIP3   OH250484   0.957   3.836  12.618 -0.0846 -0.0559 -0.0441
 9690TIP3    H150485   0.998   3.756  12.585  0.4734  0.7197 -1.2693
 9690TIP3    H250486   0.871   3.809  12.648 -0.1582 -1.0012 -1.0859
 9691TIP3   OH250487   2.421   2.802   1.430 -0.2362  0.2093  0.6982
 9691TIP3    H150488   2.507   2.798   1.388 -0.6742 -1.1318 -0.0930
 9691TIP3    H250489   2.367   2.742   1.380 -0.6283 -1.8643  3.5184
 9692TIP3   OH250490   4.779   3.606  10.628 -0.0049  0.5698  0.3504
 9692TIP3    H150491   4.776   3.511  10.630 -0.7675  0.5920  0.6290
 9692TIP3    H250492   4.688   3.633  10.616  0.4955  1.2175 -2.2388
 9693TIP3   OH250493   3.485   1.167  15.836  0.3355 -0.9033  0.4190
 9693TIP3    H150494   3.543   1.101  15.872 -0.4989 -1.0138  1.5784
 9693TIP3    H250495   3.407   1.119  15.806  0.0920 -0.5514  0.4736
 9694TIP3   OH250496   1.854   5.498  15.765  0.2653  0.3766  0.1308
 9694TIP3    H150497   1.763   5.527  15.762 -0.1703 -1.0473 -1.6480
 9694TIP3    H250498   1.882   5.513  15.855 -2.1875 -0.5167  1.0816
 9695TIP3   OH250499   5.778   4.909   4.672  0.2803 -0.3523  0.4628
 9695TIP3    H150500   5.694   4.949   4.694 -0.3660 -1.5898  0.2911
 9695TIP3    H250501   5.823   4.901   4.756  0.1318  0.0829  0.5899
 9696TIP3   OH250502   1.061   4.640   0.827  0.2678  0.5583 -0.2465
 9696TIP3    H150503   0.991   4.705   0.825  0.1494  0.4190 -4.1243
 9696TIP3    H250504   1.019   4.560   0.860 -1.5028  0.4497 -2.6109
 9697TIP3   OH250505   3.541   5.128  10.811  0.4624  0.0913  0.0482
 9697TIP3    H150506   3.520   5.096  10.723  1.3529  0.0542 -0.1529
 9697TIP3    H250507   3.491   5.209  10.820  1.3221  0.7252 -0.9478
 9698TIP3   OH250508   6.073   5.400   1.246 -0.5124  0.5200 -0.7029
 9698TIP3    H150509   6.111   5.418   1.332 -1.5288  2.1792 -0.5825
 9698TIP3    H250510   6.146   5.367   1.194 -0.1249 -1.6276  1.1040
 9699TIP3   OH250511   2.300   1.964   1.741 -0.3295 -0.4782  0.2302
 9699TIP3    H150512   2.308   1.869   1.731  0.2482 -0.6790  2.2489
 9699TIP3    H250513   2.312   1.979   1.835  0.3130  1.6644 -0.1644
 9700TIP3   OH250514   5.704   5.872   3.225  0.0968  0.1012 -0.4822
 9700TIP3    H150515   5.746   5.853   3.309 -0.2915 -0.0096 -0.3117
 9700TIP3    H250516   5.645   5.798   3.211 -1.5961  1.2711  0.2907
 9701TIP3   OH250517   5.581   3.571   4.205  1.0820  0.1207  0.7241
 9701TIP3    H150518   5.589   3.621   4.287 -1.6124  1.2877  0.3655
 9701TIP3    H250519   5.543   3.488   4.232  2.0932 -0.2937  0.8851
 9702TIP3   OH250520   0.638   2.526   5.726 -0.1229 -0.3888 -0.2420
 9702TIP3    H150521   0.564   2.570   5.769  0.9026  0.3272  0.8201
 9702TIP3    H250522   0.653   2.577   5.647  0.2281  0.4128  0.3307
 9703TIP3   OH250523   3.946   6.749   6.097  0.4365  0.5609 -0.0268
 9703TIP3    H150524   3.869   6.805   6.089 -1.5419 -2.0250  0.2824
 9703TIP3    H250525   3.952   6.730   6.190  0.0410 -1.1519 -0.3419
 9704TIP3   OH250526   5.224   1.842   4.244 -0.0760 -0.1317 -0.1996
 9704TIP3    H150527   5.162   1.905   4.280 -0.7658 -0.4570 -0.7899
 9704TIP3    H250528   5.280   1.817   4.318  0.7910  1.8410 -0.1514
 9705TIP3   OH250529   6.132   4.006  15.998 -0.2227  0.0263  0.2339
 9705TIP3    H150530   6.132   3.993  16.092  2.0022  1.8914  0.5359
 9705TIP3    H250531   6.224   3.998  15.972 -0.6863  0.4530 -1.6365
 9706TIP3   OH250532   2.253   2.010   4.667 -0.1744 -0.3384 -0.4248
 9706TIP3    H150533   2.241   1.962   4.585  0.8056  0.8973 -1.3076
 9706TIP3    H250534   2.258   2.102   4.641  0.9659  0.0030  0.9254
 9707TIP3   OH250535   0.395   4.710   0.449 -0.5158  0.0125 -0.0805
 9707TIP3    H150536   0.356   4.786   0.492 -1.0402  0.1700 -0.8070
 9707TIP3    H250537   0.478   4.742   0.414 -0.5481  0.1470 -0.0334
 9708TIP3   OH250538   2.172   4.924  12.642 -0.4903 -0.3701 -0.2623
 9708TIP3    H150539   2.230   4.982  12.594 -0.4436 -0.3059 -0.1276
 9708TIP3    H250540   2.089   4.926  12.593 -0.3768 -0.4712 -0.4594
 9709TIP3   OH250541   1.355   2.082  13.687 -0.2666  0.2705 -0.0911
 9709TIP3    H150542   1.380   2.173  13.672  0.1169 -0.0494 -1.4410
 9709TIP3    H250543   1.260   2.083  13.688 -0.2719  0.5894 -0.7295
 9710TIP3   OH250544   0.191   4.136  10.781 -0.2276  0.8686  0.4808
 9710TIP3    H150545   0.197   4.046  10.749 -0.9035  1.3294 -0.9891
 9710TIP3    H250546   0.272   4.150  10.829  0.7514  0.0892 -0.9112
 9711TIP3   OH250547   3.433   3.148   4.647  0.1969 -0.1288 -0.2729
 9711TIP3    H150548   3.385   3.066   4.658 -0.9336  0.4176 -0.9599
 9711TIP3    H250549   3.523   3.122   4.629  0.0958 -1.1868  0.7218
 9712TIP3   OH250550   4.685   3.393   1.506 -0.3468  0.3060  0.6493
 9712TIP3    H150551   4.752   3.337   1.545 -0.2750 -0.0937 -0.0423
 9712TIP3    H250552   4.727   3.479   1.497 -0.5337  0.5437  1.9249
 9713TIP3   OH250553   6.370   2.319  13.337 -0.6547  0.2892  0.4261
 9713TIP3    H150554   6.309   2.305  13.265  0.9981 -0.0257 -0.9410
 9713TIP3    H250555   6.413   2.234  13.349  1.3810  1.1860 -0.3813
 9714TIP3   OH250556   2.012   3.103  13.010 -0.1563 -0.8764 -0.5192
 9714TIP3    H150557   1.959   3.165  12.960  0.7469 -0.5507 -1.0879
 9714TIP3    H250558   1.982   3.113  13.100 -1.2159 -0.8649 -0.8773
 9715TIP3   OH250559   2.299   6.703   4.200  0.6086 -0.1620  0.4891
 9715TIP3    H150560   2.294   6.628   4.140 -0.8887 -0.4588  0.9598
 9715TIP3    H250561   2.383   6.745   4.180  0.4315 -0.6538 -1.3518
 9716TIP3   OH250562   3.760   4.222   4.068  0.3474 -0.5410 -0.1544
 9716TIP3    H150563   3.695   4.234   3.999  0.2620 -2.5046 -0.4358
 9716TIP3    H250564   3.720   4.262   4.146 -0.1272  0.4621 -0.8955
 9717TIP3   OH250565   1.641   1.254   0.338 -0.2893 -0.2500 -0.3068
 9717TIP3    H150566   1.680   1.293   0.260 -0.7347 -1.9870 -1.4299
 9717TIP3    H250567   1.606   1.328   0.387 -1.7275  0.7298 -2.7371
 9718TIP3   OH250568   5.820   3.637   4.701 -0.4178  0.2627  0.1903
 9718TIP3    H150569   5.779   3.561   4.742  0.7832  0.1644  1.2460
 9718TIP3    H250570   5.911   3.634   4.730  0.3376  0.5003 -2.1167
 9719TIP3   OH250571   2.836   2.084  11.155 -0.0157  0.0496 -0.3335
 9719TIP3    H150572   2.815   2.169  11.118  2.5228  2.2370  2.9909
 9719TIP3    H250573   2.931   2.077  11.148  0.1159 -1.1824  2.0649
 9720TIP3   OH250574   1.380   0.842  16.156 -0.6447  0.3785  0.4782
 9720TIP3    H150575   1.389   0.852  16.062 -0.7934 -1.5086  0.2509
 9720TIP3    H250576   1.304   0.897  16.178 -2.2773 -1.2671 -0.9122
 9721TIP3   OH250577   4.016   3.248  15.244 -0.2321  0.2509  0.1926
 9721TIP3    H150578   4.074   3.173  15.236 -0.9030 -0.2231 -0.2553
 9721TIP3    H250579   3.930   3.215  15.219 -0.4343  1.2978 -0.5295
 9722TIP3   OH250580   0.449   1.655  13.141  0.2114  0.1082 -0.3014
 9722TIP3    H150581   0.533   1.639  13.183  0.3851  0.6055 -0.4572
 9722TIP3    H250582   0.450   1.749  13.121 -0.4093  0.1281 -0.2346
 9723TIP3   OH250583   1.225   6.086   5.861  0.5581  0.3449 -0.4774
 9723TIP3    H150584   1.140   6.109   5.899  1.2234 -0.7179  1.7463
 9723TIP3    H250585   1.211   6.000   5.822  1.0563 -0.6658  1.5178
 9724TIP3   OH250586   1.936   1.360  14.906 -0.1818 -0.8567  0.1749
 9724TIP3    H150587   1.909   1.451  14.920  2.7431 -0.0628  1.1284
 9724TIP3    H250588   1.854   1.311  14.906 -1.8513  1.7838 -0.5883
 9725TIP3   OH250589   4.755   5.572  14.404 -0.2772 -0.0278 -0.0951
 9725TIP3    H150590   4.783   5.663  14.419  0.5266 -0.3481  0.3742
 9725TIP3    H250591   4.736   5.538  14.491  0.6545 -0.6939 -0.1418
 9726TIP3   OH250592   1.065   4.975  13.358 -0.2601  0.3687  0.1554
 9726TIP3    H150593   1.144   5.023  13.334 -0.8572  1.5202  0.4988
 9726TIP3    H250594   1.095   4.915  13.427  0.1296  1.4467  0.9451
 9727TIP3   OH250595   4.126   3.857   5.541 -0.0159 -0.0685 -0.2224
 9727TIP3    H150596   4.094   3.768   5.530  1.8136 -0.7399 -0.2509
 9727TIP3    H250597   4.049   3.907   5.569 -0.8257 -1.8702  0.8391
 9728TIP3   OH250598   2.286   5.458   1.466 -0.3422  0.1563  0.0327
 9728TIP3    H150599   2.225   5.530   1.482 -0.7142 -0.3421  0.8747
 9728TIP3    H250600   2.325   5.440   1.551 -0.9515 -1.2758  0.0076
 9729TIP3   OH250601   0.328   4.233  11.148 -0.1271 -0.3114  0.3311
 9729TIP3    H150602   0.293   4.283  11.222 -1.4687 -1.2245  0.3403
 9729TIP3    H250603   0.274   4.154  11.145 -0.7788  0.1706 -2.2679
 9730TIP3   OH250604   3.554   2.055   0.015 -0.5230 -0.2112 -0.3136
 9730TIP3    H150605   3.516   2.075  -0.071 -0.8540 -1.8021 -0.5478
 9730TIP3    H250606   3.552   2.138   0.062  0.0330  0.7670 -1.9962
 9731TIP3   OH250607   0.996   1.513   1.671  0.4637 -0.5014 -0.5446
 9731TIP3    H150608   1.025   1.604   1.660 -2.3658  0.4476 -0.3617
 9731TIP3    H250609   0.906   1.512   1.639 -0.1256 -2.8749  1.0823
 9732TIP3   OH250610   2.965   0.135  16.288 -0.3348 -0.7249 -0.0573
 9732TIP3    H150611   2.967   0.108  16.196 -2.1593  0.8687 -0.5826
 9732TIP3    H250612   2.937   0.226  16.286 -0.4334 -0.6769  2.1062
 9733TIP3   OH250613   0.191   2.288  12.299 -0.0379 -0.1136  0.2449
 9733TIP3    H150614   0.272   2.262  12.342  1.3126 -0.1439 -2.2007
 9733TIP3    H250615   0.128   2.300  12.370  1.4964 -2.2166  2.0177
 9734TIP3   OH250616   1.563   6.440  14.858 -0.5336  0.4243 -0.3032
 9734TIP3    H150617   1.532   6.501  14.925  0.1600  0.7149 -0.2390
 9734TIP3    H250618   1.659   6.446  14.863 -0.4776  0.3481 -1.2325
 9735TIP3   OH250619   5.135   3.620  15.233 -0.3050 -0.2598 -0.1874
 9735TIP3    H150620   5.086   3.606  15.315  1.4504 -0.0309  0.9336
 9735TIP3    H250621   5.136   3.716  15.222 -0.3997 -0.2817 -0.3796
 9736TIP3   OH250622   3.591   5.327  14.069  0.5508 -0.4425  0.0521
 9736TIP3    H150623   3.564   5.344  13.979  0.3483  0.3420  0.2563
 9736TIP3    H250624   3.515   5.352  14.122  0.2862 -1.8955  0.3779
 9737TIP3   OH250625   4.002   0.618  13.838  0.3090 -0.1037  0.2416
 9737TIP3    H150626   3.924   0.673  13.830 -1.6441 -2.7282  0.2547
 9737TIP3    H250627   4.004   0.595  13.931  0.6779 -0.6208  0.1046
 9738TIP3   OH250628   3.482   5.948   5.959  0.0765 -0.3871  0.1382
 9738TIP3    H150629   3.524   6.010   5.899  1.3325 -1.1193  0.2265
 9738TIP3    H250630   3.453   6.001   6.032 -1.3078  0.4862 -1.0371
 9739TIP3   OH250631   6.704   4.565  11.073 -0.0970  0.5569 -0.0679
 9739TIP3    H150632   6.747   4.632  11.020 -0.9505  0.2151 -1.2174
 9739TIP3    H250633   6.616   4.601  11.089 -1.0568 -0.8755 -1.8936
 9740TIP3   OH250634   3.428   2.567  15.749 -0.4198  0.2775  0.4712
 9740TIP3    H150635   3.485   2.610  15.685  0.9423  1.5211  2.4589
 9740TIP3    H250636   3.464   2.593  15.834 -2.1315 -1.4123  1.7493
 9741TIP3   OH250637   4.590   0.998   3.763  0.0579 -0.0327 -0.3424
 9741TIP3    H150638   4.571   1.005   3.856 -0.6239  1.4783 -0.5844
 9741TIP3    H250639   4.671   1.048   3.751  0.3711 -0.5647 -0.5059
 9742TIP3   OH250640   5.337   1.964  11.004 -0.6250 -0.2257 -0.2429
 9742TIP3    H150641   5.341   2.046  11.053  1.7122 -0.9612  0.8680
 9742TIP3    H250642   5.364   1.988  10.915  2.5700 -0.1806  0.6781
 9743TIP3   OH250643   6.376   1.651   3.235  0.2121  0.0306  0.4898
 9743TIP3    H150644   6.289   1.643   3.196  0.8523 -0.8324 -0.7886
 9743TIP3    H250645   6.436   1.652   3.161  1.3780 -0.4943  1.4039
 9744TIP3   OH250646   0.637   3.206   3.058 -0.2465  0.2378  0.2862
 9744TIP3    H150647   0.659   3.119   3.023 -1.0729  0.4189 -0.6826
 9744TIP3    H250648   0.610   3.189   3.148 -0.7430 -0.5524 -0.0080
 9745TIP3   OH250649   1.169   4.471   1.878  0.3969  0.1526 -0.2002
 9745TIP3    H150650   1.146   4.563   1.865  1.9585  0.5258 -0.3817
 9745TIP3    H250651   1.215   4.446   1.798  0.3113 -0.6824  0.0073
 9746TIP3   OH250652   5.385   5.514   5.537  0.2210 -0.4524  0.5247
 9746TIP3    H150653   5.471   5.476   5.519  1.5158  1.6624  2.1039
 9746TIP3    H250654   5.369   5.497   5.629  0.5444  2.1842  1.1191
 9747TIP3   OH250655   6.442   4.375   0.708 -0.0865  0.3145 -0.2670
 9747TIP3    H150656   6.505   4.406   0.643  1.3106 -1.3095  0.2759
 9747TIP3    H250657   6.468   4.417   0.790 -0.9355  1.1918 -0.4370
 9748TIP3   OH250658   0.415   2.838  13.408  0.3840 -0.0309  0.2329
 9748TIP3    H150659   0.425   2.925  13.369  1.1223 -0.5961 -0.8534
 9748TIP3    H250660   0.503   2.799  13.403  0.4668 -0.1876  2.3017
 9749TIP3   OH250661   5.691   5.556  12.354  0.4546  0.2671  0.1443
 9749TIP3    H150662   5.766   5.515  12.397  1.0810  0.1118 -1.0566
 9749TIP3    H250663   5.615   5.523  12.401  1.2132  1.9610  2.6367
 9750TIP3   OH250664   4.509   2.413   6.237 -0.4843  0.0718  0.6335
 9750TIP3    H150665   4.447   2.469   6.192 -2.3446 -0.9601  1.8452
 9750TIP3    H250666   4.472   2.401   6.325  0.5891 -1.8878  0.8508
 9751TIP3   OH250667   0.893   6.600  12.470  0.0820 -0.5771 -0.2006
 9751TIP3    H150668   0.924   6.608  12.380  2.0052  0.6437  0.5494
 9751TIP3    H250669   0.901   6.689  12.506 -1.7744 -0.8017  0.8380
 9752TIP3   OH250670   2.213   4.707  12.802  0.5907 -0.4635 -0.1067
 9752TIP3    H150671   2.299   4.667  12.786  0.4237 -1.0321  0.3755
 9752TIP3    H250672   2.209   4.781  12.742  1.9127  0.2913  0.7164
 9753TIP3   OH250673   4.537   3.737  11.305  0.0886 -0.0277  0.2930
 9753TIP3    H150674   4.443   3.757  11.300 -0.1699 -0.2034  3.3343
 9753TIP3    H250675   4.548   3.700  11.392  2.8116 -1.1168 -0.4846
 9754TIP3   OH250676   6.021   0.660   4.825 -0.2747  0.4832  0.3901
 9754TIP3    H150677   6.109   0.625   4.841 -0.3144  0.2561  0.1206
 9754TIP3    H250678   6.032   0.719   4.751 -0.6329 -0.7586 -0.6731
 9755TIP3   OH250679   5.932   0.938  13.114  1.0447 -0.5974 -0.9450
 9755TIP3    H150680   5.836   0.940  13.106  0.9277 -1.5206  0.0632
 9755TIP3    H250681   5.964   0.963  13.027 -0.1128 -1.4029 -1.6127
 9756TIP3   OH250682   5.362   3.387  13.082  0.0375 -0.2319  0.5678
 9756TIP3    H150683   5.456   3.368  13.078 -0.2098 -1.1335 -2.1624
 9756TIP3    H250684   5.354   3.477  13.050 -0.0827 -0.4340  0.0167
 9757TIP3   OH250685   2.911   6.779   0.032 -0.5976  0.4425 -0.8166
 9757TIP3    H150686   2.856   6.847  -0.007 -0.7026 -0.2559 -1.8856
 9757TIP3    H250687   2.992   6.781  -0.019 -0.4987 -0.0569 -0.6816
 9758TIP3   OH250688   2.653   2.740   6.221 -0.2523  0.0018  0.5544
 9758TIP3    H150689   2.699   2.748   6.305  0.7713  0.0892 -0.0097
 9758TIP3    H250690   2.669   2.650   6.193  2.4553  0.9969 -1.2816
 9759TIP3   OH250691   6.676   4.779   1.989  0.6057 -0.2549 -0.1057
 9759TIP3    H150692   6.630   4.863   1.979  0.3966 -0.3853 -0.2406
 9759TIP3    H250693   6.762   4.795   1.948 -0.6586 -1.1226 -3.2810
 9760TIP3   OH250694   3.597   1.338   4.756  0.4066 -0.7348  0.7510
 9760TIP3    H150695   3.617   1.309   4.845  0.5098 -0.4852  0.8094
 9760TIP3    H250696   3.643   1.276   4.700 -0.1923 -1.2881  0.8619
 9761TIP3   OH250697   5.736   1.798  14.755  0.2687 -0.0616  0.1804
 9761TIP3    H150698   5.808   1.858  14.736  0.8964 -0.9011 -0.1052
 9761TIP3    H250699   5.738   1.786  14.850 -0.0942  0.6556  0.2838
 9762TIP3   OH250700   0.103   2.106   5.530 -0.6048 -0.4582  0.2790
 9762TIP3    H150701   0.102   2.071   5.619  0.2589 -2.2695 -0.3942
 9762TIP3    H250702   0.147   2.038   5.478  1.0766  1.6273 -1.1037
 9763TIP3   OH250703   4.366   0.051  16.924 -0.1694  0.1051 -0.5935
 9763TIP3    H150704   4.312  -0.011  16.974 -1.3951  1.8150  0.2675
 9763TIP3    H250705   4.445   0.002  16.902 -1.1625 -1.8030 -0.0412
 9764TIP3   OH250706   1.136   3.657  12.453  0.1063  0.1397 -0.5000
 9764TIP3    H150707   1.058   3.651  12.398  0.0050 -1.8277 -0.1866
 9764TIP3    H250708   1.138   3.573  12.500  2.5670  0.0465 -0.7099
 9765TIP3   OH250709   1.254   1.507  13.320  0.4434  0.4669 -0.0167
 9765TIP3    H150710   1.324   1.444  13.339  1.1264  1.5387  1.1113
 9765TIP3    H250711   1.295   1.572  13.263  0.3726  1.0926  0.6417
 9766TIP3   OH250712   4.171   2.041  11.893  0.3110 -0.2819  0.0109
 9766TIP3    H150713   4.095   1.986  11.877 -0.1607  0.9792 -2.2052
 9766TIP3    H250714   4.135   2.125  11.921  0.9670 -0.3769  1.1852
 9767TIP3   OH250715   3.927   4.554   6.617 -1.0275 -0.2522 -0.0591
 9767TIP3    H150716   3.873   4.567   6.538  1.3011  0.6540 -1.5341
 9767TIP3    H250717   3.939   4.459   6.622  0.3662 -0.2101 -1.9039
 9768TIP3   OH250718   2.580   6.754  15.217 -0.4699 -0.2236 -0.4290
 9768TIP3    H150719   2.593   6.693  15.144 -1.2142 -0.5512 -0.2960
 9768TIP3    H250720   2.604   6.839  15.182  1.9474 -0.7880 -0.2077
 9769TIP3   OH250721   3.130   4.866  14.981 -0.0139 -1.3790 -0.3360
 9769TIP3    H150722   3.086   4.906  15.056 -0.7390 -0.5202 -1.2162
 9769TIP3    H250723   3.221   4.855  15.010  0.8032  3.1005 -0.8659
 9770TIP3   OH250724   3.834   5.148  12.235  0.6093 -0.0107 -0.0848
 9770TIP3    H150725   3.892   5.202  12.181  1.7324 -0.0543  1.0581
 9770TIP3    H250726   3.865   5.059  12.222  1.1096  0.0141  0.8888
 9771TIP3   OH250727   3.831   1.611  13.842 -0.3894 -0.0418  0.4560
 9771TIP3    H150728   3.850   1.693  13.889 -0.2385  0.7440 -0.9372
 9771TIP3    H250729   3.869   1.624  13.755  0.3313 -1.9265  0.4675
 9772TIP3   OH250730   6.481   2.011  17.138  0.1476 -0.6165 -0.2040
 9772TIP3    H150731   6.523   1.997  17.054  1.2430  0.2268  0.1922
 9772TIP3    H250732   6.524   1.948  17.197  1.7193  1.0504  0.4753
 9773TIP3   OH250733   0.913   2.926   6.591  0.0410 -0.3910 -0.1606
 9773TIP3    H150734   0.865   2.854   6.632 -0.0075  0.2786  0.9931
 9773TIP3    H250735   0.874   3.005   6.629  0.0091  0.2422 -1.5147
 9774TIP3   OH250736   0.737   1.444   1.604 -0.0313  0.2819  0.2853
 9774TIP3    H150737   0.721   1.486   1.519 -1.8661  2.7596  1.7827
 9774TIP3    H250738   0.691   1.360   1.598 -0.0966  0.4007 -1.1731
 9775TIP3   OH250739   5.823   2.938   2.487 -0.0467  0.2657  0.1399
 9775TIP3    H150740   5.758   2.869   2.499  1.0860 -0.6895  0.9267
 9775TIP3    H250741   5.793   3.010   2.543  0.0632 -0.5237  1.2241
 9776TIP3   OH250742   2.352   6.557   3.479 -0.0568 -0.0563 -0.2045
 9776TIP3    H150743   2.277   6.614   3.498  0.7117  0.7872  0.3389
 9776TIP3    H250744   2.360   6.502   3.557  0.6107  0.6678  0.2531
 9777TIP3   OH250745   5.310   5.046   5.793 -0.8113  0.1329  0.4740
 9777TIP3    H150746   5.295   5.140   5.781  0.0730  0.2665  0.3637
 9777TIP3    H250747   5.387   5.041   5.850  0.4418 -0.5369 -1.2637
 9778TIP3   OH250748   5.809   3.061   2.766 -0.1894 -0.2781 -0.2482
 9778TIP3    H150749   5.732   3.005   2.774  0.1647 -0.7982 -0.5088
 9778TIP3    H250750   5.822   3.097   2.854 -0.3590 -0.6760 -0.0618
 9779TIP3   OH250751   5.597   4.951   2.412  0.0575  0.1502 -0.4384
 9779TIP3    H150752   5.550   4.887   2.359 -0.6224  1.0408 -0.9116
 9779TIP3    H250753   5.594   5.032   2.362 -1.1585  1.1727  1.2448
 9780TIP3   OH250754   4.105   2.198   3.589 -0.1942  0.0565  0.3254
 9780TIP3    H150755   4.136   2.185   3.499  0.1502 -0.6150  0.5350
 9780TIP3    H250756   4.025   2.147   3.594  0.8545 -1.5762  0.9825
 9781TIP3   OH250757   2.913   4.054   1.441 -0.2637  0.3163  0.2014
 9781TIP3    H150758   2.945   4.093   1.360  0.0617  0.8600  0.5847
 9781TIP3    H250759   2.912   4.127   1.504 -0.8874 -0.0102  0.5789
 9782TIP3   OH250760   1.766   3.793  15.344  0.0918  0.2942  0.0852
 9782TIP3    H150761   1.754   3.874  15.394 -0.2415 -1.1660  2.4489
 9782TIP3    H250762   1.860   3.788  15.327 -0.0115  1.6462 -0.8893
 9783TIP3   OH250763   1.503   4.702   6.359  0.1547 -0.4294  0.4311
 9783TIP3    H150764   1.409   4.689   6.349  0.3088 -0.4178 -1.2502
 9783TIP3    H250765   1.524   4.667   6.446 -1.4867  0.1140  1.0555
 9784TIP3   OH250766   4.290   2.648   4.700 -0.1706 -0.3651 -0.0380
 9784TIP3    H150767   4.205   2.666   4.741 -1.5430 -0.1457 -2.8261
 9784TIP3    H250768   4.306   2.724   4.644  2.8554  0.5058  1.9285
 9785TIP3   OH250769   4.418   0.515  11.628  0.2134  0.0941 -0.7071
 9785TIP3    H150770   4.339   0.556  11.594  0.4850  0.2630 -1.1518
 9785TIP3    H250771   4.393   0.424  11.646 -0.9307  0.9608  2.1900
 9786TIP3   OH250772   0.464   1.652  10.748 -0.6728  0.1324  0.0264
 9786TIP3    H150773   0.507   1.688  10.670 -0.3428  0.0846  0.1858
 9786TIP3    H250774   0.436   1.729  10.798 -1.1917  0.1607 -0.3117
 9787TIP3   OH250775   5.392   2.264  17.075 -0.0657 -0.5432 -0.6057
 9787TIP3    H150776   5.477   2.276  17.035  0.5567 -2.4833  0.0427
 9787TIP3    H250777   5.406   2.196  17.141 -1.2509  1.8412  2.2211
 9788TIP3   OH250778   6.453   4.989  15.041  0.2702 -0.0979 -0.2186
 9788TIP3    H150779   6.540   5.011  15.074  1.4632 -0.9187 -2.6836
 9788TIP3    H250780   6.469   4.925  14.972 -2.2057  0.6485 -1.5530
 9789TIP3   OH250781   2.091   5.833  11.998 -0.2943 -0.0792  0.0445
 9789TIP3    H150782   2.091   5.899  12.068 -0.6995 -0.4294  0.3796
 9789TIP3    H250783   2.172   5.849  11.950 -0.8514  1.2762 -0.4546
 9790TIP3   OH250784   6.200   1.341   2.967  0.5754  0.2603  0.2867
 9790TIP3    H150785   6.107   1.331   2.947  0.7043 -0.1828 -0.0951
 9790TIP3    H250786   6.205   1.340   3.063 -0.1258  3.1009  0.3849
 9791TIP3   OH250787   5.757   0.462   1.890  0.2626  0.3558  0.2030
 9791TIP3    H150788   5.673   0.430   1.858  0.5401 -0.8348  0.6431
 9791TIP3    H250789   5.782   0.531   1.828 -0.6288  0.1362 -0.4049
 9792TIP3   OH250790   6.416   6.312  14.245 -0.7239 -0.2349  0.1527
 9792TIP3    H150791   6.420   6.408  14.240 -1.1513 -0.0771  2.3950
 9792TIP3    H250792   6.323   6.291  14.236 -0.4854 -0.5531 -1.7505
 9793TIP3   OH250793   1.445   0.716   1.259 -0.2768  0.6847 -0.8164
 9793TIP3    H150794   1.462   0.638   1.311  2.0046  0.2610 -2.1402
 9793TIP3    H250795   1.351   0.732   1.270 -0.9344 -2.6566 -1.1166
 9794TIP3   OH250796   5.037   4.397   3.158 -0.3678  0.4577 -0.1616
 9794TIP3    H150797   5.005   4.373   3.071 -0.8179  0.8711 -0.1061
 9794TIP3    H250798   4.987   4.342   3.218  1.4786 -1.4476 -0.2842
 9795TIP3   OH250799   3.804   1.901  13.670  0.3319 -0.0207  0.1350
 9795TIP3    H150800   3.893   1.881  13.699 -0.7490 -0.0536  3.7987
 9795TIP3    H250801   3.761   1.936  13.749 -2.8338  0.1803 -1.5926
 9796TIP3   OH250802   0.565   1.350  11.203  0.0797  0.3657  0.2807
 9796TIP3    H150803   0.625   1.402  11.256 -2.3479  4.3500 -0.6823
 9796TIP3    H250804   0.491   1.332  11.262  0.3682 -0.9455  0.2430
 9797TIP3   OH250805   5.217   1.929   6.203  0.1771 -0.6654 -0.2121
 9797TIP3    H150806   5.138   1.974   6.174  0.7736  0.9083  0.5440
 9797TIP3    H250807   5.186   1.844   6.234 -1.0578 -0.5324 -1.0412
 9798TIP3   OH250808   5.354   6.125  10.492  0.3261  0.4640 -0.8458
 9798TIP3    H150809   5.333   6.215  10.518  0.5037 -0.0251  1.0491
 9798TIP3    H250810   5.282   6.073  10.525  0.3883 -0.1495 -1.6542
 9799TIP3   OH250811   1.478   0.638   2.452 -0.0501  0.0588 -0.1314
 9799TIP3    H150812   1.511   0.575   2.388 -0.6012 -0.5169  0.1473
 9799TIP3    H250813   1.438   0.584   2.521  2.6533  0.5532  1.9083
 9800TIP3   OH250814   5.913   0.885  12.806 -0.3402 -0.0330 -0.8058
 9800TIP3    H150815   5.880   0.805  12.845 -0.6952  0.4097 -0.2026
 9800TIP3    H250816   5.840   0.946  12.809  0.1861  0.5925 -0.4780
 9801TIP3   OH250817   1.215   0.649  15.847  0.2180 -0.3764 -0.5899
 9801TIP3    H150818   1.130   0.605  15.853  0.3341 -0.6346 -0.8039
 9801TIP3    H250819   1.272   0.597  15.904  0.2975 -0.3628 -0.6570
 9802TIP3   OH250820   0.123   1.504  11.906 -0.4056  0.2226 -0.0031
 9802TIP3    H150821   0.206   1.536  11.942 -0.6661  0.6903  0.1953
 9802TIP3    H250822   0.072   1.584  11.890 -0.5986 -0.0349 -0.6554
 9803TIP3   OH250823   1.947   0.312   4.840 -0.1071 -0.1409 -0.5766
 9803TIP3    H150824   1.998   0.241   4.880  0.5089  2.3885  3.4957
 9803TIP3    H250825   1.935   0.285   4.750  0.9369 -4.9424  0.5748
 9804TIP3   OH250826   2.414   5.298  14.416 -0.1220  0.3348  0.6103
 9804TIP3    H150827   2.370   5.235  14.472 -0.7351 -0.7633 -1.0519
 9804TIP3    H250828   2.346   5.361  14.392 -0.2659 -0.1268 -0.2071
 9805TIP3   OH250829   0.198   5.837  16.137  0.3062 -0.2760  0.0827
 9805TIP3    H150830   0.281   5.804  16.103 -0.2622  1.1020 -2.9027
 9805TIP3    H250831   0.136   5.766  16.121  0.2678 -0.0446 -0.8882
 9806TIP3   OH250832   0.827   5.377   6.274 -0.5922  0.5280 -0.0933
 9806TIP3    H150833   0.754   5.315   6.272 -1.0126  1.0643 -1.9938
 9806TIP3    H250834   0.903   5.326   6.245 -0.6376  0.5428 -0.2340
 9807TIP3   OH250835   6.060   1.954  16.674 -0.3153  0.0701  0.0415
 9807TIP3    H150836   6.038   1.879  16.619 -0.2511 -1.0110  1.4609
 9807TIP3    H250837   6.144   1.931  16.715 -0.1766  1.0151  0.3116
 9808TIP3   OH250838   3.722   3.960  13.056 -0.1174 -0.2905  0.4134
 9808TIP3    H150839   3.686   4.019  13.122 -0.5606  1.2007 -1.1057
 9808TIP3    H250840   3.725   4.013  12.976 -0.2069 -2.2422 -0.9201
 9809TIP3   OH250841   5.539   2.849   4.384  0.9130  0.5785  0.3359
 9809TIP3    H150842   5.464   2.838   4.325  0.0582 -0.0381  1.5185
 9809TIP3    H250843   5.602   2.900   4.333  0.5055 -0.5753 -1.3846
 9810TIP3   OH250844   2.089   3.353   4.453  0.1400  0.3203 -0.4802
 9810TIP3    H150845   2.003   3.356   4.412 -0.1863  0.1841  0.1915
 9810TIP3    H250846   2.122   3.442   4.446 -1.5216  1.2228  2.3718
 9811TIP3   OH250847   4.779   4.047   4.923 -0.2192  0.1494 -0.8655
 9811TIP3    H150848   4.786   3.967   4.975 -0.9776 -0.9781 -2.4610
 9811TIP3    H250849   4.783   4.118   4.987 -0.6524 -1.1960  0.6732
 9812TIP3   OH250850   1.161   3.785  14.506  0.8349 -0.8923  0.4090
 9812TIP3    H150851   1.248   3.790  14.467  0.1444 -1.0030 -1.1927
 9812TIP3    H250852   1.134   3.694  14.492  0.6079 -0.9614  1.2491
 9813TIP3   OH250853   1.987   6.442  13.693  0.4232  0.3422  0.0024
 9813TIP3    H150854   1.910   6.386  13.679  2.6710 -2.1719 -3.3730
 9813TIP3    H250855   2.026   6.410  13.774  0.3167 -1.4333 -0.6132
 9814TIP3   OH250856   3.660   4.853   5.703 -0.3873  0.0904  0.4096
 9814TIP3    H150857   3.634   4.895   5.785  0.1355  1.9095 -0.3321
 9814TIP3    H250858   3.756   4.852   5.707 -0.3857 -0.6270  0.2042
 9815TIP3   OH250859   1.997   0.442  10.619 -0.2687 -0.3849 -0.0907
 9815TIP3    H150860   1.911   0.477  10.645  0.5844  2.3060 -0.7472
 9815TIP3    H250861   2.057   0.477  10.685  0.3114 -2.6004  0.6074
 9816TIP3   OH250862   1.065   0.020  15.740 -0.1030  0.3647  0.2928
 9816TIP3    H150863   0.971   0.033  15.740 -0.1603  0.0839 -0.8372
 9816TIP3    H250864   1.094   0.045  15.828 -0.7600  3.7081 -0.3749
 9817TIP3   OH250865   1.078   5.387  16.960 -0.3946  0.6976 -0.0569
 9817TIP3    H150866   1.055   5.475  16.931 -1.2469  0.9170  1.2748
 9817TIP3    H250867   1.066   5.388  17.055  0.9183 -0.4561  0.1490
 9818TIP3   OH250868   2.546   4.608   5.761 -0.0863 -0.6106  0.5015
 9818TIP3    H150869   2.640   4.591   5.751 -0.3673 -1.6892 -0.4428
 9818TIP3    H250870   2.535   4.626   5.854  1.0933 -0.2763  0.5863
 9819TIP3   OH250871   1.878   1.424  13.043  0.0956 -0.3960  0.5679
 9819TIP3    H150872   1.886   1.458  13.132  1.4790  0.8279  0.0085
 9819TIP3    H250873   1.946   1.471  12.993 -1.1075 -0.5569 -1.2757
 9820TIP3   OH250874   1.618   2.567  16.661  0.1389 -0.0662 -0.4765
 9820TIP3    H150875   1.711   2.581  16.645  0.4913  0.2294  1.7735
 9820TIP3    H250876   1.576   2.644  16.622  0.8131 -0.2239 -1.5397
 9821TIP3   OH250877   4.576   0.147   2.175 -0.4749 -0.8757  0.3422
 9821TIP3    H150878   4.638   0.218   2.194  2.4204 -2.6367 -2.0722
 9821TIP3    H250879   4.526   0.178   2.100 -0.4299 -0.6908  0.3879
 9822TIP3   OH250880   0.413   2.965   0.942 -0.3699 -0.0685  0.2845
 9822TIP3    H150881   0.464   2.912   1.003 -2.5158 -2.5457  0.0242
 9822TIP3    H250882   0.428   2.923   0.856  0.5289  1.7790 -0.4818
 9823TIP3   OH250883   1.086   5.576   4.224 -0.1843 -0.5588  0.2795
 9823TIP3    H150884   1.046   5.490   4.213  0.1603 -0.6741 -0.0865
 9823TIP3    H250885   1.063   5.624   4.144  1.1899 -0.9465 -0.3827
 9824TIP3   OH250886   2.681   1.296   2.286  0.3593 -0.1597 -0.0307
 9824TIP3    H150887   2.769   1.307   2.322  0.4981 -1.5973  0.1337
 9824TIP3    H250888   2.690   1.320   2.194  0.5360  1.3090  0.3705
 9825TIP3   OH250889   1.438   3.603   4.310 -0.7844 -0.3259  0.2489
 9825TIP3    H150890   1.515   3.659   4.298 -0.6356 -0.6989 -0.5869
 9825TIP3    H250891   1.405   3.626   4.396 -1.1628  1.6202 -0.3925
 9826TIP3   OH250892   3.916   2.689  16.658 -0.2772  0.1048 -0.2781
 9826TIP3    H150893   3.840   2.641  16.625  0.1390 -0.5863 -0.2424
 9826TIP3    H250894   3.922   2.767  16.603  0.5603 -1.1525 -2.0254
 9827TIP3   OH250895   0.443   2.885  14.037  0.4452  0.3016  0.8979
 9827TIP3    H150896   0.355   2.920  14.022 -0.3185 -1.2446  1.7025
 9827TIP3    H250897   0.453   2.885  14.132  0.4082 -1.7234  0.9082
 9828TIP3   OH250898   3.361   6.521  14.425 -0.3186  0.1049 -0.6886
 9828TIP3    H150899   3.365   6.511  14.520  0.7220  1.1921 -0.6064
 9828TIP3    H250900   3.297   6.456  14.397  0.9182 -1.6842  0.5266
 9829TIP3   OH250901   1.012   6.561  11.850 -0.0839  0.0926  0.2504
 9829TIP3    H150902   1.082   6.604  11.901  0.1179  0.5802 -0.4276
 9829TIP3    H250903   1.034   6.580  11.759  0.0029 -1.4549 -0.0693
 9830TIP3   OH250904   1.037   5.766   4.032 -0.8640 -0.0964  0.0240
 9830TIP3    H150905   1.071   5.754   3.943 -1.0597  0.5240 -0.1382
 9830TIP3    H250906   0.949   5.800   4.019 -0.7587  0.3438  0.4609
 9831TIP3   OH250907   0.373   5.489  16.062  0.7123 -0.2599  0.2879
 9831TIP3    H150908   0.423   5.411  16.040  1.4568  0.0815  0.7809
 9831TIP3    H250909   0.348   5.476  16.154  0.5192 -0.0934  0.2583
 9832TIP3   OH250910   3.907   5.267  15.255 -0.2212  0.3417 -0.0367
 9832TIP3    H150911   3.915   5.281  15.350  0.8242 -2.3083  0.2996
 9832TIP3    H250912   3.831   5.210  15.246  0.4384 -0.4353 -0.6968
 9833TIP3   OH250913   3.402   5.689   4.883  0.0240  0.0626  0.3360
 9833TIP3    H150914   3.323   5.635   4.894 -0.1698  0.4254  0.7120
 9833TIP3    H250915   3.452   5.674   4.963  0.1224  0.1890  0.2972
 9834TIP3   OH250916   5.201   1.164   2.830 -0.2342 -0.3198 -0.3866
 9834TIP3    H150917   5.169   1.093   2.774  1.8297 -2.9765  1.6583
 9834TIP3    H250918   5.278   1.128   2.873  2.7315  4.2421 -1.5581
 9835TIP3   OH250919   3.629   4.318  13.591  0.0452  0.0328 -0.3209
 9835TIP3    H150920   3.611   4.229  13.563  1.4189 -0.8945  1.6305
 9835TIP3    H250921   3.723   4.330  13.577 -0.1681  1.2563 -0.7814
 9836TIP3   OH250922   5.842   1.156   2.218  0.0987 -0.0100  0.2002
 9836TIP3    H150923   5.804   1.086   2.271 -1.6987  0.8323  0.0739
 9836TIP3    H250924   5.887   1.212   2.282  1.3209 -1.0993  0.3298
 9837TIP3   OH250925   6.278   2.208  15.162 -0.0461 -0.1196  0.3133
 9837TIP3    H150926   6.284   2.159  15.080 -1.2896 -0.4048  0.3856
 9837TIP3    H250927   6.248   2.295  15.136 -0.3164 -0.1709  0.4513
 9838TIP3   OH250928   0.291   0.753   1.787 -0.4013 -0.0601  0.2164
 9838TIP3    H150929   0.249   0.825   1.834  0.4611  1.1479 -0.8143
 9838TIP3    H250930   0.281   0.776   1.694  0.8607 -0.6994 -0.0923
 9839TIP3   OH250931   2.748   2.263  13.063  0.4247 -0.5042  0.2581
 9839TIP3    H150932   2.723   2.171  13.060 -0.2455 -0.2861 -0.7925
 9839TIP3    H250933   2.844   2.262  13.056  0.5473 -1.1854  1.7229
 9840TIP3   OH250934   3.637   1.726   2.433  0.2344 -0.4580 -0.0738
 9840TIP3    H150935   3.660   1.745   2.342 -2.1367  1.0905 -0.4187
 9840TIP3    H250936   3.624   1.631   2.436  0.7554 -0.5691 -1.2400
 9841TIP3   OH250937   6.318   1.765   3.742 -0.2520 -0.0757 -0.0420
 9841TIP3    H150938   6.361   1.704   3.683 -0.7518 -1.5467  1.0908
 9841TIP3    H250939   6.300   1.842   3.688  0.8051 -0.7457 -1.3611
 9842TIP3   OH250940   1.831   6.098  13.193 -0.0205  0.1347 -0.0882
 9842TIP3    H150941   1.844   6.130  13.282 -0.3577 -1.5458  0.5652
 9842TIP3    H250942   1.860   6.171  13.138 -1.1192  1.7164  1.3828
 9843TIP3   OH250943   6.532   3.655  14.403 -0.1521  0.1147 -0.2008
 9843TIP3    H150944   6.506   3.664  14.495  2.2714 -0.7077  0.6097
 9843TIP3    H250945   6.616   3.701  14.397 -0.1876 -0.0261 -1.9446
 9844TIP3   OH250946   4.072   4.348   1.770 -0.5789  0.3739 -0.0344
 9844TIP3    H150947   4.034   4.434   1.754 -0.1415  1.0882  2.5517
 9844TIP3    H250948   4.158   4.366   1.808 -0.5283 -1.1880  0.6500
 9845TIP3   OH250949   6.532   5.956  13.279  0.1161 -0.1697 -0.0959
 9845TIP3    H150950   6.492   6.037  13.247  0.9942 -0.1398 -1.1866
 9845TIP3    H250951   6.626   5.971  13.268  0.2756 -1.3906 -0.4366
 9846TIP3   OH250952   0.490   5.267  10.462 -0.0942 -0.2311 -0.2844
 9846TIP3    H150953   0.484   5.287  10.556  1.6071 -3.6722  0.6366
 9846TIP3    H250954   0.404   5.233  10.439 -0.5074  0.5981  0.0089
 9847TIP3   OH250955   5.404   6.256  15.283 -0.3753  0.1884 -0.2979
 9847TIP3    H150956   5.479   6.200  15.266 -0.7673 -0.2013 -0.7605
 9847TIP3    H250957   5.395   6.309  15.203 -1.0912 -0.3404 -0.5708
 9848TIP3   OH250958   3.997   6.349  17.099  0.1775 -0.1631 -0.2029
 9848TIP3    H150959   4.057   6.379  17.031 -0.3515 -1.0915 -1.0794
 9848TIP3    H250960   4.035   6.267  17.130 -1.7124 -1.8728 -2.2372
 9849TIP3   OH250961   0.450   0.781  10.899 -0.1841 -0.1247  0.0895
 9849TIP3    H150962   0.500   0.777  10.981 -0.2786  1.2868  0.2248
 9849TIP3    H250963   0.515   0.764  10.831 -0.2621 -2.1740  0.4773
 9850TIP3   OH250964   6.181   0.850   4.178  0.3459 -0.0644  0.0233
 9850TIP3    H150965   6.232   0.771   4.192  0.9311  0.6351  1.9502
 9850TIP3    H250966   6.238   0.907   4.126  0.0279 -0.7838 -1.1258
 9851TIP3   OH250967   6.376   3.633  11.962 -0.2498  0.3833 -0.4837
 9851TIP3    H150968   6.410   3.696  12.027  1.7120  0.8863 -1.9479
 9851TIP3    H250969   6.281   3.634  11.975 -0.0080  1.5587  1.4052
 9852TIP3   OH250970   0.350   4.285   3.426 -0.4070  0.1461  0.7352
 9852TIP3    H150971   0.437   4.326   3.427  0.0705 -0.8489  0.6107
 9852TIP3    H250972   0.298   4.338   3.485  1.0476 -0.8614  2.9812
 9853TIP3   OH250973   6.354   6.380   4.978  0.3680 -0.3323  0.5625
 9853TIP3    H150974   6.389   6.405   5.064  1.2210 -0.3929  0.2355
 9853TIP3    H250975   6.387   6.447   4.918 -2.2829  1.1564  0.6792
 9854TIP3   OH250976   2.084   4.619   4.449 -0.9286 -0.6858 -0.4004
 9854TIP3    H150977   2.156   4.569   4.410 -0.1992  2.3788 -3.1415
 9854TIP3    H250978   2.010   4.558   4.449  1.6050 -4.0440  2.8531
 9855TIP3   OH250979   6.003   2.992  12.189  0.2690  0.3953 -0.3422
 9855TIP3    H150980   5.988   3.077  12.147 -0.2148  0.0978 -0.7851
 9855TIP3    H250981   5.920   2.945  12.177  0.3663  0.0454  0.3329
 9856TIP3   OH250982   4.433   5.075   4.110 -0.1863  0.1251  0.2155
 9856TIP3    H150983   4.460   4.983   4.111  0.1808  0.2275 -0.1092
 9856TIP3    H250984   4.377   5.083   4.032 -2.3266 -0.4111  1.6624
 9857TIP3   OH250985   0.615   3.483   3.025  0.3736 -0.1916 -0.2711
 9857TIP3    H150986   0.673   3.506   2.953 -0.3783 -1.4090 -1.2931
 9857TIP3    H250987   0.637   3.392   3.046  0.2168 -0.0192  0.6765
 9858TIP3   OH250988   3.105   2.137  11.800 -0.0011 -0.3458  0.2439
 9858TIP3    H150989   3.144   2.150  11.886  0.2305  0.1150  0.0717
 9858TIP3    H250990   3.014   2.165  11.809  0.7956  2.6031 -0.4262
 9859TIP3   OH250991   4.454   5.497  16.520 -0.1748  0.0837 -0.1623
 9859TIP3    H150992   4.491   5.534  16.600  1.9775 -0.7355 -0.7581
 9859TIP3    H250993   4.462   5.402  16.531 -1.7975 -0.1051 -0.4643
 9860TIP3   OH250994   3.389   4.225   6.241  0.3064 -0.3469 -0.1530
 9860TIP3    H150995   3.322   4.183   6.294 -1.0738  0.9631 -0.8229
 9860TIP3    H250996   3.340   4.284   6.184  1.8360 -0.9551 -2.1545
 9861TIP3   OH250997   5.572   2.916   1.716  0.3414  0.1573  0.2971
 9861TIP3    H150998   5.503   2.944   1.656  0.6681  0.0988 -0.1111
 9861TIP3    H250999   5.606   2.835   1.678 -1.4021 -1.4623  2.1074
 9862TIP3   OH251000   3.262   0.828  12.515 -0.2389 -0.2885 -0.0948
 9862TIP3    H151001   3.211   0.907  12.501  0.7804  0.3832 -0.0674
 9862TIP3    H251002   3.202   0.757  12.491 -1.1703  0.4781 -0.0890
 9863TIP3   OH251003   1.608   0.250  12.410 -0.2729 -0.6403 -0.5071
 9863TIP3    H151004   1.543   0.191  12.449  0.4721 -2.8395 -2.4954
 9863TIP3    H251005   1.558   0.328  12.387 -2.1534 -2.0866 -1.5189
 9864TIP3   OH251006   0.332   5.487   0.689 -0.3582 -0.1357  0.6466
 9864TIP3    H151007   0.265   5.555   0.688 -0.1466  0.0888  1.1964
 9864TIP3    H251008   0.415   5.535   0.698  0.0608 -0.2933 -2.0186
 9865TIP3   OH251009   3.637   3.346   0.354 -0.2295 -0.1163 -0.2562
 9865TIP3    H151010   3.566   3.348   0.419  0.4942 -1.6077  0.5978
 9865TIP3    H251011   3.595   3.372   0.272 -1.0636  2.3174  0.8761
 9866TIP3   OH251012   6.319   3.096  14.497  0.2976 -0.1047  0.0844
 9866TIP3    H151013   6.399   3.101  14.446 -0.0982  2.5932 -0.3265
 9866TIP3    H251014   6.348   3.094  14.588  0.8956 -1.9366 -0.1249
 9867TIP3   OH251015   2.391   6.238  13.011 -0.0756 -0.7784  0.1966
 9867TIP3    H151016   2.415   6.265  12.922  1.7040  1.3449  1.2640
 9867TIP3    H251017   2.296   6.247  13.014 -0.4896 -3.5967 -2.3214
 9868TIP3   OH251018   0.628   6.517  13.091 -0.0678 -0.0070 -0.1587
 9868TIP3    H151019   0.620   6.612  13.103  1.6963  0.1892 -0.3787
 9868TIP3    H251020   0.653   6.507  12.999  1.2411 -0.5836  0.2509
 9869TIP3   OH251021   2.314   1.914   2.806  0.2082 -0.7148 -1.1813
 9869TIP3    H151022   2.363   1.836   2.834 -1.0974 -1.6726 -1.5340
 9869TIP3    H251023   2.311   1.969   2.884  0.6444 -1.2738 -0.7615
 9870TIP3   OH251024   1.223   1.892  16.736 -0.0001 -0.0772 -0.1260
 9870TIP3    H151025   1.189   1.912  16.648 -1.6822 -0.2756  0.4728
 9870TIP3    H251026   1.317   1.882  16.723 -0.4017 -1.4342 -2.1504
 9871TIP3   OH251027   6.471   5.121  10.825 -0.1354  0.6105 -1.2468
 9871TIP3    H151028   6.405   5.140  10.892 -0.1427  0.2815 -1.1624
 9871TIP3    H251029   6.435   5.049  10.774 -0.4169  1.2868 -2.0165
 9872TIP3   OH251030   4.131   2.548   0.180 -0.2733 -0.8737  0.6515
 9872TIP3    H151031   4.083   2.570   0.099  1.1371  0.2392  0.0984
 9872TIP3    H251032   4.133   2.452   0.181  0.4291 -0.8926 -1.0853
 9873TIP3   OH251033   2.198   2.155   5.714  0.5766  0.0736 -0.2154
 9873TIP3    H151034   2.247   2.208   5.777 -0.3078  0.5981  0.0444
 9873TIP3    H251035   2.114   2.201   5.705 -0.8397 -2.1440  1.2579
 9874TIP3   OH251036   4.717   5.524   4.751 -0.0100 -0.1792  0.0539
 9874TIP3    H151037   4.720   5.525   4.655  1.9671  1.7827  0.0982
 9874TIP3    H251038   4.674   5.606   4.776  1.3790  0.3249  0.8622
 9875TIP3   OH251039   1.774   2.633  16.908 -0.3013 -0.2173  0.0375
 9875TIP3    H151040   1.851   2.609  16.960 -0.2329  0.6464  0.3420
 9875TIP3    H251041   1.721   2.553  16.905 -1.1303  0.1726  2.9094
 9876TIP3   OH251042   1.533   2.554   2.287 -0.5198  0.1980 -0.1300
 9876TIP3    H151043   1.468   2.593   2.345 -1.2615  1.0585 -1.4919
 9876TIP3    H251044   1.617   2.573   2.328 -0.9495  2.1455 -0.1002
 9877TIP3   OH251045   4.361   3.389  16.233 -0.2103 -0.9617  0.1811
 9877TIP3    H151046   4.384   3.391  16.325  0.3352 -0.7254  0.0371
 9877TIP3    H251047   4.387   3.302  16.203  1.1299 -0.4650 -0.1388
 9878TIP3   OH251048   5.117   4.854  14.547  0.3686 -0.1663 -0.1118
 9878TIP3    H151049   5.026   4.843  14.573  0.7167 -0.4592  1.0011
 9878TIP3    H251050   5.165   4.790  14.600  1.1946 -0.1262 -0.8107
 9879TIP3   OH251051   1.289   2.739   5.421 -0.1940  0.4897  0.2331
 9879TIP3    H151052   1.220   2.674   5.404 -0.0036  0.3516 -0.0062
 9879TIP3    H251053   1.256   2.819   5.380  0.6141 -0.0316 -1.4869
 9880TIP3   OH251054   1.873   5.550  16.517 -0.1030  0.4154 -0.2823
 9880TIP3    H151055   1.864   5.563  16.422 -0.8347  0.0804 -0.2596
 9880TIP3    H251056   1.934   5.476  16.525 -1.9612 -1.1866 -0.5465
 9881TIP3   OH251057   0.183   0.219   1.567 -0.4440 -0.5301  0.0322
 9881TIP3    H151058   0.204   0.304   1.606  0.3994 -1.1098  0.8608
 9881TIP3    H251059   0.246   0.159   1.605 -0.1548 -1.2844 -1.5995
 9882TIP3   OH251060   5.564   2.959   1.999 -0.0452 -0.2507  0.1029
 9882TIP3    H151061   5.617   2.879   2.005 -2.2513 -1.7889 -0.2264
 9882TIP3    H251062   5.551   2.972   1.906 -1.1399 -0.5171  0.2081
 9883TIP3   OH251063   1.713   4.568   4.552 -0.1188 -0.5431 -0.2627
 9883TIP3    H151064   1.736   4.535   4.639 -1.4492 -0.0822  0.2755
 9883TIP3    H251065   1.747   4.657   4.551  1.6706 -1.2181 -0.9655
 9884TIP3   OH251066   1.066   5.745   0.038 -0.0156 -0.0468  0.6176
 9884TIP3    H151067   1.085   5.769  -0.053  0.0251 -0.4088  0.5263
 9884TIP3    H251068   0.977   5.776   0.053  0.4696  1.2477  0.8873
 9885TIP3   OH251069   5.260   6.695  13.792  0.3962 -0.0614 -0.1084
 9885TIP3    H151070   5.266   6.790  13.784 -0.3189 -0.0457 -0.4921
 9885TIP3    H251071   5.236   6.681  13.884  3.4692 -0.0230  0.7584
 9886TIP3   OH251072   3.332   3.830  13.963 -0.2192  0.0160  0.2669
 9886TIP3    H151073   3.361   3.918  13.938 -0.4857 -0.4549 -1.8556
 9886TIP3    H251074   3.239   3.829  13.942 -0.1004 -0.9349 -0.2401
 9887TIP3   OH251075   4.311   0.690  13.664 -0.3526  0.4106 -0.3656
 9887TIP3    H151076   4.278   0.711  13.577 -0.9710 -1.5156 -0.6213
 9887TIP3    H251077   4.397   0.651  13.648  0.0533  1.1688 -0.0286
 9888TIP3   OH251078   3.913   1.549   4.086 -0.9716 -0.0846  0.4984
 9888TIP3    H151079   3.884   1.601   4.011  1.4802  0.3173 -0.1966
 9888TIP3    H251080   3.857   1.472   4.084 -1.8520  0.5648 -0.9228
 9889TIP3   OH251081   3.090   5.914   3.120 -0.2320 -0.4334 -0.3665
 9889TIP3    H151082   3.037   5.977   3.071  0.0459  0.6332  0.6917
 9889TIP3    H251083   3.089   5.835   3.065  0.1630  0.7653 -2.1361
 9890TIP3   OH251084   3.858   2.716   0.244  0.4030  0.0671 -0.0885
 9890TIP3    H151085   3.933   2.708   0.185 -0.7852 -0.7693 -1.5211
 9890TIP3    H251086   3.856   2.633   0.291 -0.3608 -0.4304 -0.9731
 9891TIP3   OH251087   2.468   3.531   1.319 -0.4738 -0.8443  0.4206
 9891TIP3    H151088   2.503   3.577   1.395  1.1074 -0.1179 -0.7077
 9891TIP3    H251089   2.485   3.590   1.245  0.7597 -2.7995 -0.9200
 9892TIP3   OH251090   0.526   1.024   5.762 -0.1850  0.2742 -0.5252
 9892TIP3    H151091   0.515   1.031   5.857  0.2345 -1.0051 -0.3741
 9892TIP3    H251092   0.448   1.067   5.726 -0.5803  0.3489  0.3974
 9893TIP3   OH251093   6.469   6.414   5.231 -0.0173  0.3242  0.0003
 9893TIP3    H151094   6.530   6.340   5.229 -0.0114  0.2963  0.8600
 9893TIP3    H251095   6.512   6.478   5.289 -0.6677  0.4225  0.3712
 9894TIP3   OH251096   6.548   0.801   1.594 -0.5061 -0.5529  0.1936
 9894TIP3    H151097   6.494   0.871   1.631 -1.2808  0.5916 -2.8933
 9894TIP3    H251098   6.638   0.828   1.612 -0.8740 -0.9498  2.7439
 9895TIP3   OH251099   3.632   5.974  15.010 -0.4481 -0.0617  0.0752
 9895TIP3    H151100   3.602   5.968  14.920 -1.1078 -0.0692  0.2954
 9895TIP3    H251101   3.713   5.923  15.011  0.1800  0.8913 -0.7715
 9896TIP3   OH251102   6.014   2.521   5.074 -0.3097 -0.3225  0.1254
 9896TIP3    H151103   6.104   2.502   5.103  0.4124  0.6492 -1.4331
 9896TIP3    H251104   5.964   2.530   5.155  0.8348 -1.6822  0.9918
 9897TIP3   OH251105   1.667   3.412  11.852 -0.3749 -0.0459 -0.2046
 9897TIP3    H151106   1.654   3.321  11.823  1.4124  0.7827 -3.8530
 9897TIP3    H251107   1.751   3.437  11.815 -0.6570  3.0288  1.1046
 9898TIP3   OH251108   4.502   5.648   1.401 -0.1163  0.6428 -0.2825
 9898TIP3    H151109   4.578   5.607   1.360  0.1629 -2.5663  3.2202
 9898TIP3    H251110   4.537   5.729   1.440  0.9803  0.3876 -0.7099
 9899TIP3   OH251111   3.307   6.134  12.924 -0.1725  0.3136 -0.7217
 9899TIP3    H151112   3.357   6.054  12.945  0.0659  1.0103  1.5304
 9899TIP3    H251113   3.222   6.120  12.966 -0.5473  0.7428 -1.3428
 9900TIP3   OH251114   6.441   6.551  10.946  0.1472  0.5119 -0.0036
 9900TIP3    H151115   6.419   6.458  10.950  1.3149  0.1204 -2.0897
 9900TIP3    H251116   6.532   6.554  10.917 -0.1300  2.3115 -0.8070
 9901TIP3   OH251117   4.482   1.277  13.766 -0.4350  0.3423 -0.8719
 9901TIP3    H151118   4.441   1.238  13.844  1.3148 -0.7373 -0.4664
 9901TIP3    H251119   4.478   1.208  13.700 -0.9164  0.8803 -1.4158
 9902TIP3   OH251120   1.954   1.823   0.498 -0.7623 -0.3357 -0.1510
 9902TIP3    H151121   1.952   1.884   0.424 -0.4280  0.1340  0.2233
 9902TIP3    H251122   2.047   1.808   0.513 -0.8034  0.3618  0.8228
 9903TIP3   OH251123   3.356   3.781  12.615 -0.5518  0.1823 -0.3558
 9903TIP3    H151124   3.358   3.750  12.706  2.7006  0.7521 -0.1656
 9903TIP3    H251125   3.396   3.710  12.565 -2.4893 -0.1976 -1.4130
 9904TIP3   OH251126   4.682   5.600   2.074  0.1083  0.3516 -0.5074
 9904TIP3    H151127   4.738   5.637   2.005  2.1341 -1.3146  0.1740
 9904TIP3    H251128   4.646   5.676   2.119  1.8009  1.4932 -1.0148
 9905TIP3   OH251129   3.971   3.868   0.978  0.2816 -0.2016  0.0081
 9905TIP3    H151130   4.016   3.950   0.997  2.7520 -1.4672 -0.2344
 9905TIP3    H251131   3.978   3.859   0.883 -0.3379 -0.5015 -0.0094
 9906TIP3   OH251132   3.872   4.547  16.853  0.7005 -0.2356  0.3963
 9906TIP3    H151133   3.912   4.616  16.798  0.4580 -2.1854 -2.3428
 9906TIP3    H251134   3.938   4.529  16.919  0.8847  2.4230  1.0172
 9907TIP3   OH251135   3.479   1.138   1.821  0.0772 -0.0017 -0.3267
 9907TIP3    H151136   3.472   1.096   1.735 -0.4316 -1.1426  0.2664
 9907TIP3    H251137   3.566   1.116   1.852 -0.2905 -0.8829  0.1073
 9908TIP3   OH251138   6.701   3.144  12.715 -0.0244 -0.5208  0.2340
 9908TIP3    H151139   6.662   3.066  12.677 -0.0109  0.9896 -3.1156
 9908TIP3    H251140   6.666   3.216  12.662  3.4485  1.2935  0.2415
 9909TIP3   OH251141   6.462   3.061   4.292 -0.2504 -0.5025 -0.5640
 9909TIP3    H151142   6.523   2.999   4.252 -0.7486 -0.9188 -0.6961
 9909TIP3    H251143   6.424   3.013   4.366  0.3198  0.0998  0.1240
 9910TIP3   OH251144   3.812   2.081  13.437  0.1244 -0.3750 -0.1426
 9910TIP3    H151145   3.780   2.111  13.522 -0.0507 -0.0604 -0.3179
 9910TIP3    H251146   3.873   2.149  13.409  1.1619 -1.1121  0.3181
 9911TIP3   OH251147   3.985   0.154   4.547 -0.0751 -0.2651  0.5715
 9911TIP3    H151148   4.013   0.198   4.627 -0.7202 -0.4978  0.9281
 9911TIP3    H251149   3.894   0.129   4.564 -0.2497 -0.2123 -0.2760
 9912TIP3   OH251150   1.638   2.362  15.455  0.2483  0.5683  0.1683
 9912TIP3    H151151   1.576   2.434  15.438  0.4326  0.8003  0.4577
 9912TIP3    H251152   1.717   2.387  15.407  0.7043  1.1316  1.1769
 9913TIP3   OH251153   6.011   0.628  14.056 -0.0225  0.2275  0.6197
 9913TIP3    H151154   5.949   0.588  14.116  1.3621  0.3284  2.1610
 9913TIP3    H251155   5.980   0.718  14.045  0.0838  0.3993  1.7105
 9914TIP3   OH251156   6.692   6.078   4.370 -0.2768 -0.4914  0.1810
 9914TIP3    H151157   6.713   5.985   4.375  0.7151 -0.4370 -2.0312
 9914TIP3    H251158   6.758   6.114   4.310 -1.0128  1.5205  0.5239
 9915TIP3   OH251159   0.367   6.036  12.752 -0.1876 -0.7610 -0.4171
 9915TIP3    H151160   0.384   6.042  12.658 -0.1963 -0.8656 -0.4251
 9915TIP3    H251161   0.379   5.943  12.773  2.9860 -0.2471  0.2925
 9916TIP3   OH251162   3.162   6.687   1.194  0.0214 -0.0292  0.0020
 9916TIP3    H151163   3.225   6.660   1.261  0.0741  0.2571  0.0680
 9916TIP3    H251164   3.151   6.781   1.208  0.3733  0.1150 -0.6692
 9917TIP3   OH251165   2.372   0.018   0.521 -0.2360  0.3729 -0.7701
 9917TIP3    H151166   2.386   0.110   0.496 -1.4096  0.5481 -0.7989
 9917TIP3    H251167   2.395  -0.032   0.443  1.6263  0.5524 -0.3542
 9918TIP3   OH251168   5.512   2.576  10.400 -0.6062 -0.0334  0.3851
 9918TIP3    H151169   5.491   2.506  10.338  0.8634 -0.1474 -0.0124
 9918TIP3    H251170   5.429   2.619  10.418 -1.2565 -0.8570 -0.6252
 9919TIP3   OH251171   4.642   6.363   0.427  0.7672 -0.4810 -0.3341
 9919TIP3    H151172   4.648   6.268   0.426 -1.4142 -0.6537 -0.1690
 9919TIP3    H251173   4.645   6.388   0.334 -0.0633 -0.8454 -0.4708
 9920TIP3   OH251174   6.018   2.147  16.337  0.2186 -0.4648  0.0942
 9920TIP3    H151175   6.074   2.090  16.284 -0.8066 -0.3598 -1.1185
 9920TIP3    H251176   5.948   2.089  16.368  0.4561 -0.3779  0.8107
 9921TIP3   OH251177   4.195   5.329  14.384  0.2599 -0.0371 -0.0244
 9921TIP3    H151178   4.275   5.293  14.422  1.3059  1.9916 -0.2275
 9921TIP3    H251179   4.224   5.404  14.332 -1.8147  0.9377  0.1573
 9922TIP3   OH251180   4.820   6.484   2.513  0.4026  0.2136 -0.3158
 9922TIP3    H151181   4.748   6.458   2.457 -0.3892  1.0575  0.3008
 9922TIP3    H251182   4.830   6.412   2.575  0.6787 -0.2980 -0.9441
 9923TIP3   OH251183   2.076   1.013   0.963  0.2309 -0.5023 -0.0528
 9923TIP3    H151184   2.120   1.091   0.995  0.1198 -1.2510  2.0561
 9923TIP3    H251185   2.144   0.945   0.965  0.2447 -0.5433 -1.5545
 9924TIP3   OH251186   4.944   3.121  13.163  0.0507  0.2803  0.3921
 9924TIP3    H151187   4.951   3.209  13.200  0.1113  0.9293 -1.0998
 9924TIP3    H251188   4.982   3.064  13.229  1.2213  1.5203  0.8168
 9925TIP3   OH251189   4.328   6.608  12.312  1.0135  0.5006  0.4717
 9925TIP3    H151190   4.394   6.671  12.342  1.5570 -1.0852  2.7636
 9925TIP3    H251191   4.285   6.578  12.392 -0.5115 -0.6625 -0.7507
 9926TIP3   OH251192   0.001   5.999   2.847  0.4334  0.4344 -0.1484
 9926TIP3    H151193   0.014   6.018   2.939  0.4570  0.8063 -0.2301
 9926TIP3    H251194   0.085   5.960   2.819  0.2979 -0.0179  0.0726
 9927TIP3   OH251195   1.716   1.625  13.625 -0.5327 -0.0363 -0.6912
 9927TIP3    H151196   1.719   1.715  13.592  0.6029  0.5378  0.8817
 9927TIP3    H251197   1.803   1.611  13.663 -1.5134 -0.9411  1.2788
 9928TIP3   OH251198   0.492   4.267   6.643  0.2352  0.1387  0.2933
 9928TIP3    H151199   0.570   4.267   6.589  0.2195 -0.5260  0.2687
 9928TIP3    H251200   0.489   4.354   6.682  0.5319  0.4380 -0.3610
 9929TIP3   OH251201   2.084   3.842  15.601 -0.4219  0.5877 -0.1223
 9929TIP3    H151202   2.087   3.814  15.510 -1.2454 -3.0199  0.9039
 9929TIP3    H251203   1.991   3.855  15.620 -0.3926 -0.3570  0.6927
 9930TIP3   OH251204   4.794   4.573   5.481  0.1077  0.0726 -0.2371
 9930TIP3    H151205   4.849   4.570   5.560  0.4902  0.0877 -0.5027
 9930TIP3    H251206   4.722   4.632   5.504  0.9491  1.1663 -0.3617
 9931TIP3   OH251207   3.807   2.015  14.246  0.3496 -0.1367  0.9884
 9931TIP3    H151208   3.872   1.945  14.256  1.6353  1.0180  0.7933
 9931TIP3    H251209   3.727   1.969  14.221  1.3361 -1.4841  0.2272
 9932TIP3   OH251210   6.508   2.764  15.591  0.1652  0.4695 -0.6778
 9932TIP3    H151211   6.475   2.753  15.501  1.4187 -1.8317 -0.8786
 9932TIP3    H251212   6.594   2.806  15.579 -0.5509  2.0384 -0.4200
 9933TIP3   OH251213   4.044   4.884  13.532  0.4831  0.5372  0.2504
 9933TIP3    H151214   4.035   4.808  13.474  1.2749 -0.1516  1.0001
 9933TIP3    H251215   3.963   4.932  13.522  0.0194 -0.3528 -0.3396
 9934TIP3   OH251216   5.938   0.233  10.936 -0.3241 -0.2409 -0.4047
 9934TIP3    H151217   5.856   0.212  10.981  0.2397 -1.9505 -0.1235
 9934TIP3    H251218   5.931   0.188  10.852  1.0341 -1.8748  0.3170
 9935TIP3   OH251219   6.481   4.667   4.915 -0.1169  0.0854 -0.3682
 9935TIP3    H151220   6.420   4.680   4.988  1.1124 -0.1889  0.7408
 9935TIP3    H251221   6.425   4.646   4.840 -1.4470  1.0091  0.3377
 9936TIP3   OH251222   2.952   0.860  15.259  0.5089 -0.6339 -0.3599
 9936TIP3    H151223   2.906   0.779  15.281  0.1870 -0.5427 -0.7000
 9936TIP3    H251224   3.027   0.831  15.206  0.2703 -0.6869 -0.6664
 9937TIP3   OH251225   5.861   6.785  16.860  0.1074  0.4870  0.2515
 9937TIP3    H151226   5.881   6.822  16.774 -0.1948 -2.8233 -1.2821
 9937TIP3    H251227   5.942   6.741  16.887 -0.0658  0.7742  1.2963
 9938TIP3   OH251228   4.768   0.209   5.864  0.1059  0.3333  0.4456
 9938TIP3    H151229   4.769   0.115   5.880  3.4320 -0.1360 -1.9969
 9938TIP3    H251230   4.775   0.218   5.769  1.3973  3.0196  0.7346
 9939TIP3   OH251231   4.855   3.118   4.136 -0.1676  0.5265 -0.1010
 9939TIP3    H151232   4.938   3.160   4.111 -0.2839  1.3300  0.8480
 9939TIP3    H251233   4.788   3.181   4.109 -0.3604  0.7757  0.9257
 9940TIP3   OH251234   4.717   5.244  16.768  0.2604 -0.7105  0.1447
 9940TIP3    H151235   4.726   5.159  16.811  0.3590 -0.7034  0.1399
 9940TIP3    H251236   4.629   5.274  16.792  0.4583 -0.5318  0.6622
 9941TIP3   OH251237   4.120   2.351   0.453 -0.2828 -0.3601 -0.0422
 9941TIP3    H151238   4.194   2.325   0.399 -2.3796 -3.4008 -1.6117
 9941TIP3    H251239   4.135   2.308   0.537 -0.4935 -1.4237 -0.5360
 9942TIP3   OH251240   3.168   4.280   3.349 -0.4208 -0.3259 -0.0464
 9942TIP3    H151241   3.144   4.226   3.274 -0.6169 -1.0298  0.5202
 9942TIP3    H251242   3.226   4.347   3.312  0.5282 -1.4313 -0.6102
 9943TIP3   OH251243   0.791   4.823   1.376 -0.2718  0.5374 -0.4124
 9943TIP3    H151244   0.765   4.737   1.342  2.0732 -0.3678 -0.0029
 9943TIP3    H251245   0.819   4.872   1.298 -0.1927  0.4125 -0.4620
 9944TIP3   OH251246   2.335   6.469   5.031 -0.1831 -0.1894 -0.2981
 9944TIP3    H151247   2.257   6.506   5.074  0.5603 -1.1971  1.9735
 9944TIP3    H251248   2.408   6.520   5.067  0.7358 -2.9571  1.9221
 9945TIP3   OH251249   6.610   4.993   3.760 -0.1007 -0.2275 -0.2223
 9945TIP3    H151250   6.565   4.935   3.822 -0.1894 -1.0205 -1.0243
 9945TIP3    H251251   6.578   5.080   3.781 -1.1816 -0.6557 -0.0637
 9946TIP3   OH251252   1.935   2.971  16.856  0.1342 -0.0967 -0.3540
 9946TIP3    H151253   1.992   2.967  16.779 -0.2897 -3.0178 -0.5647
 9946TIP3    H251254   1.847   2.958  16.821 -0.1839 -0.1933  0.4847
 9947TIP3   OH251255   3.976   1.133  13.984  0.1539  0.0281 -0.1474
 9947TIP3    H151256   3.938   1.057  13.939 -1.3260  1.8450 -2.1143
 9947TIP3    H251257   3.932   1.135  14.069 -0.7599 -0.5407 -0.5985
 9948TIP3   OH251258   2.399   2.389   0.358  0.1751 -0.8675 -0.2811
 9948TIP3    H151259   2.477   2.428   0.318  0.7450 -0.8186  0.8781
 9948TIP3    H251260   2.355   2.345   0.285  0.4949  0.3791 -1.2323
 9949TIP3   OH251261   1.701   4.654   1.209  0.1870 -0.2991  0.2355
 9949TIP3    H151262   1.619   4.680   1.251  0.2393 -1.3229  0.9671
 9949TIP3    H251263   1.757   4.627   1.281  1.2500  0.5786 -0.2493
 9950TIP3   OH251264   5.581   6.778   2.222 -0.1293 -0.6819  0.2975
 9950TIP3    H151265   5.598   6.792   2.129  0.4201  0.5070  0.5607
 9950TIP3    H251266   5.592   6.684   2.235 -0.2414 -0.8606 -0.8413
 9951TIP3   OH251267   6.234   1.610   5.752  0.3290  0.2761  0.0357
 9951TIP3    H151268   6.195   1.528   5.722  0.7244  0.1882 -0.2410
 9951TIP3    H251269   6.182   1.635   5.828  0.4637 -0.4370  0.3603
 9952TIP3   OH251270   3.354   4.597  16.058  0.3014 -0.4376 -0.1577
 9952TIP3    H151271   3.259   4.602  16.054  0.2217  0.1966  1.8678
 9952TIP3    H251272   3.374   4.508  16.028 -1.0597 -1.1704  1.0258
 9953TIP3   OH251273   2.642   5.242  11.470  0.0150  0.4098  0.6528
 9953TIP3    H151274   2.644   5.149  11.491  0.4482  0.8313  2.5909
 9953TIP3    H251275   2.692   5.283  11.540 -0.3763  2.1272 -0.0510
 9954TIP3   OH251276   3.281   2.996   2.005  0.7158 -0.1736  0.0937
 9954TIP3    H151277   3.321   2.939   2.071 -0.3871 -2.2084 -0.9378
 9954TIP3    H251278   3.339   2.988   1.929 -1.1524 -2.5106 -1.1396
 9955TIP3   OH251279   3.135   5.219  10.964  1.0249  0.1483 -0.3138
 9955TIP3    H151280   3.173   5.249  10.882  1.3086 -1.2169 -0.7059
 9955TIP3    H251281   3.210   5.205  11.022  0.7845  1.6557  0.3777
 9956TIP3   OH251282   4.017   1.008  17.170  0.2955 -0.1502  0.3728
 9956TIP3    H151283   4.107   1.021  17.141 -0.2727  0.6274 -1.1033
 9956TIP3    H251284   3.973   1.091  17.151 -0.5101 -0.1580  2.0132
 9957TIP3   OH251285   5.904   3.941  12.201  0.2486  0.6842 -0.0633
 9957TIP3    H151286   5.947   4.017  12.241  0.3871 -0.4457  2.0401
 9957TIP3    H251287   5.855   3.901  12.273  0.2251 -1.2519 -1.1197
 9958TIP3   OH251288   0.907   5.422   0.544  0.4200  0.3286 -0.5288
 9958TIP3    H151289   0.961   5.454   0.471  0.9126  0.6961 -0.0060
 9958TIP3    H251290   0.872   5.338   0.512  0.0145  0.8433 -1.4763
 9959TIP3   OH251291   5.063   2.158   0.275  0.1789 -0.0992 -0.5586
 9959TIP3    H151292   5.037   2.193   0.189  1.3405  0.0167 -0.8746
 9959TIP3    H251293   5.075   2.236   0.329 -0.2298 -0.1571 -0.3842
 9960TIP3   OH251294   6.734   5.188   2.096 -0.0714  0.2288 -0.1346
 9960TIP3    H151295   6.819   5.146   2.094 -1.3707 -2.5545  1.2662
 9960TIP3    H251296   6.742   5.256   2.163  1.3678  0.7961 -0.8566
 9961TIP3   OH251297   4.967   5.667   1.558 -0.0784 -0.0992  0.2078
 9961TIP3    H151298   4.942   5.706   1.642  0.6587  1.4685 -0.2641
 9961TIP3    H251299   5.063   5.678   1.555 -0.2041  0.7511 -1.2415
 9962TIP3   OH251300   3.310   5.356   0.404  0.2537 -0.8179 -0.5910
 9962TIP3    H151301   3.266   5.280   0.442 -0.0882 -0.2656  0.1121
 9962TIP3    H251302   3.249   5.428   0.416  0.8054 -0.3158 -0.7740
 9963TIP3   OH251303   5.047   1.033   4.735  0.1327  0.6626 -0.7061
 9963TIP3    H151304   5.008   1.002   4.653 -1.2466  1.2848 -0.2801
 9963TIP3    H251305   5.087   0.954   4.772 -0.0393  0.1792 -1.5115
 9964TIP3   OH251306   1.704   1.929  16.021  0.1880  0.0596 -0.1028
 9964TIP3    H151307   1.796   1.954  16.027  0.6023 -1.0163 -1.4319
 9964TIP3    H251308   1.673   1.924  16.111  1.3398  0.7815  0.3253
 9965TIP3   OH251309   0.317   2.407   5.547 -0.1527 -0.7392  0.2108
 9965TIP3    H151310   0.224   2.430   5.547 -0.1583 -0.7347 -0.9680
 9965TIP3    H251311   0.359   2.477   5.496  0.4352 -1.0089  0.3160
 9966TIP3   OH251312   2.253   3.505  12.849 -0.7078  0.2390  0.2882
 9966TIP3    H151313   2.322   3.456  12.804  0.1656  0.6686  1.1601
 9966TIP3    H251314   2.247   3.464  12.936 -1.5089  0.2385  0.2356
 9967TIP3   OH251315   5.470   4.261  13.041  0.1721 -0.1099 -0.0544
 9967TIP3    H151316   5.456   4.195  12.973 -2.5359 -0.3099  0.6266
 9967TIP3    H251317   5.482   4.343  12.994 -2.0170 -0.1889 -0.8149
 9968TIP3   OH251318   3.692   3.396   5.284  0.3026 -0.0513 -0.5944
 9968TIP3    H151319   3.610   3.374   5.328  0.7571  0.5515  0.5682
 9968TIP3    H251320   3.685   3.489   5.264 -0.2259 -0.4701 -2.5368
 9969TIP3   OH251321   6.479   5.508  10.947  0.6509 -0.3276  0.3382
 9969TIP3    H151322   6.501   5.600  10.931 -1.6788  0.1628 -0.1414
 9969TIP3    H251323   6.544   5.459  10.897 -0.4123  1.0847 -2.5279
 9970TIP3   OH251324   5.451   2.091  13.640 -0.0685  0.2076 -0.1278
 9970TIP3    H151325   5.454   2.104  13.545 -1.1363  1.3827  0.0023
 9970TIP3    H251326   5.401   2.165  13.673 -1.5192 -1.3134  1.1455
 9971TIP3   OH251327   2.678   0.740  14.743 -0.3231 -0.1928  0.3934
 9971TIP3    H151328   2.593   0.776  14.768  0.2948  0.8150  1.0442
 9971TIP3    H251329   2.716   0.806  14.685  0.7359  0.1370  1.4524
 9972TIP3   OH251330   1.344   3.319  14.340  0.2754 -0.2334 -0.2991
 9972TIP3    H151331   1.419   3.350  14.290 -0.0735  2.2546  0.6666
 9972TIP3    H251332   1.379   3.247  14.393  1.8259  0.5095 -0.2984
 9973TIP3   OH251333   4.362   3.160   1.186 -0.1373  0.1548 -0.3043
 9973TIP3    H151334   4.337   3.234   1.130  0.6025  0.6098 -0.0431
 9973TIP3    H251335   4.439   3.123   1.144  0.3780  0.4555  0.3690
 9974TIP3   OH251336   2.708   4.943  15.359 -0.4132 -0.2598  0.1504
 9974TIP3    H151337   2.749   4.940  15.273 -2.0225 -1.1949 -0.6073
 9974TIP3    H251338   2.642   4.873  15.357 -0.8033  0.0312  1.9592
 9975TIP3   OH251339   0.005   2.649   1.656 -0.2345  0.4505 -0.3798
 9975TIP3    H151340  -0.049   2.586   1.607 -0.8853  0.2176  0.6215
 9975TIP3    H251341   0.094   2.618   1.642 -0.5261 -0.5320 -0.1397
 9976TIP3   OH251342   4.625   3.290  11.464  0.1180 -0.2726  0.1170
 9976TIP3    H151343   4.677   3.360  11.503  0.8551 -1.0310  0.4842
 9976TIP3    H251344   4.678   3.258  11.391  0.0262 -0.8353  0.2948
 9977TIP3   OH251345   6.561   0.597   1.809  0.3483  0.2063 -0.3087
 9977TIP3    H151346   6.538   0.689   1.798  0.8410  0.1906 -1.6113
 9977TIP3    H251347   6.483   0.556   1.845  1.0277  1.6510  2.9546
 9978TIP3   OH251348   4.534   3.463  15.814 -0.1332  0.2484  0.1321
 9978TIP3    H151349   4.623   3.458  15.780 -0.4449  0.8052 -0.8004
 9978TIP3    H251350   4.517   3.378  15.853  1.5830  0.8447  2.2726
 9979TIP3   OH251351   4.452   1.809   2.996 -0.5518  0.1247 -0.1382
 9979TIP3    H151352   4.439   1.861   3.076 -1.4997  0.4263 -0.4867
 9979TIP3    H251353   4.417   1.723   3.017  0.9356 -0.3592  0.4081
 9980TIP3   OH251354   1.356   0.391  15.107 -0.0070  0.0801 -0.0196
 9980TIP3    H151355   1.316   0.467  15.063 -1.8862 -0.1448  1.2437
 9980TIP3    H251356   1.432   0.427  15.153  2.1764  0.2886 -3.5799
 9981TIP3   OH251357   2.723   2.382   5.691 -0.2128 -0.2143  0.0396
 9981TIP3    H151358   2.718   2.398   5.785 -0.0588  1.3272 -0.1974
 9981TIP3    H251359   2.675   2.455   5.651 -1.5632 -1.6484 -1.0273
 9982TIP3   OH251360   4.753   1.964  11.637 -0.1491  0.0511 -0.1232
 9982TIP3    H151361   4.704   1.919  11.569 -1.6178  1.2071  0.1482
 9982TIP3    H251362   4.732   1.917  11.717 -1.4122  0.9815  0.1060
 9983TIP3   OH251363   3.953   2.832  13.918  0.1535  0.1414  0.0270
 9983TIP3    H151364   4.023   2.791  13.968 -0.2683 -2.3082 -1.2838
 9983TIP3    H251365   3.893   2.867  13.983  0.4205 -1.5758  1.2272
 9984TIP3   OH251366   5.452   4.294  16.232 -0.4880 -0.9012 -0.1093
 9984TIP3    H151367   5.410   4.353  16.169  0.5880 -2.0349 -1.9217
 9984TIP3    H251368   5.521   4.347  16.272 -2.6734  0.5403  1.8626
 9985TIP3   OH251369   3.148   2.482  15.032 -0.0518  0.5309  0.0070
 9985TIP3    H151370   3.196   2.407  15.067  0.3859  0.3125 -1.0478
 9985TIP3    H251371   3.098   2.447  14.959  0.4489  1.3202 -0.7330
 9986TIP3   OH251372   1.787   5.477   1.508  0.0354 -0.0579 -0.2876
 9986TIP3    H151373   1.694   5.500   1.516 -0.5543 -1.5607 -2.3661
 9986TIP3    H251374   1.787   5.392   1.465  2.3354 -1.2757  1.9285
 9987TIP3   OH251375   4.731   5.880  15.628 -0.8339 -0.0553  0.0949
 9987TIP3    H151376   4.827   5.883  15.634 -0.9091 -0.5256  2.2736
 9987TIP3    H251377   4.710   5.926  15.547  1.3266 -1.4108 -1.2913
 9988TIP3   OH251378   2.114   1.674  15.459 -0.3463 -0.3976 -0.0236
 9988TIP3    H151379   2.022   1.673  15.434 -0.4647 -0.3337  0.4017
 9988TIP3    H251380   2.136   1.582  15.471 -0.5868 -0.3668  0.6975
 9989TIP3   OH251381   3.660   1.777   2.175 -0.2186 -0.4400  0.0390
 9989TIP3    H151382   3.579   1.798   2.128  0.6249  4.3474  0.4385
 9989TIP3    H251383   3.726   1.834   2.134  1.8012 -0.4810  3.0969
 9990TIP3   OH251384   6.495   1.181   1.502  0.7930  0.5307 -0.0242
 9990TIP3    H151385   6.521   1.187   1.594  2.3058  0.2267 -0.4213
 9990TIP3    H251386   6.515   1.267   1.466 -1.7220  1.3269  0.3979
 9991TIP3   OH251387   3.408   1.020   3.431  0.2496 -0.1811 -0.5720
 9991TIP3    H151388   3.419   1.029   3.526  0.5314  0.1334 -0.6386
 9991TIP3    H251389   3.451   0.937   3.410  1.6468  0.5769 -0.6893
 9992TIP3   OH251390   6.368   2.948   5.337  0.4348 -0.1768  0.2556
 9992TIP3    H151391   6.381   2.882   5.404  1.3401 -0.8381 -0.5649
 9992TIP3    H251392   6.311   2.907   5.273  1.3014 -0.3072 -0.4433
 9993TIP3   OH251393   1.256   6.409  12.534  0.3879  0.3739 -1.0492
 9993TIP3    H151394   1.260   6.317  12.561  0.8558  0.5389 -0.5564
 9993TIP3    H251395   1.236   6.457  12.614  1.6336  0.8458 -1.0031
 9994TIP3   OH251396   6.477   3.280   2.194 -0.2194  0.3996 -0.5614
 9994TIP3    H151397   6.516   3.202   2.233 -1.6374 -0.9621 -1.7685
 9994TIP3    H251398   6.393   3.289   2.239 -0.2304  0.9927 -0.7027
 9995TIP3   OH251399   1.511   0.805   0.816  0.6162  0.3083 -0.5369
 9995TIP3    H151400   1.536   0.726   0.863 -1.3936  0.2503  0.4723
 9995TIP3    H251401   1.583   0.866   0.833  0.7732 -0.3170  1.1512
 9996TIP3   OH251402   1.077   2.832   5.011 -0.3222 -0.0637 -0.1422
 9996TIP3    H151403   1.059   2.925   5.027 -0.5157 -0.4229  1.7329
 9996TIP3    H251404   1.001   2.801   4.961 -0.5371  0.6318 -0.2490
 9997TIP3   OH251405   6.069   0.250  12.949  0.3193 -0.4825  0.0995
 9997TIP3    H151406   6.043   0.322  13.006  0.2400  0.7841 -1.4842
 9997TIP3    H251407   6.112   0.187  13.007 -0.1466  0.5702  1.6051
 9998TIP3   OH251408   2.443   3.341  15.309  0.1123  0.0420 -0.1554
 9998TIP3    H151409   2.531   3.336  15.345  0.0167 -0.7157 -0.0060
 9998TIP3    H251410   2.386   3.323  15.384 -0.1771  0.6714 -0.2199
 9999TIP3   OH251411   1.601   2.289  16.046  0.1425  0.1693 -0.0016
 9999TIP3    H151412   1.692   2.317  16.058  0.1511  0.1732 -0.0767
 9999TIP3    H251413   1.607   2.212  15.989  0.1442 -0.1803  0.4723
10000TIP3   OH251414   3.018   1.350  15.638  0.3145 -0.2503  0.1376
10000TIP3    H151415   2.999   1.437  15.674  0.7188 -0.9018  1.9849
10000TIP3    H251416   2.960   1.342  15.562  0.0034  1.4749  0.1731
10001TIP3   OH251417   0.893   2.090   0.426  0.2794 -0.3600 -0.5255
10001TIP3    H151418   0.927   2.119   0.341  0.3150  1.3480  0.0588
10001TIP3    H251419   0.800   2.076   0.410  0.0989  0.8954 -0.6189
10002TIP3   OH251420   2.302   4.135   4.518 -0.6864 -0.2913 -0.2584
10002TIP3    H151421   2.227   4.171   4.471  0.4137  1.3311 -0.8120
10002TIP3    H251422   2.365   4.112   4.450 -1.3032 -3.2321  0.0946
10003TIP3   OH251423   5.483   5.573  11.563  0.3283  0.3064 -0.0832
10003TIP3    H151424   5.566   5.552  11.606  1.1104  1.7733 -0.8553
10003TIP3    H251425   5.471   5.666  11.579 -0.9440  0.2068 -0.3916
10004TIP3   OH251426   5.936   1.667  16.632  0.4415 -0.1652  0.1548
10004TIP3    H151427   5.947   1.708  16.546 -2.6706  1.7494  0.5755
10004TIP3    H251428   5.936   1.573  16.613  1.8586  0.1653 -1.6492
10005TIP3   OH251429   2.068   0.132   1.272  0.2085  0.2094  0.3942
10005TIP3    H151430   2.071   0.046   1.230 -0.9991  0.1037  0.4966
10005TIP3    H251431   2.121   0.188   1.216 -1.2650  0.0334 -1.2124
10006TIP3   OH251432   0.119   5.636   3.067  0.3994 -0.7083  0.2995
10006TIP3    H151433   0.070   5.718   3.076  0.4321 -0.5457 -0.9417
10006TIP3    H251434   0.159   5.622   3.153 -0.7712 -0.1667  0.9381
10007TIP3   OH251435   0.197   2.716  12.274  0.0322  0.0410  0.6898
10007TIP3    H151436   0.135   2.668  12.219 -0.2927  0.0736  1.0175
10007TIP3    H251437   0.142   2.754  12.343  0.2119  1.3161  0.1417
10008TIP3   OH251438   0.005   2.047  16.208  0.0481 -0.2581 -0.0646
10008TIP3    H151439   0.067   2.090  16.266 -0.3780  0.3391 -0.0446
10008TIP3    H251440  -0.058   2.005  16.267 -2.0154  2.6987 -0.0416
10009TIP3   OH251441   6.589   0.176   2.786  0.4167 -0.9154  0.0356
10009TIP3    H151442   6.638   0.254   2.757  1.3609 -1.6255 -0.3140
10009TIP3    H251443   6.581   0.187   2.881 -0.2274  0.0450 -0.1291
10010TIP3   OH251444   2.674   3.446  14.041 -0.0808  0.3006  0.2846
10010TIP3    H151445   2.746   3.446  14.105 -0.6931 -3.0339  1.0476
10010TIP3    H251446   2.607   3.502  14.081  0.0815 -0.6661  1.9660
10011TIP3   OH251447   4.042   5.378   1.357  0.0547  0.1417  0.4499
10011TIP3    H151448   4.094   5.394   1.279  0.2430  0.5334  0.6546
10011TIP3    H251449   3.952   5.397   1.330 -0.0501 -0.9849 -0.0342
10012TIP3   OH251450   3.599   1.401   1.952  0.9062  0.3151 -0.2221
10012TIP3    H151451   3.575   1.475   1.897  2.1286 -0.5508 -1.9514
10012TIP3    H251452   3.551   1.327   1.915  2.9490 -0.5869 -1.1382
10013TIP3   OH251453   6.497   3.544   3.103  0.0263 -0.1494  0.0232
10013TIP3    H151454   6.557   3.589   3.163 -0.0432 -0.6769  0.4966
10013TIP3    H251455   6.537   3.458   3.091 -0.1506 -0.1705 -0.4027
10014TIP3   OH251456   1.713   2.619   2.060 -0.1899 -0.4056  0.1125
10014TIP3    H151457   1.623   2.608   2.091 -0.6993  1.9082 -0.5052
10014TIP3    H251458   1.753   2.679   2.123  0.7813 -0.9795  0.0606
10015TIP3   OH251459   6.713   3.941   0.220  0.0056  0.0201 -0.4290
10015TIP3    H151460   6.742   3.932   0.311 -2.1206  0.2303  0.2983
10015TIP3    H251461   6.758   4.019   0.188 -1.4969  1.6788  1.3933
10016TIP3   OH251462   3.149   6.229  15.290  0.2227  0.1157 -0.2755
10016TIP3    H151463   3.149   6.171  15.214  0.2448 -0.4934  0.1833
10016TIP3    H251464   3.151   6.170  15.365 -1.6280  0.6657  0.2360
10017TIP3   OH251465   0.252   3.058  16.920 -0.3555  0.0088 -0.2317
10017TIP3    H151466   0.310   2.982  16.919 -1.7928 -1.1253 -0.0287
10017TIP3    H251467   0.210   3.057  16.834 -1.4780 -0.3388  0.2953
10018TIP3   OH251468   6.755   4.618   3.780 -0.0034 -0.5426 -0.2172
10018TIP3    H151469   6.783   4.709   3.786  1.2461 -0.9102 -0.2171
10018TIP3    H251470   6.771   4.582   3.867  0.9007 -1.1261 -0.6028
10019TIP3   OH251471   4.593   5.104   2.889  0.3378 -0.0390 -0.3390
10019TIP3    H151472   4.652   5.058   2.830  0.3698 -0.7505  0.2396
10019TIP3    H251473   4.506   5.086   2.855  0.2448 -1.8873  0.8099
10020TIP3   OH251474   1.720   2.805  14.811 -0.4047  0.7807  0.6260
10020TIP3    H151475   1.812   2.825  14.828 -0.2055  0.3802  0.0625
10020TIP3    H251476   1.713   2.710  14.826 -0.3254  0.5028 -1.0516
10021TIP3   OH251477   3.899   6.136  13.313  0.4919 -0.0298 -0.5930
10021TIP3    H151478   3.905   6.064  13.376  2.0002  2.3509  2.1324
10021TIP3    H251479   3.807   6.137  13.287  0.0463 -1.7585  0.7474
10022TIP3   OH251480   1.489   3.532   6.132  0.7097 -0.2329  0.8653
10022TIP3    H151481   1.418   3.497   6.185  2.1749 -0.9599  2.3747
10022TIP3    H251482   1.454   3.531   6.042 -1.4821  0.2663  1.6956
10023TIP3   OH251483   5.164   2.320  12.256  0.2072  0.2108  0.4764
10023TIP3    H151484   5.194   2.401  12.296 -0.5720 -0.2208  1.9529
10023TIP3    H251485   5.197   2.324  12.166  1.7733  1.2953  1.0840
10024TIP3   OH251486   5.531   4.642   2.870  0.0291 -0.7177  0.7691
10024TIP3    H151487   5.625   4.653   2.884  0.0493 -0.7415  0.6486
10024TIP3    H251488   5.524   4.586   2.794 -0.0876 -0.2033  0.3964
10025TIP3   OH251489   1.628   3.805  12.624  0.1462 -0.7336  0.7843
10025TIP3    H151490   1.550   3.765  12.664  1.1167 -1.1108  2.3624
10025TIP3    H251491   1.701   3.761  12.667  1.2337 -0.5630 -0.8817
10026TIP3   OH251492   5.528   3.447  12.397  0.5205 -0.2999  0.0466
10026TIP3    H151493   5.554   3.539  12.401  1.2400 -0.5515  1.7510
10026TIP3    H251494   5.472   3.435  12.474  0.0402 -1.1697 -0.4290
10027TIP3   OH251495   3.073   1.085  16.515  0.7055 -0.4210 -0.2334
10027TIP3    H151496   3.119   1.129  16.587  0.6955 -0.2428 -0.3368
10027TIP3    H251497   3.142   1.057  16.455  0.6764 -0.1341 -0.3992
10028TIP3   OH251498   5.393   4.310   3.290  0.1828 -0.5673 -0.4893
10028TIP3    H151499   5.348   4.304   3.375 -1.0665 -0.0378 -1.0912
10028TIP3    H251500   5.376   4.226   3.248 -0.1393 -0.4196 -0.6590
10029TIP3   OH251501   0.975   1.006   4.907 -0.5962  0.0870 -0.1506
10029TIP3    H151502   0.934   1.086   4.940  0.5958  0.3105  0.8495
10029TIP3    H251503   1.064   1.032   4.883 -0.3967 -0.8028 -0.4070
10030TIP3   OH251504   2.105   3.690   2.589 -0.3059 -0.2321 -0.1002
10030TIP3    H151505   2.019   3.657   2.563 -0.8593 -0.0816  1.4738
10030TIP3    H251506   2.092   3.722   2.678  1.2014  0.5101 -0.1352
10031TIP3   OH251507   6.433   0.904  14.621  0.1841  0.1286 -0.5353
10031TIP3    H151508   6.457   0.845  14.550 -1.1632  1.1973 -1.9183
10031TIP3    H251509   6.338   0.896  14.628  0.2285  0.5598  0.6806
10032TIP3   OH251510   3.569   1.836   0.616 -0.2608 -0.1858 -0.1844
10032TIP3    H151511   3.508   1.809   0.547 -0.9105 -1.2848  0.8042
10032TIP3    H251512   3.643   1.875   0.570 -2.2200  2.2717 -1.4085
10033TIP3   OH251513   1.410   2.044  11.519  0.6039  0.4022 -0.2858
10033TIP3    H151514   1.374   2.057  11.431  0.4156 -0.0552 -0.2765
10033TIP3    H251515   1.452   2.127  11.540 -0.8425  1.1000 -0.1167
10034TIP3   OH251516   0.298   5.766  14.643 -0.8011  0.1091 -0.2579
10034TIP3    H151517   0.366   5.817  14.688 -0.2903 -0.8663  0.0864
10034TIP3    H251518   0.346   5.710  14.582 -1.1998 -1.4165  0.7989
10035TIP3   OH251519   6.505   3.428   1.932 -0.1462 -0.6730  0.0507
10035TIP3    H151520   6.462   3.414   2.016 -0.8196 -1.5073 -0.4148
10035TIP3    H251521   6.475   3.355   1.878  2.9039 -2.0345  0.1057
10036TIP3   OH251522   1.378   2.401  16.456  0.0861 -0.4745  0.3061
10036TIP3    H151523   1.377   2.362  16.369  1.3883 -1.1060  0.5651
10036TIP3    H251524   1.420   2.486  16.444  0.7124 -0.7707  0.4050
10037TIP3   OH251525   6.409   5.652   5.872 -0.0649  0.0905  0.2062
10037TIP3    H151526   6.425   5.740   5.838 -1.6978  0.2633 -0.1665
10037TIP3    H251527   6.326   5.626   5.833  1.8658 -2.8738 -2.0990
10038TIP3   OH251528   2.326   1.116   0.703  0.0459 -0.3216  0.2547
10038TIP3    H151529   2.391   1.186   0.700  1.7729 -1.9020 -0.4009
10038TIP3    H251530   2.267   1.134   0.630  0.3311  0.5907  0.2471
10039TIP3   OH251531   1.692   2.768  13.978  0.1261  1.0758  0.3100
10039TIP3    H151532   1.625   2.836  13.977 -1.1021 -0.0752  1.9912
10039TIP3    H251533   1.767   2.809  14.022 -0.7084  1.2394  1.5907
10040TIP3   OH251534   0.055   5.309  13.516  0.4888  0.1129  0.2950
10040TIP3    H151535   0.045   5.346  13.428 -1.6670 -2.2152 -0.5161
10040TIP3    H251536   0.010   5.372  13.573 -0.7961  0.1276 -0.6986
10041TIP3   OH251537   4.169   4.115   5.831  0.2496 -0.1462  0.6034
10041TIP3    H151538   4.121   4.187   5.872  1.3130 -0.2981  2.1724
10041TIP3    H251539   4.114   4.038   5.844  0.3475 -0.0998  1.3410
10042TIP3   OH251540   3.695   5.054   5.226 -0.8909  0.1515  0.6445
10042TIP3    H151541   3.755   5.072   5.298 -1.2609 -0.2199  1.0466
10042TIP3    H251542   3.628   4.997   5.264 -1.1886  0.1041  0.0558
10043TIP3   OH251543   0.241   2.046   1.059 -0.1342 -0.3834  0.1614
10043TIP3    H151544   0.275   2.086   1.139 -0.4225 -0.8043  0.4995
10043TIP3    H251545   0.160   2.002   1.087 -1.1021  0.8388 -0.6846
10044TIP3   OH251546   3.596   0.461  13.921 -0.1242  0.1858  0.1004
10044TIP3    H151547   3.591   0.461  14.017  0.9614  2.4865  0.1926
10044TIP3    H251548   3.508   0.484  13.892 -0.4843 -0.6180  0.5158
10045TIP3   OH251549   0.852   6.114   2.244 -0.1601  0.0448  0.2508
10045TIP3    H151550   0.849   6.046   2.177 -0.6402  1.2859 -1.0149
10045TIP3    H251551   0.784   6.177   2.218  1.7424  2.1380  0.1423
10046TIP3   OH251552   0.704   1.346   2.753  0.8445 -0.2333 -0.5860
10046TIP3    H151553   0.711   1.252   2.770 -0.3479 -0.4595 -1.2906
10046TIP3    H251554   0.735   1.388   2.834  1.6161 -1.2226 -0.3623
10047TIP3   OH251555   6.490   5.573   2.574 -0.4024 -0.0130  0.4866
10047TIP3    H151556   6.453   5.485   2.578 -1.2561  0.2091 -1.9781
10047TIP3    H251557   6.443   5.622   2.641 -1.3407 -0.9152  0.5013
10048TIP3   OH251558   3.541   1.337   0.513  0.6426  0.1343  0.2104
10048TIP3    H151559   3.492   1.375   0.586 -0.3159 -2.0295  0.7066
10048TIP3    H251560   3.505   1.381   0.435 -0.4530  0.2745  0.7816
10049TIP3   OH251561   3.947   3.523  12.280 -0.0222 -0.1360  0.2204
10049TIP3    H151562   3.939   3.428  12.288 -0.9699 -0.0459  0.3628
10049TIP3    H251563   3.872   3.558  12.327 -0.7304  0.6330 -1.4325
10050TIP3   OH251564   4.429   3.326  16.492 -0.0839  0.6310  0.1947
10050TIP3    H151565   4.362   3.307  16.558 -0.0469 -0.1170  0.0262
10050TIP3    H251566   4.508   3.344  16.544  0.3188 -1.4394  0.3446
10051TIP3   OH251567   1.214   2.800   1.398  0.2506 -0.3264 -0.5227
10051TIP3    H151568   1.235   2.712   1.429  0.7927 -0.2929 -0.7864
10051TIP3    H251569   1.299   2.838   1.377  0.2401  1.0983  1.8430
10052TIP3   OH251570   4.402   1.834  17.237  0.1364  0.0157 -0.0856
10052TIP3    H151571   4.357   1.895  17.294 -0.4121  0.2539 -0.7678
10052TIP3    H251572   4.471   1.885  17.195  0.6969 -0.2183  0.5503
10053TIP3   OH251573   6.509   5.414   0.720  0.1321  0.2141  0.0033
10053TIP3    H151574   6.462   5.459   0.790 -0.1914 -0.1622  0.0298
10053TIP3    H251575   6.490   5.465   0.641 -0.9024 -0.3333 -0.1152
10054TIP3   OH251576   1.772   6.573  14.540 -0.2535  0.3617  0.6225
10054TIP3    H151577   1.786   6.481  14.562 -1.2914  0.1679  0.4828
10054TIP3    H251578   1.688   6.595  14.580 -3.2097 -0.5300 -4.6186
10055TIP3   OH251579   0.496   4.598   0.784  0.3416 -0.0626  0.0350
10055TIP3    H151580   0.577   4.589   0.733  1.3379  0.2574  1.4935
10055TIP3    H251581   0.431   4.549   0.735  2.0311 -2.4376  0.0551
10056TIP3   OH251582   1.558   5.275   2.077 -0.0682  0.0114 -0.0809
10056TIP3    H151583   1.538   5.196   2.028  1.5854  0.6788 -1.9003
10056TIP3    H251584   1.603   5.243   2.156  2.2509 -0.7907 -1.6857
10057TIP3   OH251585   3.640   3.531   4.506 -0.3335  0.7668  0.1789
10057TIP3    H151586   3.681   3.488   4.581 -1.8482 -0.7869  0.1466
10057TIP3    H251587   3.621   3.460   4.445 -0.8111  1.7806 -0.8706
10058TIP3   OH251588   1.807   6.179   0.182  0.4899  0.0411  0.0555
10058TIP3    H151589   1.808   6.226   0.098  0.3807  0.4100  0.2620
10058TIP3    H251590   1.735   6.219   0.231 -1.4863 -2.2580 -0.8631
10059TIP3   OH251591   6.353   2.920   3.233  0.2504  0.4103  0.2397
10059TIP3    H151592   6.336   2.986   3.167 -0.2128  0.0149 -0.0441
10059TIP3    H251593   6.288   2.852   3.216 -1.1452  1.1644  2.2775
10060TIP3   OH251594   3.563   1.198  11.525 -0.0139 -0.6417  0.1987
10060TIP3    H151595   3.544   1.119  11.575 -1.5357 -0.5285 -0.1694
10060TIP3    H251596   3.558   1.170  11.433  1.5530 -0.5779  0.0786
10061TIP3   OH251597   2.982   4.673   4.407  0.3666  0.3226 -0.2831
10061TIP3    H151598   3.077   4.657   4.404 -0.0550 -2.8349  1.0060
10061TIP3    H251599   2.971   4.735   4.479  1.3587 -0.1673  0.3109
10062TIP3   OH251600   1.450   4.870  16.575  0.0412  0.1144  0.2525
10062TIP3    H151601   1.543   4.860  16.556 -0.0115 -1.1394  0.6244
10062TIP3    H251602   1.408   4.879  16.490  0.2379 -1.7004 -0.0510
10063TIP3   OH251603   1.017   0.042  16.426 -0.1638  0.2324 -0.2634
10063TIP3    H151604   1.086   0.104  16.401 -0.1792 -0.0894 -1.1109
10063TIP3    H251605   1.062  -0.027  16.473  0.3923 -0.9618 -2.4872
10064TIP3   OH251606   3.047   4.952   2.834 -0.0215  0.2178 -0.1845
10064TIP3    H151607   3.115   4.985   2.776  2.1446  0.8756  2.6173
10064TIP3    H251608   3.082   4.868   2.866 -0.6326  0.4302  1.0654
10065TIP3   OH251609   5.959   3.629  10.936  0.1008 -0.9540  0.4239
10065TIP3    H151610   6.019   3.681  10.882  0.4678 -0.3718  1.3716
10065TIP3    H251611   6.004   3.546  10.951 -0.2512 -1.3380 -0.6450
10066TIP3   OH251612   4.831   3.395  14.930 -0.1336 -0.1195  0.0785
10066TIP3    H151613   4.871   3.409  15.015 -1.2717 -0.7453  0.7397
10066TIP3    H251614   4.770   3.468  14.920  0.3518  0.2151 -0.4105
10067TIP3   OH251615   3.996   0.599  11.924  0.2489  0.2437  0.4152
10067TIP3    H151616   3.944   0.539  11.871  0.6324  1.0799 -0.9310
10067TIP3    H251617   4.084   0.562  11.924  1.0702  2.0835 -2.5093
10068TIP3   OH251618   0.230   1.724   0.385  0.8751  0.2853 -0.2310
10068TIP3    H151619   0.147   1.686   0.412  1.5326 -1.2411 -0.2924
10068TIP3    H251620   0.212   1.762   0.299  0.8740 -2.4174 -1.4782
10069TIP3   OH251621   6.574   4.924   0.701  0.1192 -0.4058  0.4152
10069TIP3    H151622   6.502   4.862   0.689 -1.5272  1.2726  1.3400
10069TIP3    H251623   6.532   5.010   0.702  2.3018  0.7043 -0.2944
10070TIP3   OH251624   5.192   2.314   3.173  0.2444  0.3943 -0.2723
10070TIP3    H151625   5.189   2.300   3.268  0.2273 -1.5776 -0.5379
10070TIP3    H251626   5.119   2.373   3.155 -0.8643 -0.6344  0.7218
10071TIP3   OH251627   1.433   3.727  12.833  0.2101 -0.8023 -0.2520
10071TIP3    H151628   1.362   3.750  12.773  1.8817  2.8987 -0.8869
10071TIP3    H251629   1.392   3.731  12.920 -0.6537  0.1318 -0.6899
10072TIP3   OH251630   6.475   0.989   2.483  0.3937 -0.3103  0.1721
10072TIP3    H151631   6.553   0.934   2.474  0.1147 -0.5247 -1.0731
10072TIP3    H251632   6.472   1.040   2.402  0.7272  1.6694  1.3603
10073TIP3   OH251633   3.848   1.350  13.572  0.5742  0.3028 -0.1671
10073TIP3    H151634   3.938   1.353  13.606  0.7011  1.8833 -0.5880
10073TIP3    H251635   3.843   1.424  13.512 -0.6359 -0.5475 -1.1269
10074TIP3   OH251636   3.160   1.832  16.554 -0.5858  0.0359 -0.0452
10074TIP3    H151637   3.094   1.763  16.548  1.7443 -2.3026  0.2070
10074TIP3    H251638   3.165   1.853  16.647 -0.3319 -0.4367  0.0476
10075TIP3   OH251639   6.010   6.744   1.504 -0.3440 -0.2008 -0.1236
10075TIP3    H151640   6.022   6.812   1.570 -0.7536  0.0362 -0.2942
10075TIP3    H251641   6.098   6.707   1.491 -0.7769 -2.6709  3.1533
10076TIP3   OH251642   2.436   5.519  15.962  0.3988 -0.0762 -0.0488
10076TIP3    H151643   2.402   5.462  15.892 -0.5864  0.3505  0.0665
10076TIP3    H251644   2.402   5.606  15.941 -0.7654 -0.1225  1.4844
10077TIP3   OH251645   6.017   5.431   6.610  0.3269  0.4372 -0.5442
10077TIP3    H151646   5.945   5.372   6.632 -1.0290  2.1143 -0.3390
10077TIP3    H251647   6.009   5.445   6.516  0.7704  0.1386 -0.6276
10078TIP3   OH251648   0.809   0.198  16.224 -0.4836 -0.0259 -0.3586
10078TIP3    H151649   0.859   0.242  16.292 -0.5887  0.3738 -0.5362
10078TIP3    H251650   0.806   0.106  16.251 -3.3003  0.6468  1.8725
10079TIP3   OH251651   1.003   4.196  11.612 -0.2876 -0.1288  0.1393
10079TIP3    H151652   0.965   4.130  11.669 -1.9153  1.4338  0.9019
10079TIP3    H251653   1.076   4.233  11.663 -0.2874 -0.3433  0.2923
10080TIP3   OH251654   0.122   1.013   0.691 -0.2199 -0.5692  0.8266
10080TIP3    H151655   0.108   1.065   0.611  0.3510 -1.4075  0.1764
10080TIP3    H251656   0.215   1.021   0.709 -0.3242 -0.4926  1.3433
10081TIP3   OH251657   0.715   1.912  10.670 -0.3489 -0.1081 -0.1814
10081TIP3    H151658   0.656   1.886  10.600  0.7164  0.0703 -1.1579
10081TIP3    H251659   0.781   1.842  10.672  0.0779  0.3009  0.0954
10082TIP3   OH251660   3.793   2.048  17.028  0.4374  0.2213 -0.5037
10082TIP3    H151661   3.842   2.080  16.952  1.8061  0.2051  0.3445
10082TIP3    H251662   3.746   2.124  17.060 -1.3130 -0.1078 -2.2288
10083TIP3   OH251663   0.647   0.274  16.923 -0.4135  0.7290  0.2522
10083TIP3    H151664   0.602   0.190  16.925 -2.0610  1.5927 -0.0571
10083TIP3    H251665   0.685   0.283  17.011 -2.0969  0.6504  1.0037
10084TIP3   OH251666   3.341   2.654   5.793  0.0580 -0.7109  0.2253
10084TIP3    H151667   3.391   2.726   5.832  1.5315 -0.1095 -2.6408
10084TIP3    H251668   3.250   2.675   5.812  0.3461  2.7930 -1.8188
10085TIP3   OH251669   0.743   4.576  14.664  0.3351 -0.1267 -0.1533
10085TIP3    H151670   0.798   4.515  14.615  1.1156  1.2780 -1.0645
10085TIP3    H251671   0.707   4.634  14.597 -0.9801 -0.0314  0.6169
10086TIP3   OH251672   1.653   4.779   2.895 -0.4657  0.2891  0.2142
10086TIP3    H151673   1.651   4.698   2.845 -0.3999  0.2303  0.3071
10086TIP3    H251674   1.687   4.844   2.833  0.3572  0.0546  0.4155
10087TIP3   OH251675   2.772   2.363   2.089 -0.1543  0.3555 -0.3927
10087TIP3    H151676   2.830   2.328   2.021 -1.5014 -1.7284 -0.5121
10087TIP3    H251677   2.722   2.432   2.044  0.5905  0.5684 -0.9035
10088TIP3   OH251678   6.763   4.914   5.776  0.0927 -0.6114 -0.5035
10088TIP3    H151679   6.745   4.824   5.750  0.1183 -1.4289  2.2040
10088TIP3    H251680   6.677   4.950   5.798  0.5639 -1.6710  3.5074
10089TIP3   OH251681   4.751   5.929   3.832  0.1005  0.1417 -0.2296
10089TIP3    H151682   4.812   5.860   3.861  1.2376  1.6117  0.9945
10089TIP3    H251683   4.664   5.894   3.851  0.6506 -1.1459 -0.0415
10090TIP3   OH251684   0.624   5.958  15.153 -0.3288 -0.0370 -0.4425
10090TIP3    H151685   0.570   6.036  15.140 -0.8966 -0.7083 -2.2651
10090TIP3    H251686   0.572   5.886  15.117 -0.4633 -1.5437  2.5439
10091TIP3   OH251687   4.335   5.719   5.818  0.4506  0.3226 -0.0758
10091TIP3    H151688   4.396   5.657   5.779 -1.3219 -1.1953 -0.4531
10091TIP3    H251689   4.250   5.696   5.782 -0.6396  1.2765  1.8163
10092TIP3   OH251690   5.683   3.458   3.697  0.2018 -0.4795  0.4730
10092TIP3    H151691   5.728   3.376   3.680  0.3908 -0.8109  2.5118
10092TIP3    H251692   5.678   3.464   3.792 -3.3987 -0.0936  0.3213
10093TIP3   OH251693   1.402   0.892   2.392 -0.1420  0.2447 -0.2717
10093TIP3    H151694   1.431   0.805   2.420 -0.1577 -0.2152 -1.6343
10093TIP3    H251695   1.318   0.905   2.437  0.5857  0.1939  1.1133
10094TIP3   OH251696   0.017   0.743  10.904  0.2415  0.6238 -0.0924
10094TIP3    H151697   0.111   0.761  10.892 -0.1110  2.1567 -0.7858
10094TIP3    H251698  -0.018   0.740  10.814 -0.0486 -1.8960  0.0835
10095TIP3   OH251699   1.570   3.696   3.480  0.0449 -0.0997 -0.0330
10095TIP3    H151700   1.609   3.780   3.504  1.2145 -0.3881 -0.8550
10095TIP3    H251701   1.613   3.673   3.398  0.3314 -1.8797  0.5928
10096TIP3   OH251702   3.494   5.447   0.740 -0.1646 -0.2073  0.0053
10096TIP3    H151703   3.421   5.385   0.742  0.9178 -1.4877  1.0336
10096TIP3    H251704   3.550   5.419   0.813  1.9966 -0.0680 -1.5637
10097TIP3   OH251705   5.009   1.557  13.731 -0.1615 -0.0916 -0.3588
10097TIP3    H151706   5.067   1.628  13.704  1.7600 -1.4260  0.0886
10097TIP3    H251707   4.974   1.522  13.649  2.0602 -1.1844 -0.9066
10098TIP3   OH251708   6.506   3.727  13.060 -0.2966  0.3943 -0.4874
10098TIP3    H151709   6.571   3.781  13.014  0.4045  0.4376  0.5421
10098TIP3    H251710   6.543   3.714  13.147 -0.0480 -2.5084 -1.0026
10099TIP3   OH251711   6.258   3.040   4.824 -0.0884  0.2056 -0.1489
10099TIP3    H151712   6.217   2.963   4.784  1.9306 -0.1113 -1.6788
10099TIP3    H251713   6.327   3.065   4.763  1.9546  0.7792  2.2697
10100TIP3   OH251714   3.504   0.840  13.919  0.7814  0.0870 -0.3271
10100TIP3    H151715   3.409   0.851  13.915  0.6072 -1.0850  0.2082
10100TIP3    H251716   3.524   0.837  14.013  1.5727  1.9839 -0.3967
10101TIP3   OH251717   0.872   6.152  11.162 -0.3197  0.3408 -0.3940
10101TIP3    H151718   0.824   6.072  11.138  0.9001 -0.0283 -1.7111
10101TIP3    H251719   0.883   6.146  11.257 -0.7118 -0.7872 -0.4095
10102TIP3   OH251720   2.291   5.599  16.196 -0.4492  0.2618 -0.1132
10102TIP3    H151721   2.316   5.507  16.181 -0.8628  0.0789  0.3143
10102TIP3    H251722   2.312   5.643  16.114 -1.4735 -0.4764 -0.7779
10103TIP3   OH251723   2.099   0.550  13.912  0.7898  0.0692  0.4886
10103TIP3    H151724   2.139   0.572  13.996  3.6826 -1.3122 -0.4463
10103TIP3    H251725   2.170   0.510  13.862 -1.5083 -1.3735 -1.7251
10104TIP3   OH251726   4.716   5.894  11.689  0.1451 -0.3161  0.0377
10104TIP3    H151727   4.758   5.976  11.717  1.4133 -1.5980  1.9868
10104TIP3    H251728   4.780   5.854  11.630  0.9495 -1.4246  1.6261
10105TIP3   OH251729   1.206   6.727  16.997 -0.0702 -0.4719 -0.2477
10105TIP3    H151730   1.122   6.751  17.036 -0.6927 -2.6005 -0.2455
10105TIP3    H251731   1.270   6.743  17.066  0.0739  4.4828 -1.3228
10106TIP3   OH251732   5.548   2.240   3.484 -0.4691  0.4030 -0.8322
10106TIP3    H151733   5.570   2.157   3.441 -2.1851 -0.2776 -0.4707
10106TIP3    H251734   5.610   2.303   3.448  1.3205 -1.1707 -0.6094
10107TIP3   OH251735   2.670   5.613   5.160  0.1939 -0.3858 -0.1821
10107TIP3    H151736   2.655   5.555   5.235  0.3406  0.3412  0.4167
10107TIP3    H251737   2.755   5.652   5.177 -0.5654  1.1417  0.1736
10108TIP3   OH251738   5.716   1.045  11.847 -0.1375  0.4620 -0.2455
10108TIP3    H151739   5.655   1.061  11.775 -1.4187 -0.3081  0.6283
10108TIP3    H251740   5.793   1.097  11.826 -0.1646 -0.3723 -2.5571
10109TIP3   OH251741   0.466   2.229  15.264 -0.3240 -0.0944  0.3673
10109TIP3    H151742   0.408   2.185  15.326 -0.9408 -1.2830 -1.0367
10109TIP3    H251743   0.552   2.189  15.279 -0.0636  0.9270  1.7184
10110TIP3   OH251744   4.704   3.403  12.860  0.0403 -0.4104  0.1750
10110TIP3    H151745   4.648   3.342  12.811 -0.6297  0.3673 -0.0326
10110TIP3    H251746   4.718   3.476  12.800 -0.9017  0.6201  1.1770
10111TIP3   OH251747   5.792   3.208  15.593  0.4471  0.3415 -0.1582
10111TIP3    H151748   5.741   3.287  15.579 -1.4567 -0.7178  0.5220
10111TIP3    H251749   5.881   3.231  15.566 -0.2649  2.4073 -0.8383
10112TIP3   OH251750   3.834   0.964  13.825 -0.7650 -0.0437  0.3077
10112TIP3    H151751   3.811   0.873  13.807  0.7798 -0.3494 -0.1923
10112TIP3    H251752   3.771   1.015  13.774 -2.7615 -0.7863  1.9640
10113TIP3   OH251753   0.037   6.660  11.104  0.2552 -0.2457 -0.0140
10113TIP3    H151754   0.075   6.674  11.191  1.1091 -0.1612 -0.3956
10113TIP3    H251755  -0.034   6.724  11.099 -0.3684 -0.8456  0.9545
10114TIP3   OH251756   2.474   0.345   0.860 -0.3428 -0.3398  0.5289
10114TIP3    H151757   2.443   0.414   0.919 -0.1936  0.7622 -0.6525
10114TIP3    H251758   2.458   0.380   0.773  1.5507 -0.9865 -0.0921
10115TIP3   OH251759   5.621   1.700  11.307 -0.4710 -0.1615  0.3710
10115TIP3    H151760   5.580   1.697  11.221 -1.9471 -0.6712  1.0707
10115TIP3    H251761   5.655   1.789  11.315 -0.4670 -0.0702 -0.6693
10116TIP3   OH251762   1.678   4.843  16.239  0.0409 -0.5416  0.4285
10116TIP3    H151763   1.586   4.832  16.214  0.0151  0.0939  0.2368
10116TIP3    H251764   1.721   4.873  16.159  0.0103  1.2746  1.0744
10117TIP3   OH251765   3.376   5.427   6.048  0.1400  0.5492 -0.5752
10117TIP3    H151766   3.382   5.335   6.072  0.2521  0.2356 -1.7564
10117TIP3    H251767   3.306   5.462   6.104  0.6496 -0.0562  0.4409
10118TIP3   OH251768   6.053   5.096  13.697 -0.1501 -0.4847  0.0946
10118TIP3    H151769   5.984   5.150  13.734 -0.4833 -0.9070  0.1020
10118TIP3    H251770   6.018   5.066  13.613 -0.4609 -1.6392  0.6137
10119TIP3   OH251771   2.415   0.108   1.132  0.0373 -0.1593 -0.0166
10119TIP3    H151772   2.407   0.084   1.225  1.3364 -3.6984 -0.7693
10119TIP3    H251773   2.493   0.163   1.129  0.3704 -0.5625  0.8893
10120TIP3   OH251774   1.352   1.438  12.595  0.3172 -0.1922 -0.0717
10120TIP3    H151775   1.340   1.379  12.669  0.2716 -1.2889 -0.9325
10120TIP3    H251776   1.444   1.431  12.573  0.0699 -0.8499 -0.9161
10121TIP3   OH251777   1.241   5.555  15.006 -0.0646  0.6720  0.0140
10121TIP3    H151778   1.287   5.632  14.973 -0.2457  0.2355 -1.2931
10121TIP3    H251779   1.310   5.503  15.047  0.2368  1.0601  0.0098
10122TIP3   OH251780   0.202   5.206   6.029  0.4120 -0.0632 -0.1596
10122TIP3    H151781   0.203   5.127   6.082 -1.3625  0.1164  0.1946
10122TIP3    H251782   0.134   5.261   6.070  1.9234  1.8206 -0.1311
10123TIP3   OH251783   4.004   2.633  16.300  0.0178  0.4816 -0.0411
10123TIP3    H151784   3.985   2.541  16.278  0.2490  0.3996  0.1048
10123TIP3    H251785   4.084   2.629  16.352 -1.6393  0.4589  2.6413
10124TIP3   OH251786   4.435   0.065  16.411  0.8459 -0.0808  0.5350
10124TIP3    H151787   4.450   0.157  16.389  2.6240 -0.2090  1.1179
10124TIP3    H251788   4.480   0.052  16.494  2.2240 -1.9283 -0.4560
10125TIP3   OH251789   1.906   0.173  15.445  0.0868  0.3373 -0.0767
10125TIP3    H151790   1.825   0.217  15.469  0.7485  0.4515  2.0329
10125TIP3    H251791   1.947   0.231  15.380  0.9153  2.8735  2.6077
10126TIP3   OH251792   2.284   1.283  16.059 -0.6120  0.0485  0.3380
10126TIP3    H151793   2.284   1.333  15.977  0.9208 -0.3647  0.0589
10126TIP3    H251794   2.293   1.348  16.128 -0.6742  0.3035  0.1041
10127TIP3   OH251795   6.230   0.506  11.339  0.3394  0.0147  0.3261
10127TIP3    H151796   6.319   0.470  11.335  1.3245  2.5844 -1.9278
10127TIP3    H251797   6.243   0.598  11.361 -1.7363  0.6079 -0.9247
10128TIP3   OH251798   4.218   1.507   5.121  0.1147  0.4467 -0.4876
10128TIP3    H151799   4.152   1.562   5.078 -0.3221  1.1945  1.1057
10128TIP3    H251800   4.250   1.450   5.051  0.2535  2.4014 -2.0866
10129TIP3   OH251801   6.089   6.285   4.256  0.4630  0.7887 -0.5849
10129TIP3    H151802   6.018   6.247   4.308  0.6219  0.5505 -0.5388
10129TIP3    H251803   6.049   6.310   4.173  0.5293 -0.2551 -0.9397
10130TIP3   OH251804   3.815   0.565   1.417  0.3755 -0.0389 -0.2661
10130TIP3    H151805   3.818   0.570   1.321  1.0856  0.4274 -0.2217
10130TIP3    H251806   3.893   0.612   1.446  0.6963 -1.0259  0.5116
10131TIP3   OH251807   4.354   3.734   3.696 -0.0172 -0.2707  0.2250
10131TIP3    H151808   4.278   3.717   3.641 -0.0469 -0.2285  0.2528
10131TIP3    H251809   4.319   3.735   3.785  0.3367 -2.2135  0.4172
10132TIP3   OH251810   1.124   0.200  11.770  0.8360  0.2937  0.5642
10132TIP3    H151811   1.146   0.249  11.691 -0.6251 -0.2193 -0.1946
10132TIP3    H251812   1.060   0.255  11.816 -1.7680 -1.3462 -0.9157
10133TIP3   OH251813   5.046   6.146  16.871 -0.3927 -0.9741  0.0290
10133TIP3    H151814   5.047   6.096  16.953 -2.9667 -2.6635 -0.9255
10133TIP3    H251815   5.111   6.103  16.816  0.4447 -0.6064  0.7116
10134TIP3   OH251816   0.220   1.830  13.278 -0.2962 -0.5176  0.3897
10134TIP3    H151817   0.259   1.744  13.298 -1.5905 -1.5642 -1.4032
10134TIP3    H251818   0.150   1.840  13.342 -1.0684 -1.4811 -0.2779
10135TIP3   OH251819   2.419   6.133   6.464 -0.4539  0.0685 -0.5265
10135TIP3    H151820   2.362   6.174   6.399  1.1636  2.0954 -0.6980
10135TIP3    H251821   2.488   6.197   6.481  0.4706 -1.3743  1.4549
10136TIP3   OH251822   1.049   3.884   1.221  0.4329 -0.0268 -0.0575
10136TIP3    H151823   1.018   3.841   1.141  1.7592  0.3220 -0.7765
10136TIP3    H251824   0.981   3.865   1.286  0.8451 -3.0284 -0.4004
10137TIP3   OH251825   2.446   0.147  10.606  0.2904 -0.0319 -0.0414
10137TIP3    H151826   2.403   0.227  10.637  2.7913  1.2867  0.2340
10137TIP3    H251827   2.392   0.116  10.534 -1.2818  1.3338  0.5197
10138TIP3   OH251828   3.965   6.092   2.451 -0.0256  0.6541 -0.1253
10138TIP3    H151829   3.996   6.003   2.436 -0.9722  0.4822 -1.1558
10138TIP3    H251830   3.961   6.131   2.364  0.0895  1.6055  0.2893
10139TIP3   OH251831   5.610   1.984  10.500  0.1829  0.0455  0.2093
10139TIP3    H151832   5.519   1.963  10.524 -0.1095  0.5693 -0.4135
10139TIP3    H251833   5.609   2.079  10.484  1.0475  0.2044  1.0874
10140TIP3   OH251834   6.226   5.413   2.988 -0.1152 -0.2672 -0.5137
10140TIP3    H151835   6.288   5.401   2.916  0.3666  0.1193 -0.1636
10140TIP3    H251836   6.251   5.347   3.053 -0.2062 -0.2517 -0.4625
10141TIP3   OH251837   3.347   4.920  12.143 -0.5499 -0.0569 -0.4394
10141TIP3    H151838   3.391   4.855  12.089  0.7724  0.1501  0.3549
10141TIP3    H251839   3.317   4.871  12.220 -0.8597 -0.0071 -0.5265
10142TIP3   OH251840   3.940   4.829  12.209 -0.0525 -0.6237  0.1239
10142TIP3    H151841   3.936   4.747  12.257 -0.5893  0.2439  1.5764
10142TIP3    H251842   4.029   4.834  12.176  0.3155 -1.2127  1.0336
10143TIP3   OH251843   5.932   2.571   1.832  0.1251  0.3853  0.7300
10143TIP3    H151844   6.004   2.634   1.834  0.1675  0.4348 -1.2375
10143TIP3    H251845   5.973   2.486   1.841  0.3580  0.4544  0.3037
10144TIP3   OH251846   0.755   0.506   1.076  0.0980  0.3474  0.4633
10144TIP3    H151847   0.800   0.454   1.142  0.5255  1.0654  0.7469
10144TIP3    H251848   0.814   0.580   1.059 -0.2095  0.4071 -0.3965
10145TIP3   OH251849   1.554   1.457   2.750 -0.2544  0.5373  0.6896
10145TIP3    H151850   1.575   1.526   2.687  2.8749 -0.6901  0.2817
10145TIP3    H251851   1.597   1.379   2.715 -1.7571 -1.1036  2.3511
10146TIP3   OH251852   6.650   1.553   4.552  0.2506  0.1275  0.1779
10146TIP3    H151853   6.646   1.582   4.643 -0.2613  1.2259 -0.1894
10146TIP3    H251854   6.559   1.557   4.522  0.1524 -1.8368  0.0995
10147TIP3   OH251855   1.257   4.499  13.590  0.5673 -0.5389 -0.2248
10147TIP3    H151856   1.260   4.549  13.508 -0.5981  0.7744  0.5018
10147TIP3    H251857   1.172   4.455  13.587  0.2210  0.0773  0.6016
10148TIP3   OH251858   3.027   1.992   0.847 -0.2801 -0.3498 -0.1155
10148TIP3    H151859   3.034   1.948   0.932  1.0580  2.3784  1.2467
10148TIP3    H251860   3.089   1.944   0.791 -1.2194 -2.2117  0.3794
10149TIP3   OH251861   5.984   5.298  15.352  0.3450 -0.2658  0.1751
10149TIP3    H151862   5.982   5.340  15.266  0.8052 -1.3014 -0.3531
10149TIP3    H251863   5.904   5.327  15.395  0.4626  0.8324 -0.3294
10150TIP3   OH251864   5.433   6.429  14.051 -0.5787 -0.5267  0.4282
10150TIP3    H151865   5.438   6.498  14.117 -0.8514 -0.9023  0.8426
10150TIP3    H251866   5.341   6.428  14.025 -0.3675 -0.0120 -0.3544
10151TIP3   OH251867   0.964   1.535  13.187 -0.0436  0.1444 -0.6680
10151TIP3    H151868   1.001   1.452  13.160  0.3372  0.3768 -0.8724
10151TIP3    H251869   1.041   1.592  13.201 -0.3254  0.7411 -1.4580
10152TIP3   OH251870   0.831   4.327   0.210 -0.1755 -0.0080 -0.7158
10152TIP3    H151871   0.827   4.278   0.292  0.4377 -0.3731 -0.9048
10152TIP3    H251872   0.894   4.397   0.227  1.6139 -1.3969 -1.5778
10153TIP3   OH251873   3.772   2.985   3.150  0.3922 -0.5347 -0.2823
10153TIP3    H151874   3.865   3.004   3.164  1.4149 -4.2929 -1.4035
10153TIP3    H251875   3.743   2.948   3.234  0.4149 -1.1349 -0.5377
10154TIP3   OH251876   5.177   0.503   5.222  0.0535 -0.3113  0.0266
10154TIP3    H151877   5.247   0.456   5.266  0.5160 -1.1019 -1.5567
10154TIP3    H251878   5.217   0.584   5.192 -0.6174  0.9114  2.2902
10155TIP3   OH251879   5.114   5.596  10.947  0.2756  0.0133 -0.6950
10155TIP3    H151880   5.168   5.674  10.937  1.5804 -0.9320 -1.2016
10155TIP3    H251881   5.175   5.528  10.977 -0.4471 -1.3228 -2.1913
10156TIP3   OH251882   1.459   3.252   0.199  0.0301 -0.1636  0.0725
10156TIP3    H151883   1.390   3.193   0.168 -0.6695  0.0620  1.1641
10156TIP3    H251884   1.529   3.244   0.134 -0.7645 -0.8870 -0.6996
10157TIP3   OH251885   0.758   2.374  13.984 -1.1059 -0.1518  0.0399
10157TIP3    H151886   0.703   2.393  14.060  0.3090 -0.7040  1.2254
10157TIP3    H251887   0.807   2.295  14.009  1.7201  1.4737 -0.1723
10158TIP3   OH251888   6.095   6.423  12.261 -0.5340 -0.1299 -0.2465
10158TIP3    H151889   6.120   6.428  12.353 -2.1965 -2.2707  0.3690
10158TIP3    H251890   6.091   6.329  12.242 -0.9231  0.2778 -2.3002
10159TIP3   OH251891   1.695   4.005  11.292 -0.0980  1.1498 -0.5351
10159TIP3    H151892   1.674   4.062  11.217 -0.3720  1.4657 -0.2249
10159TIP3    H251893   1.617   3.950  11.302  0.4617  0.2265 -1.2839
10160TIP3   OH251894   5.449   4.423   0.207  0.0584 -0.1883 -0.4208
10160TIP3    H151895   5.427   4.435   0.299  0.3449  0.1619 -0.3947
10160TIP3    H251896   5.488   4.336   0.202  0.1667 -0.1515 -0.1887
10161TIP3   OH251897   5.744   4.329   3.016 -0.2750  0.0553 -0.0695
10161TIP3    H151898   5.698   4.395   3.068  2.0058 -0.1396  2.3510
10161TIP3    H251899   5.707   4.245   3.045  0.8638 -0.0410  1.1928
10162TIP3   OH251900   1.531   5.864   5.861  0.0218  1.2047 -0.1449
10162TIP3    H151901   1.612   5.826   5.895  0.4265  1.4037 -0.8798
10162TIP3    H251902   1.473   5.868   5.937 -0.3006 -1.5827 -0.1854
10163TIP3   OH251903   0.485   4.330  11.421 -0.2690 -0.0824 -0.5431
10163TIP3    H151904   0.527   4.371  11.345  0.9920 -0.3345  0.0147
10163TIP3    H251905   0.558   4.303  11.477 -1.1636 -0.9636  0.2028
10164TIP3   OH251906   3.317   0.326  11.140 -0.0756 -0.1712  0.0020
10164TIP3    H151907   3.272   0.301  11.220 -0.3389  0.5584  0.0888
10164TIP3    H251908   3.381   0.257  11.125 -0.4444 -0.6202  0.5087
10165TIP3   OH251909   1.901   1.444  12.556  0.3382  0.0314  0.2091
10165TIP3    H151910   1.839   1.476  12.489 -0.2818 -0.8820  0.3422
10165TIP3    H251911   1.869   1.481  12.638  1.0329  1.0582  0.0284
10166TIP3   OH251912   4.090   1.823   0.431  0.3481  0.1547  0.3813
10166TIP3    H151913   4.122   1.739   0.398 -0.0126 -0.0694  0.5927
10166TIP3    H251914   4.142   1.841   0.509  1.6238  0.9806 -0.6346
10167TIP3   OH251915   0.499   0.370   0.449 -0.0226 -0.8896 -0.4899
10167TIP3    H151916   0.554   0.441   0.415 -2.4132  0.5657 -1.4540
10167TIP3    H251917   0.460   0.406   0.529 -0.6098 -1.4174 -0.5371
10168TIP3   OH251918   3.730   6.245  15.045 -0.1120  0.1662 -0.5419
10168TIP3    H151919   3.773   6.248  14.959  0.2180 -0.4587 -0.3988
10168TIP3    H251920   3.714   6.152  15.061 -0.0132  0.2695  0.1563
10169TIP3   OH251921   4.898   0.886   5.257 -0.2041 -0.3457 -0.4308
10169TIP3    H151922   4.910   0.794   5.283 -2.8826 -0.1742  1.5378
10169TIP3    H251923   4.958   0.935   5.313  1.2584 -0.8620 -1.5092
10170TIP3   OH251924   6.282   0.602   4.244 -0.2612  0.0886  0.6682
10170TIP3    H151925   6.366   0.621   4.203 -0.5237 -2.1119 -0.9962
10170TIP3    H251926   6.304   0.573   4.333  0.6272  0.7222  0.6611
10171TIP3   OH251927   2.357   1.092  14.640 -0.0130  0.0059 -0.4140
10171TIP3    H151928   2.301   1.168  14.656 -0.6817 -0.2847 -1.3749
10171TIP3    H251929   2.437   1.129  14.601 -0.3792  0.2065 -0.9802
10172TIP3   OH251930   4.768   3.515   3.362 -0.0928 -0.1939 -0.2618
10172TIP3    H151931   4.788   3.446   3.425  0.6322  1.4167  1.2980
10172TIP3    H251932   4.680   3.494   3.330 -1.0364 -0.2893  2.3261
10173TIP3   OH251933   5.169   0.647  16.726 -0.3915 -1.0429 -0.3133
10173TIP3    H151934   5.200   0.566  16.685  2.2217  0.4982 -1.5039
10173TIP3    H251935   5.188   0.635  16.819 -2.4064 -2.8123 -0.0894
10174TIP3   OH251936   1.873   5.977   4.787  0.0723  0.1565 -0.0873
10174TIP3    H151937   1.832   5.995   4.871 -0.7277 -1.0886 -0.1999
10174TIP3    H251938   1.806   5.932   4.736  1.0990 -0.6135 -0.7948
10175TIP3   OH251939   1.890   6.415  15.439 -0.0888  0.1050  0.3464
10175TIP3    H151940   1.820   6.371  15.391  2.7222 -1.6174 -2.3514
10175TIP3    H251941   1.859   6.506  15.448 -2.1993 -0.3519 -1.7358
10176TIP3   OH251942   0.124   2.586  15.076 -0.6141  0.2423  0.1470
10176TIP3    H151943   0.145   2.646  15.148  1.5850  0.6376 -0.7643
10176TIP3    H251944   0.161   2.502  15.104 -2.2735 -0.3243  0.7066
10177TIP3   OH251945   3.687   5.705  13.573  0.4473 -0.0881  0.3063
10177TIP3    H151946   3.772   5.674  13.542  0.8840  0.2402  1.1449
10177TIP3    H251947   3.707   5.752  13.655 -0.3510  1.3704 -0.3184
10178TIP3   OH251948   1.927   6.316  15.702  1.0363  0.3749  0.3165
10178TIP3    H151949   1.893   6.343  15.616  1.8233  0.5051  0.0447
10178TIP3    H251950   1.994   6.251  15.682  2.9587  2.2019  0.6958
10179TIP3   OH251951   0.214   6.022   4.701  0.1551  0.0818  0.1859
10179TIP3    H151952   0.248   6.089   4.760  0.1483  2.5381 -2.4594
10179TIP3    H251953   0.240   6.053   4.614 -1.5579 -2.3789 -1.2286
10180TIP3   OH251954   2.675   4.364   4.803  0.3309  0.0863 -0.0612
10180TIP3    H151955   2.731   4.432   4.764  3.1420 -1.4999  1.0284
10180TIP3    H251956   2.665   4.392   4.894  0.6556 -0.4181  0.1325
10181TIP3   OH251957   0.029   5.065  13.064 -0.3896 -0.1270 -0.5611
10181TIP3    H151958   0.119   5.051  13.095 -2.0823 -1.9819  3.8482
10181TIP3    H251959  -0.001   5.143  13.110 -1.9817 -1.2093  0.2756
10182TIP3   OH251960   4.619   6.684   6.394  0.0309  0.3764  0.4012
10182TIP3    H151961   4.579   6.606   6.355 -0.3904  0.6982  0.1919
10182TIP3    H251962   4.705   6.690   6.353 -1.0201  1.6217 -1.6533
10183TIP3   OH251963   2.111   1.591   5.964 -0.5040 -0.0665  0.2949
10183TIP3    H151964   2.078   1.501   5.970  2.3349 -1.1513  0.3042
10183TIP3    H251965   2.168   1.600   6.040 -0.3596  1.6059  0.0019
10184TIP3   OH251966   1.855   6.268  16.591 -0.0313 -0.3937 -0.3306
10184TIP3    H151967   1.794   6.285  16.520 -0.4617 -1.2616 -0.1751
10184TIP3    H251968   1.914   6.200  16.557 -0.3072 -0.8915  0.1728
10185TIP3   OH251969   5.941   6.707   0.630 -0.5231 -0.0164 -0.3470
10185TIP3    H151970   5.915   6.797   0.614  0.2791  0.0984 -1.0779
10185TIP3    H251971   5.904   6.658   0.556  0.0531 -0.0885 -0.5927
10186TIP3   OH251972   6.236   1.915   0.365  0.4310 -0.1555  0.1949
10186TIP3    H151973   6.216   2.002   0.402  1.4959  0.6479 -1.0835
10186TIP3    H251974   6.286   1.871   0.434 -0.9242 -0.1198  1.2224
10187TIP3   OH251975   3.886   3.212   3.415 -0.2758  0.1385 -0.0916
10187TIP3    H151976   3.954   3.177   3.473 -1.0515  0.2295  0.8977
10187TIP3    H251977   3.889   3.157   3.338  0.4276 -0.3169  0.2540
10188TIP3   OH251978   2.272   6.641   1.139 -0.1638  0.4014  0.0710
10188TIP3    H151979   2.318   6.718   1.106 -1.0020  1.1630  0.6373
10188TIP3    H251980   2.325   6.567   1.110  0.8536  1.2066 -0.1699
10189TIP3   OH251981   3.482   4.857  16.611 -0.3153 -0.0484  0.1297
10189TIP3    H151982   3.461   4.897  16.527 -2.7980 -2.4781 -0.4540
10189TIP3    H251983   3.570   4.821  16.600 -1.2087 -1.6720 -1.9791
10190TIP3   OH251984   4.547   5.206  11.340 -0.1596 -0.1482 -0.4139
10190TIP3    H151985   4.587   5.123  11.365 -1.8833 -1.0875 -0.7198
10190TIP3    H251986   4.535   5.199  11.245 -0.1068  0.5343 -0.4710
10191TIP3   OH251987   0.045   4.577  15.030 -0.2149 -0.1043 -0.4125
10191TIP3    H151988   0.022   4.570  15.122  1.5622 -0.0918  0.0550
10191TIP3    H251989  -0.019   4.637  14.993 -1.2871 -0.5566  0.6851
10192TIP3   OH251990   3.042   2.694   6.275 -0.5029 -0.3979  0.4048
10192TIP3    H151991   3.010   2.658   6.192  0.0315 -3.9771  1.6828
10192TIP3    H251992   2.965   2.738   6.313 -0.8542  0.9119 -1.7420
10193TIP3   OH251993   1.301   2.267  15.747 -0.2179 -0.7445  0.0694
10193TIP3    H151994   1.321   2.360  15.739  0.4693 -0.9217 -0.3414
10193TIP3    H251995   1.220   2.255  15.697 -1.9862  0.1773  2.6502
10194TIP3   OH251996   1.235   3.782  12.105  1.0320 -0.5424  0.3270
10194TIP3    H151997   1.266   3.699  12.142  1.3909 -0.6637 -0.2349
10194TIP3    H251998   1.301   3.805  12.040  0.7168 -0.0251  0.1890
10195TIP3   OH251999   4.192   4.875   3.013 -0.3504 -0.0392  0.0515
10195TIP3    H152000   4.136   4.836   3.081 -2.3333  0.6242 -1.1685
10195TIP3    H252001   4.254   4.929   3.062  0.5527 -2.3649  1.5651
10196TIP3   OH252002   3.980   1.511  12.022 -0.2239 -0.4124 -0.4932
10196TIP3    H152003   3.913   1.458  11.980 -2.2300  0.5524  1.3651
10196TIP3    H252004   3.933   1.558  12.092  2.3020  0.6004  0.5875
10197TIP3   OH252005   6.356   0.524  15.846 -0.5411 -0.5002 -0.1122
10197TIP3    H152006   6.321   0.564  15.767 -1.5105  3.1976  2.0725
10197TIP3    H252007   6.321   0.435  15.845 -1.8428 -0.0192 -3.0100
10198TIP3   OH252008   2.129   0.757   3.069 -0.5680  0.4354  0.0635
10198TIP3    H152009   2.223   0.740   3.074 -0.6824  0.3991  2.8732
10198TIP3    H252010   2.114   0.785   2.979  2.0244 -0.2179 -0.5958
10199TIP3   OH252011   6.013   4.067   5.620 -0.1726 -0.2609  0.3006
10199TIP3    H152012   5.934   4.031   5.659  0.2000  0.1791  1.5016
10199TIP3    H252013   6.020   4.156   5.656  1.0379 -0.4114  0.4800
10200TIP3   OH252014   3.802   2.260  13.782 -0.0135 -0.0979  0.6434
10200TIP3    H152015   3.808   2.351  13.811  0.9266  0.2217 -0.5342
10200TIP3    H252016   3.768   2.213  13.858 -1.3557  1.3719  0.9834
10201TIP3   OH252017   1.347   3.739   5.942  0.1489 -0.0336  0.7077
10201TIP3    H152018   1.373   3.670   5.881  0.4049 -0.6991  1.5783
10201TIP3    H252019   1.425   3.794   5.950  0.0096  0.2485  0.1765
10202TIP3   OH252020   0.035   6.360  11.247  0.2731 -0.5021  0.2337
10202TIP3    H152021  -0.054   6.351  11.213  0.2562  0.0843  0.1178
10202TIP3    H252022   0.028   6.427  11.315  0.7206 -0.1053 -0.1114
10203TIP3   OH252023   1.263   1.935  15.082  0.3430  0.3506 -0.0273
10203TIP3    H152024   1.354   1.930  15.052  0.6856 -0.7973  1.1362
10203TIP3    H252025   1.233   1.845  15.082 -1.0295  0.7959 -1.0499
10204TIP3   OH252026   1.846   5.939  14.362 -0.2984 -0.0596 -0.1594
10204TIP3    H152027   1.759   5.901  14.351  0.3336 -1.1608 -1.5372
10204TIP3    H252028   1.884   5.892  14.437 -0.3559 -0.5927 -0.4619
10205TIP3   OH252029   0.308   5.994  13.965 -0.3267  0.4492 -0.2508
10205TIP3    H152030   0.355   5.953  14.038  0.5289  0.7264 -0.6298
10205TIP3    H252031   0.254   6.061  14.005 -0.1487  0.3462  0.1653
10206TIP3   OH252032   6.068   2.355  17.063  0.1632 -0.2712 -0.3429
10206TIP3    H152033   5.972   2.360  17.059  0.1602 -1.5692 -3.1800
10206TIP3    H252034   6.089   2.373  17.155 -2.7568  0.4831  0.2376
10207TIP3   OH252035   2.072   5.139   5.010  0.0258 -0.2098  0.2432
10207TIP3    H152036   2.075   5.052   4.971 -1.3279 -0.3580  0.4698
10207TIP3    H252037   2.025   5.127   5.093 -1.1273  0.9234 -0.2337
10208TIP3   OH252038   6.776   2.960  15.862  0.4689  0.0196 -0.4074
10208TIP3    H152039   6.712   2.998  15.802  0.0523 -1.9637 -1.2613
10208TIP3    H252040   6.746   2.870  15.874  2.4676 -0.5970  0.0942
10209TIP3   OH252041   4.271   1.304  11.479  0.3104 -0.6372  0.4630
10209TIP3    H152042   4.214   1.290  11.555 -0.7700  0.1438 -0.1887
10209TIP3    H252043   4.250   1.231  11.420 -0.3609 -0.0831  0.0158
10210TIP3   OH252044   1.959   3.380   2.864  0.4974  0.3614  0.4120
10210TIP3    H152045   2.042   3.403   2.905  1.2441  0.7914 -1.2653
10210TIP3    H252046   1.981   3.306   2.808 -1.1854 -2.3444  3.2206
10211TIP3   OH252047   3.207   1.795  15.812  0.2414  0.0602  0.6685
10211TIP3    H152048   3.257   1.809  15.893 -0.7480 -2.5344  1.7658
10211TIP3    H252049   3.274   1.786  15.744  1.0640  3.1573  0.9994
10212TIP3   OH252050   2.849   2.955   3.295  0.4625 -0.2990 -0.9904
10212TIP3    H152051   2.754   2.959   3.286  0.3502 -1.0815 -0.2446
10212TIP3    H252052   2.877   3.046   3.288 -0.4206  0.0299 -0.4393
10213TIP3   OH252053   5.007   5.301  11.804  0.2932 -0.0680  0.7377
10213TIP3    H152054   4.982   5.345  11.723 -0.5059 -0.2479  0.8904
10213TIP3    H252055   4.977   5.359  11.874  1.3162  0.2713  0.9124
10214TIP3   OH252056   3.350   5.675  11.112  0.7819  0.0325  0.2718
10214TIP3    H152057   3.332   5.687  11.205 -0.9151  0.7703 -0.1388
10214TIP3    H252058   3.429   5.728  11.096  0.2496  1.0521  0.9898
10215TIP3   OH252059   5.424   0.586   3.413  0.7337  0.2510  0.6643
10215TIP3    H152060   5.360   0.642   3.368  0.6942  0.1621  0.6096
10215TIP3    H252061   5.474   0.647   3.468  0.2285  0.2406  1.1358
10216TIP3   OH252062   1.398   1.916  10.827 -0.7778 -0.6546  0.0233
10216TIP3    H152063   1.327   1.967  10.866  0.6186 -0.5774  2.5878
10216TIP3    H252064   1.389   1.829  10.867  0.7714 -0.5385  0.6474
10217TIP3   OH252065   2.207   3.950  12.365 -0.4144  0.6317 -0.2989
10217TIP3    H152066   2.219   3.988  12.452  1.9283 -2.3641  0.7808
10217TIP3    H252067   2.283   3.980  12.315  0.0384 -0.3563 -0.2344
10218TIP3   OH252068   4.862   1.608   0.662  0.0647  0.1610  0.6013
10218TIP3    H152069   4.816   1.602   0.746  0.8121 -3.8272  0.8361
10218TIP3    H252070   4.792   1.604   0.596 -0.2233 -2.1419  1.0036
10219TIP3   OH252071   0.707   3.941  12.268  0.2928 -0.0499 -0.0506
10219TIP3    H152072   0.690   4.013  12.329 -2.1005  0.0516 -0.7945
10219TIP3    H252073   0.688   3.977  12.182  2.0170 -0.7071 -0.7359
10220TIP3   OH252074   5.044   0.337   1.121 -0.1720 -0.4335  1.2196
10220TIP3    H152075   5.013   0.370   1.037  1.4959 -3.5181 -0.7116
10220TIP3    H252076   5.012   0.400   1.186  0.0906  3.0161 -1.9029
10221TIP3   OH252077   0.960   1.073  13.315  0.1484 -0.0909  1.2440
10221TIP3    H152078   0.941   1.094  13.224 -1.0959  0.1219  1.5426
10221TIP3    H252079   0.966   1.158  13.358  3.0301 -0.0916  0.9394
10222TIP3   OH252080   0.069   0.070  15.697 -0.0397  0.4503 -0.0216
10222TIP3    H152081  -0.012   0.039  15.656 -1.0871  1.5770  1.1290
10222TIP3    H252082   0.061   0.042  15.788  1.1440  0.0861 -0.0188
10223TIP3   OH252083   6.701   0.328   0.156 -0.0211 -0.1337  0.0665
10223TIP3    H152084   6.778   0.362   0.112  0.1327  0.4453  0.7634
10223TIP3    H252085   6.691   0.384   0.233  0.1630 -1.5899  1.1792
10224TIP3   OH252086   6.101   5.078   3.410  0.4364  0.2868  0.4196
10224TIP3    H152087   6.009   5.102   3.402  0.3982  0.9462  2.5343
10224TIP3    H252088   6.141   5.111   3.329 -0.8889  1.3364  0.1657
10225TIP3   OH252089   2.171   0.691  14.132 -0.2911 -0.8147  0.3614
10225TIP3    H152090   2.125   0.708  14.214 -1.8481 -2.3776 -0.1520
10225TIP3    H252091   2.244   0.753  14.132 -2.4024  1.7701  1.2060
10226TIP3   OH252092   3.659   4.534   4.164 -0.0258 -0.2757 -0.4228
10226TIP3    H152093   3.610   4.493   4.093 -1.5641 -0.4854  0.7350
10226TIP3    H252094   3.660   4.627   4.142 -0.8451 -0.2865 -0.5352
10227TIP3   OH252095   4.315   3.736  16.458  0.0138  0.2101  0.0631
10227TIP3    H152096   4.396   3.736  16.407 -1.3257 -0.8104 -2.1394
10227TIP3    H252097   4.246   3.735  16.393 -1.7973  1.1724  1.9215
10228TIP3   OH252098   4.575   3.845  12.767  0.1814  0.4890 -0.0488
10228TIP3    H152099   4.606   3.901  12.839  0.5033  0.2355  0.0068
10228TIP3    H252100   4.539   3.907  12.703 -1.7369  0.6198  1.1171
10229TIP3   OH252101   1.846   5.613   4.294  0.1369  0.0400  0.3662
10229TIP3    H152102   1.913   5.553   4.327  1.6360 -0.3226 -3.0945
10229TIP3    H252103   1.764   5.581   4.332  1.3973 -1.9631  1.4751
10230TIP3   OH252104   0.856   6.186  12.857  0.0940 -0.0613 -0.4459
10230TIP3    H152105   0.866   6.243  12.781 -0.9835  0.3570 -0.2769
10230TIP3    H252106   0.763   6.162  12.858  0.0291  0.1962  0.9182
10231TIP3   OH252107   4.859   3.753  11.063  0.1887  0.7820  0.5466
10231TIP3    H152108   4.786   3.693  11.050 -1.0856  1.7597  2.8069
10231TIP3    H252109   4.907   3.752  10.980 -1.8215 -0.6263 -0.6290
10232TIP3   OH252110   3.930   1.224   3.609 -0.2498 -0.0541  0.3706
10232TIP3    H152111   3.842   1.253   3.634 -0.4909 -1.6323  1.4854
10232TIP3    H252112   3.973   1.205   3.693  0.8524 -0.1000 -0.2041
10233TIP3   OH252113   2.691   2.619  14.310  0.2904  0.3435  0.0595
10233TIP3    H152114   2.680   2.626  14.215 -0.8872  1.9107  0.2970
10233TIP3    H252115   2.603   2.634  14.346  1.2010  2.4062  1.5132
10234TIP3   OH252116   5.204   5.686   6.813  0.9873 -0.0334 -0.0898
10234TIP3    H152117   5.201   5.607   6.867 -0.4191  0.3501  0.4265
10234TIP3    H252118   5.296   5.709   6.809  1.2622 -0.9040  0.9537
10235TIP3   OH252119   3.138   5.902  17.102  0.4136  0.3305  0.1264
10235TIP3    H152120   3.177   5.889  17.188 -0.5126  2.6195  0.9463
10235TIP3    H252121   3.194   5.967  17.060  1.2226 -1.2380 -1.2760
10236TIP3   OH252122   5.874   2.678  16.157 -0.1374 -0.1609 -0.2527
10236TIP3    H152123   5.782   2.663  16.138 -0.4157  2.8909 -1.6684
10236TIP3    H252124   5.917   2.676  16.071  0.8954 -0.2682  0.2569
10237TIP3   OH252125   4.532   2.528  15.840  0.5506  0.0668  0.3891
10237TIP3    H152126   4.574   2.499  15.920 -0.1477  0.2128  0.8076
10237TIP3    H252127   4.570   2.614  15.822  1.9996 -0.7255 -0.3988
10238TIP3   OH252128   3.307   3.362   0.338  0.5709  1.0612 -0.5331
10238TIP3    H152129   3.310   3.442   0.391 -0.5177  2.3595 -2.3460
10238TIP3    H252130   3.238   3.378   0.274  0.8930 -1.0168 -1.4616
10239TIP3   OH252131   4.888   4.255  15.656 -0.0284  0.3282  0.1677
10239TIP3    H152132   4.851   4.315  15.591 -1.4826  0.2379  0.8755
10239TIP3    H252133   4.815   4.197  15.678  0.1880  0.8895  2.4992
10240TIP3   OH252134   4.684   2.447  16.863 -0.0546  0.5104  0.1018
10240TIP3    H152135   4.643   2.529  16.835 -2.0785 -0.5760 -0.1685
10240TIP3    H252136   4.709   2.404  16.782 -4.2219 -1.7646 -0.1114
10241TIP3   OH252137   6.103   0.863  16.920 -0.7798 -0.0695 -0.1026
10241TIP3    H152138   6.044   0.803  16.873 -0.5955 -2.6405  2.7629
10241TIP3    H252139   6.188   0.849  16.879 -1.1872  0.0454 -1.0253
10242TIP3   OH252140   0.970   1.228  11.305  0.4190 -0.2405  0.0235
10242TIP3    H152141   0.988   1.316  11.336 -0.4473 -0.3395  0.8320
10242TIP3    H252142   1.046   1.176  11.333  1.0615  0.2954 -0.7069
10243TIP3   OH252143   5.436   3.362   3.437 -0.6224 -0.3315  0.1647
10243TIP3    H152144   5.514   3.377   3.491 -1.8732  1.7652  1.4909
10243TIP3    H252145   5.468   3.360   3.347  0.8497  1.4493  0.6249
10244TIP3   OH252146   6.406   1.033  10.377  0.4628 -0.3462 -0.2930
10244TIP3    H152147   6.453   1.106  10.337  1.1826 -1.2354 -1.0752
10244TIP3    H252148   6.346   1.003  10.309  1.8216 -1.9849 -0.7967
10245TIP3   OH252149   5.006   2.438   3.790 -0.7378 -0.0232 -0.2346
10245TIP3    H152150   4.979   2.436   3.699  1.0488 -0.5687 -0.7719
10245TIP3    H252151   5.070   2.509   3.795 -0.8369  0.0119  0.5879
10246TIP3   OH252152   6.292   3.566   3.550  0.5575  0.1586  0.1979
10246TIP3    H152153   6.264   3.576   3.458  0.1383 -3.3975 -0.1120
10246TIP3    H252154   6.359   3.498   3.548  0.3142 -0.1973  2.5841
10247TIP3   OH252155   3.559   1.452   2.314 -0.0996  0.1016  0.0873
10247TIP3    H152156   3.639   1.427   2.359 -0.0842  1.3562  0.7754
10247TIP3    H252157   3.527   1.371   2.275  2.2841 -0.1665 -1.4518
10248TIP3   OH252158   5.805   5.372  14.522 -0.3673  0.1654  0.1762
10248TIP3    H152159   5.719   5.336  14.545 -1.1583  1.5105 -0.6063
10248TIP3    H252160   5.788   5.428  14.446  1.0984  0.9018  0.3776
10249TIP3   OH252161   6.022   4.994   2.733 -0.1792 -0.6298  0.4871
10249TIP3    H152162   6.050   4.917   2.684 -0.3757 -1.0039  0.9549
10249TIP3    H252163   5.933   5.012   2.701  0.2428 -0.0072 -0.3259
10250TIP3   OH252164   1.043   6.270   2.147  0.0737  0.2558  0.2962
10250TIP3    H152165   1.015   6.260   2.056  1.7734  0.5532 -0.2746
10250TIP3    H252166   0.989   6.207   2.195 -0.8440  0.0950 -0.9092
10251TIP3   OH252167   2.571   1.427  12.832 -0.5464  0.3294 -0.1506
10251TIP3    H152168   2.483   1.421  12.795  0.0195 -1.3453 -1.3107
10251TIP3    H252169   2.567   1.373  12.911 -0.7605  0.8507  0.1923
10252TIP3   OH252170   2.402   3.282  16.787  0.0236  0.3170 -0.2224
10252TIP3    H152171   2.389   3.337  16.864  0.4207  0.7365 -0.4556
10252TIP3    H252172   2.349   3.324  16.719  1.2914  1.1266 -0.7391
10253TIP3   OH252173   1.090   1.023  16.798  0.1252 -0.1175 -0.0223
10253TIP3    H152174   1.091   1.112  16.832  1.3487  1.4787 -3.9826
10253TIP3    H252175   1.001   1.010  16.766 -0.6010 -1.0936  2.2356
10254TIP3   OH252176   2.355   0.683  12.637 -0.5143  0.1403  0.4618
10254TIP3    H152177   2.317   0.663  12.723  1.7681  0.4464  1.5971
10254TIP3    H252178   2.421   0.614  12.624  0.1099  0.8916 -0.3984
10255TIP3   OH252179   2.054   2.475   1.735  0.0576  0.0474  1.3845
10255TIP3    H152180   2.127   2.471   1.674 -0.7720 -0.8356  0.4428
10255TIP3    H252181   1.984   2.518   1.686 -0.1248  0.7333  2.2233
10256TIP3   OH252182   6.525   3.693   2.456  0.6256 -0.2250 -0.0693
10256TIP3    H152183   6.502   3.655   2.371 -0.3661  1.7441 -0.6923
10256TIP3    H252184   6.596   3.754   2.436 -0.2377  0.9300  0.3747
10257TIP3   OH252185   0.666   4.832   3.369 -0.4808 -0.3008 -0.0605
10257TIP3    H152186   0.646   4.854   3.460  0.7202  0.4732  0.0341
10257TIP3    H252187   0.592   4.780   3.340 -1.1847 -0.0064  1.1664
10258TIP3   OH252188   0.686   6.010   2.898 -0.1128  0.3623  0.1574
10258TIP3    H152189   0.692   5.950   2.972  0.9856  0.3007  0.0289
10258TIP3    H252190   0.671   6.096   2.937 -0.0813  0.2481  0.4185
10259TIP3   OH252191   0.238   0.793  10.170  0.2731  0.5039 -0.6041
10259TIP3    H152192   0.182   0.847  10.113 -1.3617 -1.1896 -0.6525
10259TIP3    H252193   0.196   0.797  10.256  1.1553  0.7474 -0.1751
10260TIP3   OH252194   2.448   4.157  17.217 -0.7393 -0.2313  0.6633
10260TIP3    H152195   2.373   4.213  17.238  0.6526  1.6312  0.7413
10260TIP3    H252196   2.518   4.188  17.274  0.2594 -1.6127  0.2169
10261TIP3   OH252197   3.038   2.343   1.691 -0.1032  0.3088  0.0106
10261TIP3    H152198   3.074   2.422   1.732 -0.8311  0.7156 -0.1283
10261TIP3    H252199   3.108   2.312   1.633  1.1848 -0.6104  1.9687
10262TIP3   OH252200   3.503   2.652  14.411 -0.2993  0.4771  0.4551
10262TIP3    H152201   3.409   2.643  14.396 -0.5498  3.1156  0.0969
10262TIP3    H252202   3.543   2.613  14.334 -1.1379  0.1135  0.1943
10263TIP3   OH252203   2.085   3.934   6.185 -0.4463  0.3141  0.0812
10263TIP3    H152204   2.140   3.976   6.251 -1.0309  0.8302  0.2418
10263TIP3    H252205   2.089   3.841   6.207 -1.9264  0.6351  1.8397
10264TIP3   OH252206   5.951   5.198  12.926  0.0671 -0.1968 -0.2103
10264TIP3    H152207   5.885   5.158  12.869 -1.5614 -0.3645  1.7279
10264TIP3    H252208   5.929   5.291  12.928 -1.4554 -0.5774  2.1261
10265TIP3   OH252209   4.516   5.683  14.610  0.3506 -0.0393  0.1466
10265TIP3    H152210   4.468   5.745  14.665  0.1201 -0.2636  0.2006
10265TIP3    H252211   4.575   5.737  14.559 -0.3838  0.3039 -0.3542
10266TIP3   OH252212   2.684   5.996   3.424 -0.6259  0.5714 -0.2698
10266TIP3    H152213   2.762   5.950   3.392 -0.5069  1.3666 -1.1455
10266TIP3    H252214   2.648   5.938   3.491  0.9284  0.3597  0.4195
10267TIP3   OH252215   2.356   3.824  13.247 -0.3708 -0.5675  0.0809
10267TIP3    H152216   2.440   3.834  13.291 -1.0856  2.2039  0.8998
10267TIP3    H252217   2.313   3.752  13.293  0.1785  0.2297  1.8520
10268TIP3   OH252218   0.743   1.627   4.115 -0.0017 -0.2950  0.4884
10268TIP3    H152219   0.800   1.702   4.101  0.3304 -0.8523 -1.1549
10268TIP3    H252220   0.791   1.572   4.176  1.3433 -0.8855 -1.0860
10269TIP3   OH252221   3.930   4.590   5.485 -0.8286 -0.1709 -0.1623
10269TIP3    H152222   4.025   4.576   5.482 -0.9867 -1.0699 -1.6498
10269TIP3    H252223   3.917   4.674   5.441 -0.4624  1.5227  2.8729
10270TIP3   OH252224   5.032   5.091  10.858  0.4332  0.0849  0.0287
10270TIP3    H152225   5.030   5.161  10.923  0.8938 -0.5126  0.6923
10270TIP3    H252226   5.114   5.106  10.811  1.1184 -0.7020  0.9522
10271TIP3   OH252227   4.713   1.236   0.559 -0.6493 -0.4273 -0.2942
10271TIP3    H152228   4.676   1.167   0.615 -1.1858  0.0489 -0.0525
10271TIP3    H252229   4.681   1.317   0.598 -0.4438 -0.0637 -0.8825
10272TIP3   OH252230   1.531   4.649   3.439 -0.5206 -0.5329 -0.2433
10272TIP3    H152231   1.545   4.610   3.353  1.8844 -1.3213  0.4860
10272TIP3    H252232   1.581   4.731   3.437 -0.9348 -0.2639  0.2293
10273TIP3   OH252233   5.627   0.741   4.262 -0.1005 -0.5001 -0.1500
10273TIP3    H152234   5.575   0.684   4.204 -0.9946  1.7558 -1.6321
10273TIP3    H252235   5.587   0.730   4.348 -0.0370 -2.3685 -0.3410
10274TIP3   OH252236   0.495   5.458   0.981 -0.4393 -0.0810  0.0060
10274TIP3    H152237   0.540   5.543   0.988  0.3215 -0.3029 -1.8228
10274TIP3    H252238   0.559   5.401   0.938 -1.4502 -1.1964 -0.0381
10275TIP3   OH252239   2.470   5.230  16.021  0.1033  0.5311 -0.0353
10275TIP3    H152240   2.455   5.325  16.014 -1.4549  0.2506 -0.7506
10275TIP3    H252241   2.563   5.220  16.004  0.4503  2.0165  0.8502
10276TIP3   OH252242   5.259   5.675   5.787 -0.3519 -0.2680 -0.0292
10276TIP3    H152243   5.296   5.759   5.762  0.4272 -0.9455 -1.2079
10276TIP3    H252244   5.166   5.693   5.802 -0.1097  0.8751  0.1249
10277TIP3   OH252245   1.336   5.266   5.085  0.2475  0.4902  0.0494
10277TIP3    H152246   1.376   5.334   5.139 -0.4248  1.6868 -0.9348
10277TIP3    H252247   1.243   5.269   5.107 -0.2102  1.7086 -1.8946
10278TIP3   OH252248   2.376   1.074   0.963 -0.4150 -0.1409  0.3031
10278TIP3    H152249   2.435   0.999   0.955  0.2160  0.4558 -0.7638
10278TIP3    H252250   2.354   1.097   0.873 -0.5260  1.0206  0.6235
10279TIP3   OH252251   6.736   2.164   4.950  0.3041 -0.0301 -0.1803
10279TIP3    H152252   6.643   2.172   4.973  0.6917  0.5890  1.1951
10279TIP3    H252253   6.780   2.226   5.008  1.3465  1.2703 -2.3311
10280TIP3   OH252254   4.301   0.019  15.775  0.0864  0.7773  0.4128
10280TIP3    H152255   4.337   0.098  15.734 -0.7990 -0.0915 -2.1562
10280TIP3    H252256   4.207   0.026  15.761  0.1050 -1.2540 -0.8223
10281TIP3   OH252257   0.953   4.607  14.141 -0.4535  0.2076  0.5947
10281TIP3    H152258   0.951   4.703  14.134  0.1111  0.1722 -0.2363
10281TIP3    H252259   0.865   4.580  14.115 -0.4453  0.4732  0.2792
10282TIP3   OH252260   2.793   1.432   1.493 -0.0426  0.0255  0.3684
10282TIP3    H152261   2.776   1.359   1.551 -0.5002 -0.7221 -0.6859
10282TIP3    H252262   2.887   1.429   1.477 -0.0987 -0.4864  0.1300
10283TIP3   OH252263   2.102   4.893  11.183 -0.5578  0.2919  0.2442
10283TIP3    H152264   2.134   4.965  11.237 -1.2073  1.3469 -0.7399
10283TIP3    H252265   2.034   4.933  11.128 -0.9984 -1.0968 -0.2430
10284TIP3   OH252266   3.381   5.427   0.143 -0.1617 -0.0184  0.4039
10284TIP3    H152267   3.365   5.413   0.237  0.0674  1.0429  0.6076
10284TIP3    H252268   3.394   5.339   0.108 -0.9635 -0.4771  1.2390
10285TIP3   OH252269   2.115   4.419  13.534  0.3003  0.1903 -0.1062
10285TIP3    H152270   2.166   4.420  13.615  0.1439  0.2975 -0.0094
10285TIP3    H252271   2.159   4.354  13.479 -0.5448 -1.0359  0.6625
10286TIP3   OH252272   6.104   0.728  10.284  0.0355  0.2842 -0.2269
10286TIP3    H152273   6.163   0.722  10.359 -0.6955  1.5274  0.4880
10286TIP3    H252274   6.077   0.638  10.267  1.7140 -0.2282 -0.2258
10287TIP3   OH252275   2.652   5.409  13.673 -0.0546 -0.2521  0.4295
10287TIP3    H152276   2.598   5.344  13.627 -2.2308  0.6428  1.6554
10287TIP3    H252277   2.625   5.493  13.636  2.1915  0.0352 -0.5888
10288TIP3   OH252278   4.613   5.515   0.183  0.1511 -0.0344  0.2230
10288TIP3    H152279   4.640   5.564   0.260  0.7290 -0.2178  0.1463
10288TIP3    H252280   4.576   5.581   0.124 -0.3667  0.0901  0.6871
10289TIP3   OH252281   4.036   5.640   0.144 -0.2388  0.7162  0.3055
10289TIP3    H152282   4.070   5.551   0.143 -1.9033  0.0484  1.1713
10289TIP3    H252283   4.108   5.693   0.179  1.1984 -0.0700 -1.4392
10290TIP3   OH252284   1.803   6.308   4.545 -0.3823 -0.4583  0.2697
10290TIP3    H152285   1.772   6.328   4.456  0.0752 -0.2337  0.1569
10290TIP3    H252286   1.891   6.272   4.532 -0.5229 -0.9262  0.5987
10291TIP3   OH252287   1.887   6.757   2.081 -0.1578 -0.5837  0.0615
10291TIP3    H152288   1.799   6.738   2.113  0.2366 -2.0971  0.2790
10291TIP3    H252289   1.919   6.825   2.140 -0.8338 -0.6762  0.5498
10292TIP3   OH252290   6.447   1.068   5.396 -0.1718 -1.0195  0.6379
10292TIP3    H152291   6.525   1.089   5.447 -0.0374 -1.5390  0.6456
10292TIP3    H252292   6.430   0.976   5.413 -0.9091 -0.8627  0.8002
10293TIP3   OH252293   2.502   3.730   4.574 -0.0420  0.3028  0.1397
10293TIP3    H152294   2.443   3.750   4.501  1.3967  2.6251 -0.4223
10293TIP3    H252295   2.561   3.663   4.540 -1.6385 -1.2653  0.3663
10294TIP3   OH252296   5.856   4.344   4.991  0.4203  0.1037 -0.5201
10294TIP3    H152297   5.783   4.339   5.053  1.3929 -0.1409  0.6347
10294TIP3    H252298   5.850   4.263   4.940  0.0722 -0.0647 -0.2182
10295TIP3   OH252299   1.196   6.316  13.514  0.0922  0.3860  0.0561
10295TIP3    H152300   1.169   6.288  13.426 -0.0850 -1.9178  0.7865
10295TIP3    H252301   1.121   6.295  13.569  0.7267  0.5172  0.9779
10296TIP3   OH252302   4.462   3.936   4.939 -0.1306  0.0134 -0.1995
10296TIP3    H152303   4.504   4.009   4.894  0.6087 -0.9033 -1.0149
10296TIP3    H252304   4.515   3.924   5.018  2.6369 -2.6287 -2.3397
10297TIP3   OH252305   1.232   1.444   0.483 -0.1122 -0.0515 -0.4718
10297TIP3    H152306   1.320   1.436   0.447 -0.3773 -0.2220 -1.1021
10297TIP3    H252307   1.235   1.394   0.565  0.8334  1.3593  0.3795
10298TIP3   OH252308   1.983   3.035   5.455 -0.3055  0.0941  0.3937
10298TIP3    H152309   1.940   2.949   5.455  0.1184 -0.1872 -3.3292
10298TIP3    H252310   1.916   3.095   5.489 -0.6934 -1.6115  2.7523
10299TIP3   OH252311   6.457   2.675  15.314 -0.2673 -0.6001 -0.1462
10299TIP3    H152312   6.511   2.712  15.244 -0.6245 -0.6001 -0.4246
10299TIP3    H252313   6.371   2.662  15.274 -1.0329  1.2616  0.8348
10300TIP3   OH252314   2.307   5.156  13.317  0.2500  0.1280  0.5199
10300TIP3    H152315   2.279   5.069  13.290  0.3148  0.2434  0.0829
10300TIP3    H252316   2.267   5.215  13.253  0.3619  0.4034  0.7031
10301TIP3   OH252317   4.572   5.740   5.976  0.3047 -0.0167  0.6922
10301TIP3    H152318   4.554   5.719   6.068  0.3052  1.3723  1.0248
10301TIP3    H252319   4.496   5.707   5.928 -1.0630  1.7964  1.5480
10302TIP3   OH252320   4.873   5.209   5.504 -0.3178 -0.1630 -0.0011
10302TIP3    H152321   4.865   5.149   5.430  1.4892 -2.1332  1.3201
10302TIP3    H252322   4.953   5.258   5.487 -1.0419  0.8890 -0.3901
10303TIP3   OH252323   1.734   5.969  16.585 -0.6951 -0.0145  0.1771
10303TIP3    H152324   1.805   6.033  16.587 -1.4156  0.8010  0.0177
10303TIP3    H252325   1.763   5.899  16.644  0.4750  0.0468 -0.3165
10304TIP3   OH252326   1.153   5.150  12.971 -0.4330 -0.1548  0.7249
10304TIP3    H152327   1.156   5.061  12.937 -1.2372 -0.2120  0.7899
10304TIP3    H252328   1.114   5.142  13.057 -1.9244  0.4279  0.1256
10305TIP3   OH252329   4.426   3.743   1.715 -0.1177  0.2160  0.0719
10305TIP3    H152330   4.466   3.787   1.641  2.4931  1.8353  2.3478
10305TIP3    H252331   4.355   3.800   1.743 -0.3850  0.1503 -0.4673
10306TIP3   OH252332   2.679   5.797   5.423 -0.8214  0.2966  0.0230
10306TIP3    H152333   2.740   5.777   5.352  2.1062  0.1408  2.4459
10306TIP3    H252334   2.638   5.714   5.444 -0.7193  0.0857 -0.6117
10307TIP3   OH252335   5.754   0.029   4.917 -0.3107  0.2437 -0.2528
10307TIP3    H152336   5.678  -0.027   4.937 -0.8537  1.1955  0.4132
10307TIP3    H252337   5.716   0.113   4.892  0.5267  0.7570  0.1753
10308TIP3   OH252338   2.705   4.665   3.902 -0.0150  0.1593 -0.3636
10308TIP3    H152339   2.741   4.669   3.990  0.6327 -0.8561 -0.5711
10308TIP3    H252340   2.741   4.585   3.865 -1.0169  0.0997 -1.2347
10309TIP3   OH252341   5.750   4.939  15.814  0.2069  0.8041  0.5244
10309TIP3    H152342   5.704   5.003  15.868 -0.9531  0.5933 -0.1948
10309TIP3    H252343   5.681   4.880  15.784  1.2172 -0.6416  0.9730
10310TIP3   OH252344   1.517   3.660  15.410  0.1535 -0.6954  0.6766
10310TIP3    H152345   1.469   3.629  15.333 -1.9807 -1.5095  2.2977
10310TIP3    H252346   1.595   3.703  15.374 -0.6996 -1.2468 -1.9168
10311TIP3   OH252347   5.287   5.615  12.069  0.3490 -0.0647 -0.0517
10311TIP3    H152348   5.293   5.666  12.150 -0.4233 -2.6492  1.6820
10311TIP3    H252349   5.196   5.626  12.041  0.1653 -0.5170  0.3550
10312TIP3   OH252350   5.951   1.966   3.658 -0.5295 -0.3985  0.4490
10312TIP3    H152351   6.020   2.032   3.655 -0.9272 -0.0085 -0.5106
10312TIP3    H252352   5.873   2.015   3.687 -0.7790 -0.4878 -0.0753
10313TIP3   OH252353   6.408   1.822  14.746  0.4996  0.0596  0.2929
10313TIP3    H152354   6.397   1.889  14.813  1.4254  1.4560 -0.9316
10313TIP3    H252355   6.403   1.870  14.663  0.5038 -1.4785 -0.6105
10314TIP3   OH252356   6.075   4.724  13.249  0.3716 -0.3709  0.2255
10314TIP3    H152357   6.076   4.814  13.217 -0.9013  0.7131  3.0962
10314TIP3    H252358   6.165   4.708  13.278  0.9924 -0.6073 -1.7995
10315TIP3   OH252359   0.549   2.477  13.744 -0.0339  0.6348  0.0009
10315TIP3    H152360   0.493   2.549  13.715  0.8738  0.7807 -1.4679
10315TIP3    H252361   0.500   2.434  13.814 -1.6040  1.2380 -0.7233
10316TIP3   OH252362   2.949   6.000  15.373 -0.3342  0.7135  0.0568
10316TIP3    H152363   3.008   5.929  15.399 -0.9301 -0.2433 -1.1482
10316TIP3    H252364   2.906   6.027  15.454 -0.4005 -0.5885  0.4680
10317TIP3   OH252365   5.913   5.599   0.953  0.1818  0.4054  0.2943
10317TIP3    H152366   5.944   5.682   0.918  2.0721 -0.7054 -0.7730
10317TIP3    H252367   5.991   5.557   0.989 -0.7132 -0.9771  0.6881
10318TIP3   OH252368   4.431   4.210  15.491  0.2431  0.3111  0.3984
10318TIP3    H152369   4.448   4.193  15.399 -1.4201 -2.0148  0.4714
10318TIP3    H252370   4.335   4.212  15.498  0.3478  0.7825  2.0085
10319TIP3   OH252371   2.912   3.435   3.503  0.5750  0.3319  0.8064
10319TIP3    H152372   2.968   3.384   3.562  3.7945 -0.3600 -2.6877
10319TIP3    H252373   2.848   3.372   3.470  1.7556 -0.4487 -0.0484
10320TIP3   OH252374   4.529   0.316   3.401 -0.2287  0.0862  0.2759
10320TIP3    H152375   4.620   0.342   3.419 -0.0397 -0.1228 -0.3582
10320TIP3    H252376   4.524   0.225   3.430  0.0103 -0.1748 -0.4625
10321TIP3   OH252377   5.251   2.825   3.545  0.1265 -0.5660  0.1631
10321TIP3    H152378   5.291   2.792   3.464  1.4018 -1.2100  1.0452
10321TIP3    H252379   5.306   2.898   3.571  0.9633 -1.6893  1.5796
10322TIP3   OH252380   5.883   0.759  10.730 -0.1266  0.5319 -0.5951
10322TIP3    H152381   5.795   0.792  10.750 -0.1113  1.2615 -1.6674
10322TIP3    H252382   5.941   0.808  10.787 -0.5607 -1.0937  1.2712
10323TIP3   OH252383   3.492   0.389   5.507 -0.3351 -0.7085  0.0904
10323TIP3    H152384   3.399   0.396   5.484 -0.2646 -0.9963 -0.2713
10323TIP3    H252385   3.508   0.466   5.563 -1.5105 -2.1858  2.5599
10324TIP3   OH252386   0.140   1.338  15.299 -0.0672 -0.0064  0.0095
10324TIP3    H152387   0.166   1.309  15.386  1.0525  3.3520  0.8737
10324TIP3    H252388   0.046   1.319  15.295  0.2468 -1.9331  1.1984
10325TIP3   OH252389   1.543   5.478   6.412  0.2067  0.2830  0.1318
10325TIP3    H152390   1.553   5.559   6.463  1.8806  0.2512 -0.0961
10325TIP3    H252391   1.516   5.508   6.325  0.1629  0.5628  0.2403
10326TIP3   OH252392   2.082   5.489   5.654 -0.3186 -0.2540 -0.3314
10326TIP3    H152393   2.032   5.519   5.731  0.8046  0.7731  0.0196
10326TIP3    H252394   2.141   5.422   5.689  1.9417  1.9331  0.2473
10327TIP3   OH252395   1.167   4.003   1.475 -0.1638 -0.6450 -0.2069
10327TIP3    H152396   1.153   3.916   1.511 -0.3408  0.0143  1.3745
10327TIP3    H252397   1.130   3.999   1.387  1.1907 -2.5833 -0.7008
10328TIP3   OH252398   2.876   6.315  14.337  0.3289 -0.3559  0.1006
10328TIP3    H152399   2.839   6.261  14.267 -0.1456  0.6800 -0.4483
10328TIP3    H252400   2.802   6.339  14.392  0.2611  1.1720 -0.6290
10329TIP3   OH252401   6.654   2.397  16.300 -0.1089 -0.1820 -0.6042
10329TIP3    H152402   6.582   2.445  16.259 -2.2074 -0.2448  2.8044
10329TIP3    H252403   6.711   2.465  16.336 -0.8228 -0.1515  0.5034
10330TIP3   OH252404   4.275   3.726  13.619 -0.1023  0.2610  0.4560
10330TIP3    H152405   4.363   3.708  13.653  0.0806 -0.4110 -0.3699
10330TIP3    H252406   4.229   3.766  13.693  1.6584  2.9813  0.1729
10331TIP3   OH252407   0.426   5.529   6.148  0.0940 -0.0429 -0.2091
10331TIP3    H152408   0.363   5.467   6.112 -0.3335  0.5767 -0.5326
10331TIP3    H252409   0.387   5.559   6.230  0.4977 -0.5226  0.1601
10332TIP3   OH252410   3.498   4.434  12.267  0.4513 -0.0893 -0.3750
10332TIP3    H152411   3.551   4.451  12.189  0.8045 -0.5378 -0.2337
10332TIP3    H252412   3.507   4.340  12.282 -0.8549 -0.2663 -0.6846
10333TIP3   OH252413   1.161   4.661  12.709 -0.6478 -0.3000  0.3737
10333TIP3    H152414   1.196   4.581  12.747 -1.0941  0.3981  2.3316
10333TIP3    H252415   1.218   4.679  12.634  2.3462 -0.0058  2.5732
10334TIP3   OH252416   2.756   2.230  12.352  0.0431 -0.2904 -0.3364
10334TIP3    H152417   2.777   2.214  12.260  1.6296 -1.0372  0.1359
10334TIP3    H252418   2.839   2.217  12.398 -0.3702  1.6223  1.0153
10335TIP3   OH252419   2.776   0.719   0.722  0.4310  0.0571  0.4005
10335TIP3    H152420   2.772   0.673   0.638  2.5105 -2.0107  1.3835
10335TIP3    H252421   2.702   0.684   0.772  0.6375 -0.5326  0.3006
10336TIP3   OH252422   1.887   2.288  16.099 -0.1140 -0.0006  0.0071
10336TIP3    H152423   1.936   2.331  16.170  2.6660  0.3500 -2.0341
10336TIP3    H252424   1.902   2.195  16.112  2.3606  0.1621 -1.4229
10337TIP3   OH252425   2.436   3.949   4.340 -1.0493 -0.0505 -0.0594
10337TIP3    H152426   2.389   3.869   4.364  0.2416 -0.9434 -0.4134
10337TIP3    H252427   2.404   3.971   4.253 -2.1031  0.3644  0.4286
10338TIP3   OH252428   0.236   6.302   2.559 -0.0735  0.0385 -0.0497
10338TIP3    H152429   0.317   6.343   2.530  0.1251 -0.1422  0.2543
10338TIP3    H252430   0.178   6.376   2.580 -0.4965  0.1810 -1.6614
10339TIP3   OH252431   3.811   5.767  15.385  0.0012  0.1538  0.2484
10339TIP3    H152432   3.762   5.815  15.452  1.1705  3.0546 -0.8708
10339TIP3    H252433   3.755   5.770  15.308  0.3276  0.2278  0.0118
10340TIP3   OH252434   0.586   2.707   2.267  0.2689 -0.0027 -0.3406
10340TIP3    H152435   0.522   2.671   2.329 -0.6945  1.5326 -0.4241
10340TIP3    H252436   0.665   2.654   2.282 -0.2546 -0.3237  1.5010
10341TIP3   OH252437   1.236   4.282   5.661 -0.7034  0.2648  0.2542
10341TIP3    H152438   1.276   4.352   5.608 -0.4484  1.1186  1.5409
10341TIP3    H252439   1.148   4.314   5.679 -1.1285 -0.4767 -0.4722
10342TIP3   OH252440   0.578   4.407   5.268 -0.4269 -0.3990  0.5723
10342TIP3    H152441   0.657   4.364   5.300 -0.3111  1.4030  2.8525
10342TIP3    H252442   0.602   4.444   5.183  0.3846 -2.1129  0.0538
10343TIP3   OH252443   0.157   6.302   2.863 -0.5926 -0.1930 -1.1417
10343TIP3    H152444   0.226   6.238   2.881  0.9806  1.8984  0.7154
10343TIP3    H252445   0.193   6.357   2.793  0.0781  1.4767  0.4726
10344TIP3   OH252446   1.806   1.215  14.284  0.1968 -0.1043  0.0795
10344TIP3    H152447   1.861   1.269  14.342  0.9395 -0.8690  0.0886
10344TIP3    H252448   1.717   1.237  14.310  0.5197 -1.1488  2.1773
10345TIP3   OH252449   3.027   1.576   1.042  0.0004 -0.1796 -0.0946
10345TIP3    H152450   3.052   1.612   1.127 -1.6249 -0.0711  0.3716
10345TIP3    H252451   2.983   1.648   0.997 -0.2762 -0.6042 -0.5188
10346TIP3   OH252452   2.047   3.183   0.743 -0.4719  0.9753  0.1009
10346TIP3    H152453   2.052   3.218   0.832 -0.1330  2.3931 -0.4714
10346TIP3    H252454   1.994   3.247   0.695 -1.9342 -0.5333 -0.3601
10347TIP3   OH252455   3.853   4.745   3.009 -0.2575 -0.1731 -0.4418
10347TIP3    H152456   3.928   4.747   3.069  0.0851 -1.8115 -0.7820
10347TIP3    H252457   3.779   4.775   3.062  0.1554 -1.0320  0.6379
10348TIP3   OH252458   0.358   1.523  12.422  0.0500  0.3004 -0.1231
10348TIP3    H152459   0.339   1.555  12.510 -0.1514  0.3583 -0.1890
10348TIP3    H252460   0.414   1.447  12.436 -0.7543 -0.2526  0.0900
10349TIP3   OH252461   2.120   1.706   3.007  0.0987  0.3942 -0.1680
10349TIP3    H152462   2.067   1.675   3.081  1.7745 -1.2534  0.3851
10349TIP3    H252463   2.118   1.802   3.015 -0.6363  0.2714  1.3723
10350TIP3   OH252464   0.220   2.639   0.021 -0.4386 -0.1303 -0.1901
10350TIP3    H152465   0.283   2.704  -0.009  0.4297 -0.0007  1.8422
10350TIP3    H252466   0.239   2.561  -0.031  1.5059 -0.1365  0.5063
10351TIP3   OH252467   5.097   4.134  16.070 -0.6781 -0.5278 -0.3645
10351TIP3    H152468   5.080   4.137  16.164 -0.3826 -1.4967 -0.2812
10351TIP3    H252469   5.192   4.122  16.064 -0.5403  0.7165 -0.7992
10352TIP3   OH252470   4.119   0.072   1.975  0.1260 -0.2505 -0.3854
10352TIP3    H152471   4.142  -0.002   1.919 -1.4723  0.7409 -2.4319
10352TIP3    H252472   4.110   0.035   2.063 -0.1429 -2.3771 -1.2947
10353TIP3   OH252473   5.444   3.386   0.789  0.4146 -0.4932 -0.3094
10353TIP3    H152474   5.397   3.452   0.738 -0.8125 -1.8499 -0.9670
10353TIP3    H252475   5.388   3.371   0.865  0.5668 -0.9586 -0.2906
10354TIP3   OH252476   6.189   6.583  14.338 -0.1921 -0.2840 -0.0044
10354TIP3    H152477   6.161   6.577  14.247  0.4497  0.1819 -0.2389
10354TIP3    H252478   6.256   6.651  14.338  0.4972 -0.9448  0.6399
10355TIP3   OH252479   2.127   1.118  12.243 -0.0034  0.0234 -0.7591
10355TIP3    H152480   2.189   1.170  12.191  1.1189  0.5323  1.0355
10355TIP3    H252481   2.064   1.182  12.276  0.2859 -0.0234 -0.1010
10356TIP3   OH252482   1.212   3.232   3.145  0.8023  0.0412 -0.0425
10356TIP3    H152483   1.128   3.187   3.150  0.0122  1.4769 -0.2026
10356TIP3    H252484   1.261   3.185   3.077 -0.4418  0.1361 -1.0132
10357TIP3   OH252485   1.357   6.197  16.061  0.0044 -0.0964  0.4300
10357TIP3    H152486   1.337   6.273  16.116  0.9054  2.0921 -2.1506
10357TIP3    H252487   1.277   6.181  16.011  0.2934  0.1183 -0.1090
10358TIP3   OH252488   1.835   2.612   2.765 -0.1740 -0.7537 -0.3887
10358TIP3    H152489   1.897   2.659   2.822 -0.2856 -0.2438 -0.6825
10358TIP3    H252490   1.887   2.542   2.725  0.0532 -0.7313 -0.1328
10359TIP3   OH252491   0.402   6.394   0.403  0.4747  0.0152  0.4439
10359TIP3    H152492   0.370   6.475   0.442  0.0259  0.2614 -0.4272
10359TIP3    H252493   0.362   6.391   0.316  0.3865 -1.1947  0.5099
10360TIP3   OH252494   1.146   3.899  14.232 -0.8193  0.0380 -0.0967
10360TIP3    H152495   1.122   3.948  14.311 -0.0945 -0.3338  0.3596
10360TIP3    H252496   1.094   3.819  14.237 -0.6491 -0.0608  0.0886
10361TIP3   OH252497   5.617   2.107   4.055  0.5936  0.6199  0.1968
10361TIP3    H152498   5.611   2.099   3.960  0.3673  0.4876  0.2205
10361TIP3    H252499   5.647   2.197   4.069 -0.9804  1.1982  0.0350
10362TIP3   OH252500   0.849   5.283   3.222  0.3203  0.1235  0.6538
10362TIP3    H152501   0.790   5.212   3.196  0.9673 -1.0863  2.4005
10362TIP3    H252502   0.937   5.248   3.209  0.6526  0.6285  1.4915
10363TIP3   OH252503   2.183   5.448   0.573  0.0413  0.3400 -0.5711
10363TIP3    H152504   2.221   5.425   0.657 -0.0376 -1.8370 -1.1021
10363TIP3    H252505   2.114   5.511   0.594  0.0095 -0.2121  0.9964
10364TIP3   OH252506   4.418   0.457   4.518 -0.1023 -0.0102 -0.5036
10364TIP3    H152507   4.493   0.492   4.469  2.1709 -1.5301  1.7482
10364TIP3    H252508   4.428   0.362   4.514  0.0313 -0.1926  2.6173
10365TIP3   OH252509   0.222   6.306   3.234  0.3373 -0.4286 -0.2100
10365TIP3    H152510   0.243   6.243   3.166  0.5957  0.3553 -0.8665
10365TIP3    H252511   0.127   6.302   3.243  0.2896 -0.4213 -0.7290
10366TIP3   OH252512   3.149   6.074   3.429 -0.3167 -0.0521  0.5339
10366TIP3    H152513   3.218   6.125   3.471  0.5847 -0.9573  0.1821
10366TIP3    H252514   3.189   5.988   3.414 -0.8813  0.0150 -1.4399
10367TIP3   OH252515   6.296   3.905  15.339  0.4796  0.2434  0.2913
10367TIP3    H152516   6.308   3.981  15.282 -0.8087 -0.1760 -0.5599
10367TIP3    H252517   6.206   3.912  15.370  0.3662 -0.8958  0.2519
10368TIP3   OH252518   2.362   6.255  12.606 -0.4114 -0.1711 -0.1620
10368TIP3    H152519   2.377   6.303  12.687  1.2429 -0.6120 -0.1700
10368TIP3    H252520   2.302   6.184  12.631 -1.3290  0.7541  0.2673
10369TIP3   OH252521   1.161   6.695   2.753  0.0173  0.2074 -0.0494
10369TIP3    H152522   1.183   6.788   2.745 -0.8085  0.4113  0.0944
10369TIP3    H252523   1.148   6.666   2.663  1.1698  0.0088 -0.1655
10370TIP3   OH252524   0.727   4.103  14.756  0.2669 -0.1559 -0.4509
10370TIP3    H152525   0.669   4.028  14.767  0.4574 -0.0151  1.8241
10370TIP3    H252526   0.695   4.147  14.678  0.4558 -2.8607 -2.1118
10371TIP3   OH252527   3.727   0.282  15.632  0.3641 -0.4629 -0.2108
10371TIP3    H152528   3.772   0.357  15.593  1.3650 -1.3125 -0.7307
10371TIP3    H252529   3.741   0.291  15.726  3.2026 -1.6515 -0.4544
10372TIP3   OH252530   2.996   1.729   1.836 -0.1893  0.0354 -0.0522
10372TIP3    H152531   2.999   1.800   1.901 -3.2087 -0.4060  0.6446
10372TIP3    H252532   2.981   1.650   1.888 -0.5887 -0.5964 -1.1079
10373TIP3   OH252533   2.676   0.233  13.443 -0.1955  0.2472  0.4838
10373TIP3    H152534   2.703   0.159  13.388 -1.9630 -0.8798  1.0984
10373TIP3    H252535   2.717   0.217  13.528 -0.6009 -0.0572  0.6259
10374TIP3   OH252536   6.306   1.459  11.086 -0.7488  0.9062 -0.1208
10374TIP3    H152537   6.322   1.544  11.127 -0.6656  0.9231 -0.1886
10374TIP3    H252538   6.383   1.443  11.032 -0.3262  0.3421  0.6411
10375TIP3   OH252539   0.068   0.331  16.862  0.1569 -0.3087 -0.5642
10375TIP3    H152540   0.159   0.314  16.884  0.2901 -1.4078 -1.8637
10375TIP3    H252541   0.022   0.252  16.890 -0.2839 -0.0514 -0.5562
10376TIP3   OH252542   0.858   6.346  13.971  0.3053  0.5548 -0.3186
10376TIP3    H152543   0.851   6.256  13.940 -0.3524  0.4186  0.2178
10376TIP3    H252544   0.834   6.341  14.064 -0.1366  1.3509 -0.3894
10377TIP3   OH252545   5.412   0.029  16.629  0.3732  0.1919 -0.1888
10377TIP3    H152546   5.469  -0.048  16.629  1.6440  1.0877  1.4109
10377TIP3    H252547   5.323  -0.007  16.639  0.8404 -1.1170 -0.6246
10378TIP3   OH252548   3.200   4.090   5.843 -0.0082 -0.6020 -1.2103
10378TIP3    H152549   3.212   4.181   5.816  0.1706 -0.5501 -0.9591
10378TIP3    H252550   3.278   4.045   5.811  1.1030 -0.1771  0.8051
10379TIP3   OH252551   2.982   0.701  10.953  0.1104 -0.0331 -0.4137
10379TIP3    H152552   2.933   0.618  10.958 -0.4512  0.3494  0.8456
10379TIP3    H252553   2.980   0.725  10.861  0.5787 -1.5984 -0.8516
10380TIP3   OH252554   2.348   5.029  13.834 -0.0102  0.2089 -0.5576
10380TIP3    H152555   2.337   4.969  13.908  1.0466  0.9900  0.2623
10380TIP3    H252556   2.341   4.974  13.756 -2.2541 -0.4458  0.0831
10381TIP3   OH252557   5.192   6.146  15.070 -0.1106  0.5593  0.5647
10381TIP3    H152558   5.271   6.162  15.019 -2.0676  1.2624 -2.3796
10381TIP3    H252559   5.166   6.233  15.100 -3.3035  1.4256 -4.0868
10382TIP3   OH252560   4.001   2.721  15.917  0.3106 -0.0932  0.0808
10382TIP3    H152561   4.016   2.788  15.850 -1.9327  0.0791 -0.2954
10382TIP3    H252562   3.905   2.717  15.926  0.5306 -1.0841  2.2963
10383TIP3   OH252563   6.552   2.667  11.149 -0.4483 -0.1663  0.3464
10383TIP3    H152564   6.600   2.603  11.200 -0.8697 -0.6786  0.1096
10383TIP3    H252565   6.610   2.687  11.075 -0.2236 -0.1025  0.5410
10384TIP3   OH252566   5.456   0.555  11.527 -0.0116  0.0278  0.0633
10384TIP3    H152567   5.434   0.517  11.442 -0.9614  0.5270  0.0705
10384TIP3    H252568   5.535   0.606  11.511 -0.2191  0.1675 -0.5444
10385TIP3   OH252569   3.848   2.873   5.674  0.0578 -0.3869  0.2814
10385TIP3    H152570   3.795   2.797   5.696 -1.0791  0.2808 -0.0982
10385TIP3    H252571   3.862   2.918   5.757  1.0497 -1.1968  0.5649
10386TIP3   OH252572   6.351   5.937   5.960 -0.3139  0.0305  0.0106
10386TIP3    H152573   6.284   5.909   6.022 -0.8587  0.3957 -0.4061
10386TIP3    H252574   6.412   5.989   6.012  0.2606 -1.2526  0.6217
10387TIP3   OH252575   1.495   2.753  16.197  0.0783  0.3259 -0.1013
10387TIP3    H152576   1.486   2.833  16.249 -1.0568  0.5974 -0.6781
10387TIP3    H252577   1.513   2.785  16.108  1.2027 -0.1084 -0.0352
10388TIP3   OH252578   3.957   5.713   0.605  0.1716 -0.0387  0.7929
10388TIP3    H152579   3.913   5.688   0.524 -0.9236  3.1744  0.3083
10388TIP3    H252580   3.954   5.635   0.659 -0.8918 -1.6451 -1.4924
10389TIP3   OH252581   4.508   3.000   3.696  0.1772 -0.4640  0.9570
10389TIP3    H152582   4.522   2.973   3.605  1.0855 -0.9946  1.2456
10389TIP3    H252583   4.433   2.949   3.725  0.1521 -0.6161  0.6290
10390TIP3   OH252584   6.673   4.326  13.025 -0.0616 -0.1645  0.1569
10390TIP3    H152585   6.710   4.381  12.956 -0.2219  0.1540  0.3186
10390TIP3    H252586   6.612   4.385  13.071 -1.1255 -0.8025 -0.4033
10391TIP3   OH252587   5.628   1.222   1.355  0.3812  0.4622  0.0500
10391TIP3    H152588   5.694   1.160   1.327 -0.6515 -1.0088  0.8284
10391TIP3    H252589   5.599   1.265   1.274  0.5109 -0.6582 -0.5898
10392TIP3   OH252590   5.758   6.372   5.933  0.3869 -0.0507  0.3727
10392TIP3    H152591   5.698   6.420   5.989  1.8794 -0.8574  2.7660
10392TIP3    H252592   5.789   6.437   5.869 -1.3537  0.8725  0.4374
10393TIP3   OH252593   5.270   4.044   3.704  0.1611  0.3714  0.0288
10393TIP3    H152594   5.363   4.049   3.727  0.7599 -1.8214 -1.7291
10393TIP3    H252595   5.261   3.960   3.660 -3.0001 -0.1287  1.5164
10394TIP3   OH252596   3.049   3.124   4.806 -0.0662 -0.3473  0.2696
10394TIP3    H152597   3.025   3.045   4.854  0.2520 -0.3081  0.4978
10394TIP3    H252598   3.133   3.151   4.845 -0.5232  0.5035  0.6756
10395TIP3   OH252599   5.545   6.257   6.137  0.4857 -0.0400 -0.2062
10395TIP3    H152600   5.479   6.191   6.160 -0.0350  0.6902  0.4056
10395TIP3    H252601   5.558   6.307   6.217  2.1967 -0.5137 -0.1613
10396TIP3   OH252602   1.919   6.729   5.636 -0.2996  0.2601 -0.1347
10396TIP3    H152603   1.859   6.704   5.706 -0.5806  0.1403 -0.4176
10396TIP3    H252604   1.988   6.780   5.680  0.6455 -1.5818  0.5413
10397TIP3   OH252605   1.897   6.774   2.684 -0.1217 -0.0648  0.7429
10397TIP3    H152606   1.811   6.766   2.725 -0.4022  0.4901  0.2706
10397TIP3    H252607   1.959   6.751   2.753 -0.7846 -4.6024  0.0058
10398TIP3   OH252608   0.380   6.144   2.901 -0.0540 -0.1773 -0.4136
10398TIP3    H152609   0.370   6.108   2.989 -2.5645  0.1349 -0.5318
10398TIP3    H252610   0.458   6.199   2.906 -0.6552  0.5299  1.8709
10399TIP3   OH252611   0.887   5.401   3.550  0.4675 -0.1097 -0.4408
10399TIP3    H152612   0.844   5.483   3.522 -1.4239 -0.7993  0.3488
10399TIP3    H252613   0.890   5.348   3.470 -0.3437 -0.1284 -0.4629
10400TIP3   OH252614   4.682   1.794   1.720  0.4598 -0.0601 -0.2307
10400TIP3    H152615   4.724   1.714   1.750  1.0261  0.4373  0.3058
10400TIP3    H252616   4.633   1.825   1.796  0.1025  0.0139 -0.4894
10401TIP3   OH252617   3.707   5.001   1.768  0.2552  0.3631  0.3541
10401TIP3    H152618   3.657   5.072   1.809  1.1404  1.8368 -1.0248
10401TIP3    H252619   3.796   5.011   1.802  0.5838  0.4794 -0.5249
10402TIP3   OH252620   2.238   1.086  17.129  0.2559 -0.5125  0.2979
10402TIP3    H152621   2.237   1.181  17.131  1.6681 -0.5081  1.0734
10402TIP3    H252622   2.264   1.064  17.039 -0.9436 -0.1793 -0.1285
10403TIP3   OH252623   3.133   2.867  14.009 -0.0840  0.0095 -0.3390
10403TIP3    H152624   3.104   2.900  13.924 -0.1227 -1.0129 -0.7357
10403TIP3    H252625   3.100   2.931  14.072 -1.4181 -0.0398 -0.9604
10404TIP3   OH252626   1.323   4.300   3.830 -0.1556  0.0148 -0.1078
10404TIP3    H152627   1.272   4.368   3.873  0.7083  0.1962  0.6565
10404TIP3    H252628   1.327   4.327   3.738 -0.6034  0.5113  0.0175
10405TIP3   OH252629   3.623   5.031  16.334 -0.4730  0.1386  0.4836
10405TIP3    H152630   3.631   4.938  16.356  0.2152  0.0951  0.0627
10405TIP3    H252631   3.559   5.034  16.264  0.4818 -0.1585 -0.4171
10406TIP3   OH252632   3.795   3.741   3.940 -0.1120  0.4081  0.3979
10406TIP3    H152633   3.758   3.653   3.940  0.1592  0.2905 -0.5814
10406TIP3    H252634   3.883   3.730   3.978 -0.5280  0.4547  1.3843
10407TIP3   OH252635   0.938   0.525   4.752 -0.2891 -0.2040  0.0339
10407TIP3    H152636   0.964   0.575   4.675  2.1459 -1.0973  0.2220
10407TIP3    H252637   0.933   0.590   4.822 -1.4383  0.4351 -0.6215
10408TIP3   OH252638   1.575   4.646  11.157  0.2353  0.1476  0.0630
10408TIP3    H152639   1.625   4.723  11.129 -0.7220  1.0096  0.6585
10408TIP3    H252640   1.496   4.648  11.103  0.0224 -0.1923  0.3615
10409TIP3   OH252641   6.561   3.233  12.441 -0.2632  0.3089 -0.3107
10409TIP3    H152642   6.569   3.299  12.372 -0.4531 -2.3126 -2.9335
10409TIP3    H252643   6.472   3.245  12.474 -1.4303 -0.6074 -2.9514
10410TIP3   OH252644   4.677   6.715  12.620  0.5483  0.4821 -0.1334
10410TIP3    H152645   4.759   6.667  12.626 -0.2582 -0.7463  1.2241
10410TIP3    H252646   4.682   6.782  12.688  0.2123  0.0805  0.2874
10411TIP3   OH252647   6.601   4.665  16.388  0.3633  0.2596  0.6820
10411TIP3    H152648   6.576   4.648  16.479  1.1173  1.5193  1.1362
10411TIP3    H252649   6.539   4.731  16.358  0.5690  0.3714  0.5003
10412TIP3   OH252650   2.963   1.307   0.941  0.1018 -0.8763  0.6429
10412TIP3    H152651   2.975   1.381   0.999  1.5522 -0.0151 -0.7032
10412TIP3    H252652   3.041   1.253   0.955  1.2123  0.0801 -1.4990
10413TIP3   OH252653   4.275   4.483   3.163 -0.4724  0.4910 -0.4818
10413TIP3    H152654   4.191   4.528   3.155 -2.2037 -2.4897  0.2269
10413TIP3    H252655   4.284   4.464   3.257 -0.6564 -2.1011 -0.9319
10414TIP3   OH252656   3.703   1.325   3.670 -0.0528 -0.1447  0.1468
10414TIP3    H152657   3.634   1.279   3.623  0.1150  0.8091 -1.0422
10414TIP3    H252658   3.694   1.417   3.644  1.2832  0.0835  0.4394
10415TIP3   OH252659   3.055   2.945  13.060 -0.5168  0.0171  0.3253
10415TIP3    H152660   3.137   2.993  13.058  0.2441 -1.2273  0.7757
10415TIP3    H252661   3.044   2.911  12.971 -0.2466 -0.2869  0.4065
10416TIP3   OH252662   6.167   6.349  15.446 -0.3919  0.6099 -0.3789
10416TIP3    H152663   6.212   6.344  15.530 -1.4493  2.1640  0.3017
10416TIP3    H252664   6.179   6.263  15.406 -0.3072 -0.3006  1.5888
10417TIP3   OH252665   5.661   4.299   5.198 -0.1920 -0.0953  0.1231
10417TIP3    H152666   5.655   4.341   5.284  0.5379 -2.5858  1.4583
10417TIP3    H252667   5.575   4.259   5.185 -0.4915  0.7731 -0.5784
10418TIP3   OH252668   4.009   3.207   1.106 -0.1116 -0.0019  0.0982
10418TIP3    H152669   3.919   3.235   1.118  0.1492  1.0674 -0.3971
10418TIP3    H252670   4.061   3.287   1.113  0.7143 -0.4617 -0.6130
10419TIP3   OH252671   1.604   1.314   3.876  0.0278 -0.5676  0.4142
10419TIP3    H152672   1.652   1.241   3.836  0.4538 -0.0833  0.0454
10419TIP3    H252673   1.514   1.282   3.883 -0.2693 -0.3005 -1.8268
10420TIP3   OH252674   3.530   1.491  16.958  0.1693  0.7015 -0.6036
10420TIP3    H152675   3.564   1.449  16.879 -0.2195  0.3970 -0.6114
10420TIP3    H252676   3.520   1.583  16.933  0.7194  0.7377 -0.6873
10421TIP3   OH252677   1.054   6.351  15.206 -0.0213  0.8943  0.9735
10421TIP3    H152678   1.145   6.381  15.199 -0.2470  1.7561  1.6672
10421TIP3    H252679   1.013   6.411  15.269 -1.1512  0.6915  0.4481
10422TIP3   OH252680   4.797   6.495   3.513 -0.1457 -0.1563 -0.1441
10422TIP3    H152681   4.881   6.481   3.556 -0.7538 -1.9602  0.5444
10422TIP3    H252682   4.733   6.497   3.585 -0.7809  0.3761 -0.7113
10423TIP3   OH252683   3.649   6.254   4.210 -0.2039  0.4282  0.3331
10423TIP3    H152684   3.650   6.345   4.239  0.7388  0.7613 -0.6677
10423TIP3    H252685   3.686   6.204   4.283  0.8258  1.0712  0.2686
10424TIP3   OH252686   0.242   5.645   2.107  0.1190 -0.7646 -0.1876
10424TIP3    H152687   0.191   5.580   2.154 -0.1795 -2.3627 -2.6673
10424TIP3    H252688   0.311   5.670   2.168 -1.2916 -1.4657  1.7349
10425TIP3   OH252689   2.221   5.872  15.443 -0.1905  0.2590 -0.1608
10425TIP3    H152690   2.259   5.812  15.508 -0.2596  0.8638  0.4353
10425TIP3    H252691   2.272   5.952  15.450 -1.1956  0.8741  0.2383
10426TIP3   OH252692   2.113   6.586  15.667 -0.4208 -0.0322 -0.1964
10426TIP3    H152693   2.111   6.670  15.620 -1.7590  0.7160  1.1448
10426TIP3    H252694   2.168   6.530  15.612  0.8462  1.8333 -0.9277
10427TIP3   OH252695   2.967   6.524   3.101 -0.3872  0.3679  0.2263
10427TIP3    H152696   2.917   6.486   3.028 -0.7544  0.2938  0.5104
10427TIP3    H252697   2.985   6.449   3.158  0.4111  0.3237 -0.0808
10428TIP3   OH252698   2.276   5.381   1.995 -0.2560 -0.3160  0.4380
10428TIP3    H152699   2.337   5.453   2.008 -0.4354 -0.8087  4.7012
10428TIP3    H252700   2.189   5.421   2.003 -0.3948 -0.6384  0.5482
10429TIP3   OH252701   1.621   2.592  14.372 -1.2100  0.3313  0.2401
10429TIP3    H152702   1.627   2.546  14.455  2.0489 -0.1237 -0.1699
10429TIP3    H252703   1.552   2.658  14.385 -1.8008 -0.7392  2.7578
10430TIP3   OH252704   3.371   5.342  10.804 -0.3216  0.0058 -0.5293
10430TIP3    H152705   3.379   5.378  10.715  0.8849 -0.8018 -0.7527
10430TIP3    H252706   3.435   5.391  10.855 -1.2574  0.7110 -0.0048
10431TIP3   OH252707   4.260   2.896   0.959  0.0421 -0.5806  0.1318
10431TIP3    H152708   4.204   2.967   0.928  0.2006 -0.1266  0.8750
10431TIP3    H252709   4.344   2.938   0.977  0.1065 -0.9355  0.6669
10432TIP3   OH252710   6.457   5.183  16.250 -0.7393  0.2236  0.3571
10432TIP3    H152711   6.515   5.165  16.324  1.7006 -0.5467 -1.6709
10432TIP3    H252712   6.419   5.269  16.271 -0.2768 -0.0691  2.5752
10433TIP3   OH252713   2.929   5.144  13.088  0.1031 -0.1678  0.2006
10433TIP3    H152714   2.902   5.087  13.159  0.5768 -0.4752  0.1350
10433TIP3    H252715   2.977   5.087  13.028  0.0751  0.1760 -0.1545
10434TIP3   OH252716   1.593   2.588   5.343 -0.1035 -0.3321 -0.0034
10434TIP3    H152717   1.561   2.571   5.431 -0.3154  0.5643  0.0917
10434TIP3    H252718   1.619   2.502   5.310  0.8366 -0.5330  1.2565
10435TIP3   OH252719   5.578   0.818  12.236 -0.4778  0.3150  0.6024
10435TIP3    H152720   5.556   0.753  12.303  0.0967 -1.0425 -0.4933
10435TIP3    H252721   5.673   0.831  12.247 -0.8114  1.9841  1.6848
10436TIP3   OH252722   2.836   1.029  15.660 -0.2841 -0.4495 -0.7240
10436TIP3    H152723   2.759   1.083  15.641  0.4785  1.4057  1.2434
10436TIP3    H252724   2.810   0.977  15.736  0.5901  0.6769  0.3769
10437TIP3   OH252725   2.923   4.206  15.300  0.1556  0.0376 -0.3109
10437TIP3    H152726   2.888   4.211  15.211  0.6117  0.1989 -0.4821
10437TIP3    H252727   2.888   4.124  15.336  1.7975 -1.1762 -1.4233
10438TIP3   OH252728   5.849   1.675   0.392  0.2492 -0.1124 -0.0913
10438TIP3    H152729   5.906   1.698   0.465 -0.5887 -1.8464  1.1514
10438TIP3    H252730   5.886   1.721   0.317  0.7495  2.2015  1.5398
10439TIP3   OH252731   0.459   3.243  15.585 -0.6471  0.2227  0.5214
10439TIP3    H152732   0.528   3.302  15.555  0.8391 -1.9837 -0.5788
10439TIP3    H252733   0.378   3.284  15.554  0.4593  0.9215 -1.5978
10440TIP3   OH252734   6.503   1.653  14.548  0.3268  0.1503  0.1777
10440TIP3    H152735   6.470   1.709  14.618  0.5157  1.2621 -0.6191
10440TIP3    H252736   6.580   1.610  14.586  0.5493  0.9057  0.5857
10441TIP3   OH252737   2.901   6.434   0.038  0.0962  0.6060 -0.2548
10441TIP3    H152738   2.963   6.362   0.035 -0.2187  0.3735 -1.3743
10441TIP3    H252739   2.815   6.393   0.041 -0.0071  0.9253  1.6019
10442TIP3   OH252740   3.281   3.247   0.028 -0.1394 -0.3918 -0.3429
10442TIP3    H152741   3.217   3.286  -0.030 -0.6992 -0.5922  0.1351
10442TIP3    H252742   3.231   3.221   0.106  0.4762 -0.7444 -0.0571
10443TIP3   OH252743   2.347   5.848  13.397  0.1289 -0.4167  0.3123
10443TIP3    H152744   2.256   5.840  13.368  0.3742  0.9436 -0.8758
10443TIP3    H252745   2.351   5.797  13.478 -1.6272 -0.7077  0.2243
10444TIP3   OH252746   1.900   1.451   4.098  0.2413 -0.1021  0.4056
10444TIP3    H152747   1.908   1.534   4.144  1.2647  0.6850 -1.1685
10444TIP3    H252748   1.986   1.410   4.106 -0.4310 -1.3077  1.7052
10445TIP3   OH252749   0.656   2.919  15.101 -0.4797 -0.2392 -0.2629
10445TIP3    H152750   0.685   2.960  15.182 -0.3847  0.0040 -0.4183
10445TIP3    H252751   0.563   2.903  15.113 -0.2189 -1.3683  0.3895
10446TIP3   OH252752   5.878   6.448   0.941 -0.1905 -0.1580  0.0495
10446TIP3    H152753   5.863   6.451   0.847  0.5389 -1.9958 -0.1388
10446TIP3    H252754   5.837   6.366   0.970 -0.3520  0.3572  1.3272
10447TIP3   OH252755   1.729   3.237  16.923 -0.4732 -0.1671  0.4781
10447TIP3    H152756   1.762   3.310  16.872 -0.8254  0.4256  1.0918
10447TIP3    H252757   1.719   3.166  16.860 -2.2218  0.9646 -0.5746
10448TIP3   OH252758   3.673   4.108  16.091  0.5294  0.0466 -0.2890
10448TIP3    H152759   3.627   4.064  16.163 -0.6120  0.7860 -0.5563
10448TIP3    H252760   3.766   4.094  16.110  0.2114 -0.8981  0.6165
10449TIP3   OH252761   0.437   3.349  16.694 -0.1241  0.0435 -0.3206
10449TIP3    H152762   0.528   3.378  16.707  0.3573 -1.2956 -0.5888
10449TIP3    H252763   0.387   3.395  16.761  1.0982 -0.8595  1.2316
10450TIP3   OH252764   1.914   1.573  15.120 -0.2159 -0.3253  0.3865
10450TIP3    H152765   1.967   1.614  15.052  0.4838  1.5991  2.0590
10450TIP3    H252766   1.825   1.604  15.104 -0.1860 -0.5121 -0.1314
10451TIP3   OH252767   1.834   6.380  14.869 -0.1274  0.1696 -0.0544
10451TIP3    H152768   1.873   6.461  14.835 -1.2220  1.0978  0.8748
10451TIP3    H252769   1.899   6.347  14.931  1.1043 -0.6134 -1.6984
10452TIP3   OH252770   0.211   0.079   6.134 -0.0729 -0.2317 -0.5817
10452TIP3    H152771   0.151   0.152   6.118  0.2685  0.5055  1.3268
10452TIP3    H252772   0.158   0.001   6.119 -0.4152  0.3802 -2.7412
10453TIP3   OH252773   4.484   1.367  16.766  1.0916 -0.5287 -0.3865
10453TIP3    H152774   4.491   1.302  16.696  1.5075  0.4319 -1.2591
10453TIP3    H252775   4.433   1.324  16.834  1.0216 -1.6242 -1.1149
10454TIP3   OH252776   5.156   5.991  16.666 -0.2064 -0.0659 -0.2957
10454TIP3    H152777   5.127   5.901  16.681 -0.4328 -0.1269 -1.0921
10454TIP3    H252778   5.151   6.003  16.571 -0.9270  1.0327 -0.1362
10455TIP3   OH252779   4.320   1.212  17.025  0.1393  0.1626  0.5943
10455TIP3    H152780   4.361   1.281  17.077 -0.0755  1.0896 -0.4259
10455TIP3    H252781   4.377   1.136  17.034  0.8064  0.7273  1.0896
10456TIP3   OH252782   3.381   4.634   1.307  1.1716 -0.0189 -0.1965
10456TIP3    H152783   3.422   4.639   1.394  0.9283  0.8407 -0.1269
10456TIP3    H252784   3.287   4.640   1.324  1.0802 -0.7245 -0.4531
10457TIP3   OH252785   2.572   3.075  16.679  0.1644  0.1042 -0.0971
10457TIP3    H152786   2.523   2.995  16.657 -0.1187  0.5408 -1.0758
10457TIP3    H252787   2.504   3.138  16.704  0.2107  0.7122 -1.4640
10458TIP3   OH252788   2.275   1.428   4.011  0.5111 -0.4976  0.1763
10458TIP3    H152789   2.332   1.352   4.012  0.0602 -0.8344  0.1445
10458TIP3    H252790   2.240   1.432   3.922 -0.7851 -1.2370  0.6460
10459TIP3   OH252791   5.719   4.411  15.722  0.4388 -0.0612  0.3790
10459TIP3    H152792   5.755   4.366  15.646  0.4135 -0.0463  0.3589
10459TIP3    H252793   5.666   4.482  15.685 -0.5144 -0.7523  0.3853
10460TIP3   OH252794   1.314   5.318  15.902  0.6017 -0.5986 -0.0535
10460TIP3    H152795   1.256   5.394  15.891  1.1857 -0.2096 -0.4921
10460TIP3    H252796   1.318   5.278  15.815  0.9607 -0.6418 -0.0187
10461TIP3   OH252797   1.236   2.863  15.253 -0.2509  0.3612  0.0684
10461TIP3    H152798   1.265   2.772  15.248  1.7827  1.0285 -1.1999
10461TIP3    H252799   1.147   2.862  15.219 -0.4109 -1.2035  0.4764
10462TIP3   OH252800   1.717   2.836  15.103 -1.2127  0.2188  0.2386
10462TIP3    H152801   1.741   2.885  15.024 -0.6175 -0.0067  0.2756
10462TIP3    H252802   1.638   2.879  15.136 -2.1269 -0.3782 -1.1126
10463TIP3   OH252803   6.741   6.088   5.986  0.2240  0.2248  0.3634
10463TIP3    H152804   6.763   6.125   6.072 -1.2238  0.6331  0.5697
10463TIP3    H252805   6.713   5.999   6.005  0.6588  0.0503  0.2100
10464TIP3   OH252806   1.017   2.148   1.568  0.5306 -0.1026  0.1797
10464TIP3    H152807   0.962   2.077   1.535 -1.4632  1.8091 -0.7038
10464TIP3    H252808   0.971   2.228   1.543  2.6495  1.5192  1.3050
10465TIP3   OH252809   3.866   1.241   5.737 -0.2936 -0.2366 -0.5678
10465TIP3    H152810   3.859   1.291   5.656 -0.2885 -0.2967 -0.6053
10465TIP3    H252811   3.933   1.286   5.788 -1.9455  1.2087  0.4059
10466TIP3   OH252812   5.832   4.977  15.194 -0.3089  0.1122 -0.3050
10466TIP3    H152813   5.760   4.956  15.254  0.1724  0.4384  0.3897
10466TIP3    H252814   5.911   4.959  15.244  0.1331  2.6750 -0.0092
10467TIP3   OH252815   2.054   5.933   5.952 -0.9006  0.1612  0.0352
10467TIP3    H152816   2.120   5.871   5.982 -0.5318  0.7163  0.3791
10467TIP3    H252817   2.042   5.912   5.859  0.6035  0.8070 -0.3202
10468TIP3   OH252818   1.311   5.994   5.240  0.1120 -0.1949 -0.1270
10468TIP3    H152819   1.309   5.907   5.199 -0.1924 -0.2229 -0.0490
10468TIP3    H252820   1.367   6.046   5.181 -0.8080 -0.0714 -0.9079
10469TIP3   OH252821   6.084   1.065  11.987 -0.2942  0.0593 -0.3979
10469TIP3    H152822   6.015   1.118  12.028  0.1044 -0.8018  1.4678
10469TIP3    H252823   6.161   1.122  11.985 -0.1526 -0.0892  0.6263
10470TIP3   OH252824   0.021   0.758  14.185  0.0342  0.6622 -0.3302
10470TIP3    H152825  -0.070   0.789  14.179 -0.1069  0.0816 -1.4972
10470TIP3    H252826   0.014   0.676  14.235 -0.1372  0.4711 -0.6592
10471TIP3   OH252827   4.080   4.073  14.101  0.2246  0.0572  0.2946
10471TIP3    H152828   4.035   4.154  14.124 -2.2370 -1.2178  0.0462
10471TIP3    H252829   4.173   4.098  14.098 -0.2711  2.3476  2.3600
10472TIP3   OH252830   4.455   0.639   5.080 -0.4180 -0.6377 -0.4464
10472TIP3    H152831   4.396   0.707   5.114  1.3569 -0.4503  2.4218
10472TIP3    H252832   4.400   0.561   5.073 -1.6634  0.2196 -0.5652
10473TIP3   OH252833   1.484   5.673  16.041  0.5580  0.4476  0.0913
10473TIP3    H152834   1.501   5.654  16.134 -0.1194  0.0907  0.1470
10473TIP3    H252835   1.409   5.732  16.042 -0.7712 -1.1625 -0.2911
10474TIP3   OH252836   4.803   4.181  13.793 -0.0582  0.3950  0.3189
10474TIP3    H152837   4.752   4.254  13.759 -0.1497 -0.1059 -0.6489
10474TIP3    H252838   4.872   4.168  13.728  0.9890  0.7318  1.3587
10475TIP3   OH252839   6.636   5.699  12.172 -0.0068 -0.0401  0.1898
10475TIP3    H152840   6.694   5.768  12.205  1.6137 -0.9629 -0.6196
10475TIP3    H252841   6.650   5.626  12.233  0.2622 -0.5210 -0.4425
10476TIP3   OH252842   0.105   5.738  12.529 -0.1764  0.4197 -0.1620
10476TIP3    H152843   0.183   5.757  12.478 -1.1281  0.9148 -1.4707
10476TIP3    H252844   0.124   5.655  12.573  0.3281 -0.4716 -2.0360
10477TIP3   OH252845   4.014   6.774  15.739  0.0985 -0.0069 -0.1333
10477TIP3    H152846   4.005   6.706  15.805 -1.8531 -0.2005 -0.5501
10477TIP3    H252847   3.954   6.748  15.669  0.1224  1.5761 -0.7751
10478TIP3   OH252848   5.923   6.574   4.683  0.3121  0.0606  1.0028
10478TIP3    H152849   5.905   6.658   4.725 -2.0075 -0.3952  0.9763
10478TIP3    H252850   5.852   6.563   4.620 -0.0513 -2.4425  1.8026
10479TIP3   OH252851   3.355   5.811  15.667 -0.0439 -0.1980  0.1519
10479TIP3    H152852   3.397   5.826  15.751 -1.4934  3.6937  0.3022
10479TIP3    H252853   3.425   5.820  15.603  0.5542 -0.4334  0.7681
10480TIP3   OH252854   0.264   5.962   1.177 -0.1456 -0.2442  0.0521
10480TIP3    H152855   0.356   5.950   1.154 -0.0505  0.2649  0.1550
10480TIP3    H252856   0.217   5.947   1.095 -0.0260 -1.1519  0.1471
10481TIP3   OH252857   4.020   4.139  14.983 -0.3383 -0.4709  0.5564
10481TIP3    H152858   3.954   4.133  15.052 -2.5289 -1.1855 -1.5392
10481TIP3    H252859   3.995   4.216  14.932  0.7766 -0.4150  0.0816
10482TIP3   OH252860   0.195   3.574   1.983  0.5280 -0.0694 -0.3282
10482TIP3    H152861   0.173   3.667   1.991  0.3875 -0.0771 -0.6007
10482TIP3    H252862   0.126   3.538   1.927 -0.1209 -0.6023  0.8212
10483TIP3   OH252863   1.516   1.847  16.725  0.4101  0.8797 -0.2943
10483TIP3    H152864   1.513   1.932  16.770 -0.6799  0.1701  1.0274
10483TIP3    H252865   1.609   1.825  16.723  0.5141  1.0617  1.4048
10484TIP3   OH252866   4.782   6.740  16.180  0.2745 -0.5635 -0.9508
10484TIP3    H152867   4.818   6.669  16.233  0.9528 -0.0207 -0.6840
10484TIP3    H252868   4.770   6.812  16.241  2.6063  0.6112 -1.8181
10485TIP3   OH252869   5.502   4.488   1.218  0.1579  0.8166 -0.1176
10485TIP3    H152870   5.560   4.508   1.292  2.0842 -0.3384 -1.2642
10485TIP3    H252871   5.483   4.395   1.228 -1.9098  1.2919  0.5093
10486TIP3   OH252872   0.727   0.588   4.520 -0.1002  0.0947  0.8455
10486TIP3    H152873   0.779   0.633   4.587  0.2359  0.0427  0.6236
10486TIP3    H252874   0.637   0.597   4.549  0.0664 -0.1664  1.4494
10487TIP3   OH252875   1.954   1.692  12.017  0.4709 -0.4523 -0.0388
10487TIP3    H152876   1.899   1.770  12.013 -1.0581 -1.5389 -0.5070
10487TIP3    H252877   2.044   1.726  12.024 -0.0466  1.3570 -1.8312
10488TIP3   OH252878   3.917   4.152  13.881  0.0773 -0.0913  0.0408
10488TIP3    H152879   3.942   4.095  13.954  2.7405 -1.0768 -1.5727
10488TIP3    H252880   3.844   4.106  13.838  0.8883 -1.3041 -0.0442
10489TIP3   OH252881   4.980   5.558   6.330  0.5013  0.6692 -0.6746
10489TIP3    H152882   4.889   5.572   6.359 -0.3059 -0.3097 -2.6105
10489TIP3    H252883   4.983   5.466   6.306  2.9582 -0.1525  2.4189
10490TIP3   OH252884   5.834   4.542  15.171  0.0045  0.4886  0.3945
10490TIP3    H152885   5.835   4.600  15.095  0.3139  0.0944  0.0978
10490TIP3    H252886   5.826   4.600  15.246 -0.9482  0.8462  0.0245
10491TIP3   OH252887   6.038   5.069   5.499  0.0761 -0.3729 -0.1244
10491TIP3    H152888   6.054   5.081   5.593  0.1350  0.0580 -0.1893
10491TIP3    H252889   5.943   5.054   5.493 -0.3028  1.9747 -0.2276
10492TIP3   OH252890   5.524   3.675   3.463  0.2943 -0.2293 -0.3409
10492TIP3    H152891   5.586   3.602   3.474 -0.5934 -0.8839  0.3677
10492TIP3    H252892   5.568   3.734   3.401 -0.1453 -2.7497 -3.1906
10493TIP3   OH252893   2.829   5.288  11.699 -0.7863  0.1425  0.1248
10493TIP3    H152894   2.776   5.244  11.765  1.7292 -2.0713  0.7494
10493TIP3    H252895   2.870   5.361  11.745 -3.1975  1.8463 -0.3550
10494TIP3   OH252896   6.047   2.059   1.745 -0.9720  0.2569  0.2586
10494TIP3    H152897   6.075   2.060   1.837 -1.5028  2.0182  0.4360
10494TIP3    H252898   6.093   1.986   1.706 -0.6045 -0.4077  1.9005
10495TIP3   OH252899   3.446   1.738  12.676  0.0556 -0.1093  0.1788
10495TIP3    H152900   3.365   1.723  12.627  2.4656 -1.5302 -3.6173
10495TIP3    H252901   3.449   1.666  12.739 -1.9363  0.3853  0.8908
10496TIP3   OH252902   2.997   3.568   1.108  0.1115  0.2824 -0.1087
10496TIP3    H152903   3.034   3.489   1.068 -0.7874  0.1189 -0.6379
10496TIP3    H252904   3.018   3.559   1.201  1.6212  0.3304 -0.4323
10497TIP3   OH252905   2.945   5.713  14.641 -0.6150  0.1220 -0.7120
10497TIP3    H152906   3.038   5.699  14.623 -0.8752  0.3878 -2.4221
10497TIP3    H252907   2.909   5.625  14.648 -0.3411  0.0151 -0.6078
10498TIP3   OH252908   1.126   1.056  12.868 -0.1989 -0.7696 -0.5541
10498TIP3    H152909   1.083   0.971  12.861  0.9875 -1.2206 -3.0674
10498TIP3    H252910   1.136   1.085  12.777 -1.1852  2.3754  0.2717
10499TIP3   OH252911   2.911   4.765   0.933 -0.1291 -0.8051 -0.2012
10499TIP3    H152912   2.887   4.847   0.890  0.7721 -0.9833 -1.0516
10499TIP3    H252913   2.959   4.793   1.011 -2.7271 -0.4563  1.3438
10500TIP3   OH252914   0.786   3.876   1.436 -0.4078 -0.0102  0.3070
10500TIP3    H152915   0.714   3.884   1.498 -0.8063 -0.6182 -0.0648
10500TIP3    H252916   0.754   3.917   1.356 -2.1209 -4.2073 -1.3174
10501TIP3   OH252917   5.786   1.367   3.605 -0.6796  0.5883  0.3989
10501TIP3    H152918   5.781   1.284   3.653  0.4967  0.2611 -0.0265
10501TIP3    H252919   5.711   1.417   3.638 -0.8848 -0.2868  1.3277
10502TIP3   OH252920   1.361   1.950  17.073  0.5881 -0.4512  0.1386
10502TIP3    H152921   1.386   2.027  17.022  3.5378 -0.7668  1.0562
10502TIP3    H252922   1.408   1.878  17.032  0.5333 -1.2059  1.3835
10503TIP3   OH252923   0.464   0.271  16.684 -0.1432  0.5327 -0.7169
10503TIP3    H152924   0.403   0.224  16.741 -1.4977  1.2681 -1.5274
10503TIP3    H252925   0.418   0.353  16.663  1.0551  1.0176 -1.4796
10504TIP3   OH252926   1.299   0.188  16.464  0.3182  0.5347 -0.3218
10504TIP3    H152927   1.326   0.246  16.535 -0.3815 -0.1903  0.5558
10504TIP3    H252928   1.345   0.106  16.481  0.3065  0.4252 -0.8178
10505TIP3   OH252929   5.713   6.237  16.896  0.7037 -0.2767  0.1697
10505TIP3    H152930   5.622   6.251  16.922  0.8966  2.2284 -0.3577
10505TIP3    H252931   5.733   6.311  16.839  3.4303 -0.1876  1.1708
10506TIP3   OH252932   4.727   5.362   2.814  0.3366  0.1269 -0.8816
10506TIP3    H152933   4.740   5.362   2.719  1.6314 -2.6434 -0.7654
10506TIP3    H252934   4.647   5.312   2.828  1.8591 -2.3040 -0.4134
10507TIP3   OH252935   4.524   5.994  13.241 -0.1102 -0.6605  0.6994
10507TIP3    H152936   4.537   5.988  13.336  1.7668 -1.6331  0.4067
10507TIP3    H252937   4.444   6.045  13.231  0.6217  0.9608  2.7793
10508TIP3   OH252938   6.604   1.875   4.946 -0.2631 -0.2233  0.6693
10508TIP3    H152939   6.634   1.813   5.012 -0.8491  0.6191  1.7372
10508TIP3    H252940   6.585   1.955   4.995 -0.6983  0.4112 -0.5203
10509TIP3   OH252941   5.010   4.022   0.662 -0.1438 -0.4003 -0.1459
10509TIP3    H152942   4.958   3.962   0.609 -0.6571  2.1140 -2.6042
10509TIP3    H252943   5.072   4.061   0.601 -0.9752  2.8082  0.9533
10510TIP3   OH252944   3.895   1.685   3.248  0.7781  0.0513  0.5234
10510TIP3    H152945   3.948   1.613   3.215  0.0572 -0.4791  0.5180
10510TIP3    H252946   3.807   1.668   3.213  0.1821 -0.0839  2.0737
10511TIP3   OH252947   0.410   5.071  15.237 -0.1013  0.5304  0.5772
10511TIP3    H152948   0.436   5.163  15.227 -2.1178  0.9469 -1.2705
10511TIP3    H252949   0.472   5.035  15.301  2.9292  2.2460 -1.2912
10512TIP3   OH252950   4.067   3.591   5.539 -0.1632 -0.2678 -0.6423
10512TIP3    H152951   4.137   3.542   5.496  0.8975  0.5202  0.1737
10512TIP3    H252952   4.032   3.531   5.605 -0.5447 -0.8141 -1.3425
10513TIP3   OH252953   0.564   6.499  16.539 -0.5399  0.1565 -0.1365
10513TIP3    H152954   0.527   6.575  16.585 -0.6371  0.2578 -0.3816
10513TIP3    H252955   0.559   6.523  16.447 -0.1281  0.0453 -0.1828
10514TIP3   OH252956   3.249   3.358   2.331 -0.3507 -0.4408  0.1958
10514TIP3    H152957   3.292   3.438   2.298 -1.7017  0.9928  1.8164
10514TIP3    H252958   3.164   3.357   2.287  0.2914 -1.8998 -1.0576
10515TIP3   OH252959   2.501   0.943   2.721 -0.2421  0.2087 -0.4241
10515TIP3    H152960   2.479   0.857   2.686 -0.2229  0.8820 -2.1189
10515TIP3    H252961   2.420   0.994   2.715  0.2658  0.9289 -1.3379
10516TIP3   OH252962   4.140   3.453   2.371 -0.0030  0.3710  0.1138
10516TIP3    H152963   4.138   3.455   2.275 -1.4335 -0.6333  0.0977
10516TIP3    H252964   4.089   3.530   2.397 -0.0842  0.3375  0.0562
10517TIP3   OH252965   2.632   2.853  11.534  0.2334 -0.1954 -0.3889
10517TIP3    H152966   2.667   2.937  11.505 -0.2419 -0.1362 -0.7939
10517TIP3    H252967   2.695   2.788  11.501  0.8143  0.0254  0.2712
10518TIP3   OH252968   5.734   3.307   0.387 -0.1921 -0.1583 -0.0300
10518TIP3    H152969   5.823   3.273   0.396 -0.6128 -0.8957  1.5429
10518TIP3    H252970   5.746   3.401   0.375  0.7643 -0.0457  1.6336
10519TIP3   OH252971   6.208   6.484   6.397 -0.0151  0.7922 -0.8026
10519TIP3    H152972   6.135   6.511   6.342 -0.1819  0.2591 -0.8415
10519TIP3    H252973   6.263   6.562   6.403  0.4996  0.5941 -2.5239
10520TIP3   OH252974   4.782   1.046  12.950 -0.0452 -0.2224 -0.0723
10520TIP3    H152975   4.779   1.140  12.934 -0.5218 -0.4138 -1.1471
10520TIP3    H252976   4.694   1.015  12.927  0.3540 -1.0525 -0.5089
10521TIP3   OH252977   2.021   5.107   5.506 -0.4180 -0.3058  0.3520
10521TIP3    H152978   2.064   5.159   5.574  0.5812  0.1390 -0.6108
10521TIP3    H252979   2.092   5.059   5.463 -0.8727  0.3279 -1.1541
10522TIP3   OH252980   1.248   2.431  12.346 -0.0003  0.8975 -0.0663
10522TIP3    H152981   1.268   2.498  12.412  0.3888 -1.1017  1.9242
10522TIP3    H252982   1.331   2.386  12.332 -0.8307 -0.9631  0.7524
10523TIP3   OH252983   2.153   4.932  14.387 -0.5215  0.7149 -0.4990
10523TIP3    H152984   2.076   4.922  14.443 -1.1059  0.3244 -1.3688
10523TIP3    H252985   2.196   4.846  14.389 -0.8311  0.5488 -1.0779
10524TIP3   OH252986   2.976   3.641   5.569  0.4521  0.1970  0.1973
10524TIP3    H152987   2.942   3.669   5.485 -0.2497  0.5351  0.5882
10524TIP3    H252988   3.027   3.716   5.600 -0.9165  0.8300  0.9629
10525TIP3   OH252989   1.725   4.382  12.403  0.1581  0.0245 -0.6612
10525TIP3    H152990   1.671   4.350  12.331  0.6681 -0.3147 -0.9009
10525TIP3    H252991   1.738   4.305  12.459  0.8332 -0.0407 -0.8907
10526TIP3   OH252992   3.147   4.987  11.196  0.0145 -0.0545 -0.0884
10526TIP3    H152993   3.138   4.898  11.161  1.8962 -0.4754  0.4413
10526TIP3    H252994   3.216   5.026  11.143  2.0780 -0.3018  2.2991
10527TIP3   OH252995   1.730   1.091   3.792 -0.1585 -0.0285  0.0735
10527TIP3    H152996   1.821   1.116   3.809 -0.1093  0.4920 -0.8670
10527TIP3    H252997   1.737   1.009   3.743 -0.2464 -0.7623  1.2935
10528TIP3   OH252998   2.703   6.375  10.441 -0.3025  0.1222 -0.3573
10528TIP3    H152999   2.684   6.439  10.373  1.6970  0.9368 -0.1918
10528TIP3    H253000   2.798   6.382  10.455 -0.1918 -2.1687  0.3546
10529TIP3   OH253001   3.946   4.068   3.396 -0.0977  0.0281 -0.3903
10529TIP3    H153002   3.937   4.113   3.312  0.9881 -1.5340 -1.3649
10529TIP3    H253003   4.040   4.058   3.409 -0.3136 -1.6818 -0.0388
10530TIP3   OH253004   6.473   6.067   3.320  0.3682 -0.1440  0.3984
10530TIP3    H153005   6.504   6.128   3.253  1.5814 -0.7382  0.4152
10530TIP3    H253006   6.506   5.982   3.292  0.4354 -0.4743  1.4763
10531TIP3   OH253007   0.558   6.080  16.937  0.2482  0.6484 -0.2179
10531TIP3    H153008   0.472   6.049  16.910  0.6135 -0.9326  0.3881
10531TIP3    H253009   0.620   6.016  16.901  1.1877  1.8386 -0.7635
10532TIP3   OH253010   4.226   0.899  12.109 -0.0232 -0.2310  0.3729
10532TIP3    H153011   4.233   0.855  12.194  1.5179  1.5494  1.2205
10532TIP3    H253012   4.132   0.913  12.097 -0.3409 -1.5525  1.2249
10533TIP3   OH253013   4.888   0.573  16.329  0.4480 -0.5816 -0.5857
10533TIP3    H153014   4.891   0.668  16.337  0.8194 -0.6999  0.7876
10533TIP3    H253015   4.929   0.555  16.244 -0.8945  0.5598 -1.4924
10534TIP3   OH253016   0.174   4.885  14.257  0.1292  0.0163  0.3788
10534TIP3    H153017   0.225   4.955  14.215 -1.5507  1.2893  0.4089
10534TIP3    H253018   0.128   4.843  14.184 -0.6380  0.4269  0.6287
10535TIP3   OH253019   6.215   3.848  12.086  0.4018 -0.1169  0.5876
10535TIP3    H153020   6.176   3.917  12.031 -0.1727  0.0161  1.1596
10535TIP3    H253021   6.156   3.774  12.076  0.2238 -0.0466  1.1422
10536TIP3   OH253022   3.290   3.369   4.636  0.2141  0.2983 -0.0003
10536TIP3    H153023   3.307   3.398   4.546  1.6858  1.3371  0.5954
10536TIP3    H253024   3.332   3.284   4.642 -0.6454 -0.1655 -0.5618
10537TIP3   OH253025   3.534   1.843  12.022 -0.2026 -0.1241 -0.4477
10537TIP3    H153026   3.569   1.883  11.942 -0.4183  0.5773 -0.1917
10537TIP3    H253027   3.525   1.750  12.000 -0.5747  0.1232 -1.3495
10538TIP3   OH253028   0.944   1.502  16.749  0.1230 -0.3876  0.2780
10538TIP3    H153029   0.958   1.583  16.797  0.4403 -1.4420  2.0347
10538TIP3    H253030   0.861   1.515  16.703  0.3419  1.0497  0.2757
10539TIP3   OH253031   3.978   6.406   4.472 -0.0831  0.3523 -0.0976
10539TIP3    H153032   4.066   6.375   4.449  1.0479  2.0475  1.7833
10539TIP3    H253033   3.952   6.461   4.397  0.8663  0.6133 -0.2387
10540TIP3   OH253034   0.077   1.312   1.829 -0.4349  0.1921  0.0459
10540TIP3    H153035   0.040   1.261   1.902 -2.0327 -0.2445 -1.0366
10540TIP3    H253036   0.022   1.390   1.825  0.0681  0.5288 -0.2685
10541TIP3   OH253037   2.052   1.601   2.741  0.2256 -0.2218  0.3740
10541TIP3    H153038   2.120   1.591   2.676 -0.0243 -0.5387  0.1592
10541TIP3    H253039   2.099   1.623   2.822  0.5736 -0.3737  0.2138
10542TIP3   OH253040   3.779   0.522   1.138 -0.1743 -0.2299 -0.1404
10542TIP3    H153041   3.760   0.558   1.051 -0.2441  1.5765  0.6034
10542TIP3    H253042   3.845   0.454   1.122 -0.8878 -0.5621 -1.7095
10543TIP3   OH253043   5.493   0.597   5.450  0.3440  0.4020  1.2338
10543TIP3    H153044   5.569   0.540   5.434  1.5288  1.5548  2.5765
10543TIP3    H253045   5.438   0.547   5.510  0.0429 -0.4495  0.2478
10544TIP3   OH253046   2.534   3.340   0.345 -0.0238  0.2542  0.3765
10544TIP3    H153047   2.515   3.422   0.301 -0.5682 -0.1363 -0.1230
10544TIP3    H253048   2.463   3.281   0.319  1.4091 -0.9808 -0.8404
10545TIP3   OH253049   0.060   4.083   2.774 -0.1390 -0.0321  0.1992
10545TIP3    H153050   0.046   3.989   2.763 -0.3088 -0.0060  0.1837
10545TIP3    H253051  -0.028   4.120   2.777 -0.0836  0.0525  0.8594
10546TIP3   OH253052   0.521   6.654   2.011  0.1440  0.2599 -0.4795
10546TIP3    H153053   0.490   6.580   2.064 -1.5716 -0.0977 -1.9199
10546TIP3    H253054   0.441   6.701   1.987  1.0551  1.4692 -1.1949
10547TIP3   OH253055   0.145   2.212  13.796 -0.0438  0.2385  0.3701
10547TIP3    H153056   0.078   2.273  13.766  0.4211  0.8362  0.5348
10547TIP3    H253057   0.097   2.148  13.849 -0.5872  0.2385 -0.1164
10548TIP3   OH253058   5.272   3.657  13.985 -0.5001  0.1968 -0.2066
10548TIP3    H153059   5.177   3.661  14.001 -0.0185  0.7640  2.6433
10548TIP3    H253060   5.293   3.564  13.992 -0.8067  0.0940 -0.6145
10549TIP3   OH253061   0.101   3.337  15.058  0.5390 -0.2697  0.1430
10549TIP3    H153062   0.132   3.394  14.988  1.5766 -1.2493 -0.2004
10549TIP3    H253063   0.074   3.398  15.128 -0.2985  0.6934 -0.9982
10550TIP3   OH253064   5.146   4.163  11.388 -0.8119  0.2518  0.8537
10550TIP3    H153065   5.054   4.138  11.396 -0.2811 -1.1454  3.0823
10550TIP3    H253066   5.145   4.259  11.392 -2.2004  0.2592  0.4954
10551TIP3   OH253067   0.323   5.227  15.853  0.0121 -0.2256  0.1671
10551TIP3    H153068   0.319   5.299  15.790  0.7697  0.0737  0.4574
10551TIP3    H253069   0.240   5.233  15.900 -0.8620 -0.8835 -1.2634
10552TIP3   OH253070   2.902   4.125  13.985  0.0909 -0.3670  0.0504
10552TIP3    H153071   2.877   4.069  14.058 -0.7047  1.0333  0.8470
10552TIP3    H253072   2.900   4.067  13.909 -1.2668 -1.2919  0.7837
10553TIP3   OH253073   0.859   1.855  16.595 -0.2218  0.3576  0.0190
10553TIP3    H153074   0.844   1.882  16.685  0.8892 -1.5922  0.8173
10553TIP3    H253075   0.773   1.860  16.553 -1.4966 -2.3412  2.1929
10554TIP3   OH253076   4.614   5.318  12.884 -0.2231  0.2370  0.2425
10554TIP3    H153077   4.574   5.278  12.806  0.6280 -1.3021  0.5743
10554TIP3    H253078   4.540   5.354  12.933 -0.7717  1.2079 -1.2553
10555TIP3   OH253079   5.464   0.397  12.734  0.0351  0.2032  0.4312
10555TIP3    H153080   5.369   0.400  12.743  0.0223  0.3442  0.2478
10555TIP3    H253081   5.481   0.323  12.675  0.0091  0.5032  0.0446
10556TIP3   OH253082   1.662   0.445   5.750 -0.9832  0.5254 -0.5253
10556TIP3    H153083   1.593   0.390   5.713 -0.3076 -0.3324 -0.5238
10556TIP3    H253084   1.635   0.461   5.840 -0.8954 -0.2852 -0.3580
10557TIP3   OH253085   5.725   2.811   3.439  0.1135 -0.2907 -0.0639
10557TIP3    H153086   5.768   2.768   3.513  0.7761 -0.8557 -0.7705
10557TIP3    H253087   5.763   2.770   3.362  0.8411  1.6256 -0.7743
10558TIP3   OH253088   3.928   2.939  14.248  0.3048 -0.1286 -0.2025
10558TIP3    H153089   3.850   2.884  14.234  0.6552 -1.0721  1.4557
10558TIP3    H253090   3.896   3.029  14.235 -0.7895 -0.5727 -0.7018
10559TIP3   OH253091   6.670   4.746   4.194  0.1256 -0.9002  0.1116
10559TIP3    H153092   6.613   4.787   4.129 -0.1813 -0.9080  0.3723
10559TIP3    H253093   6.665   4.804   4.270  0.3436 -0.9837  0.1896
10560TIP3   OH253094   1.358   3.116   4.535 -0.2275  0.2365  0.1554
10560TIP3    H153095   1.386   3.201   4.570  1.0796 -0.6308  1.2913
10560TIP3    H253096   1.292   3.085   4.596 -0.3934  0.2491 -0.0179
10561TIP3   OH253097   3.483   4.987  11.259 -0.1592  0.1222  0.6573
10561TIP3    H153098   3.478   4.892  11.268 -0.9054  0.3165  2.4637
10561TIP3    H253099   3.425   5.008  11.186 -0.4662 -0.7391  0.6528
10562TIP3   OH253100   2.269   1.667  15.827 -0.4256  0.5703  0.2532
10562TIP3    H153101   2.314   1.752  15.834 -1.0446  0.8561  0.8867
10562TIP3    H253102   2.180   1.690  15.801 -0.5355  0.0949  0.2135
10563TIP3   OH253103   4.107   3.182   5.100  0.2080 -0.0879  0.2923
10563TIP3    H153104   4.130   3.094   5.130  1.0633  0.5311  1.5290
10563TIP3    H253105   4.055   3.219   5.171 -0.2005  0.3864 -0.2492
10564TIP3   OH253106   1.981   3.324  14.831 -0.8756  0.7831  0.4401
10564TIP3    H153107   1.956   3.295  14.743 -0.5109  2.7985 -0.3536
10564TIP3    H253108   1.903   3.309  14.884 -1.1146 -0.3922 -0.2204
10565TIP3   OH253109   0.973   4.204   0.666 -0.3694  0.6721  0.1779
10565TIP3    H153110   1.029   4.196   0.743  0.9146  1.2345 -0.6806
10565TIP3    H253111   1.027   4.250   0.602 -1.3956  0.1355 -1.0906
10566TIP3   OH253112   2.859   3.334  13.179 -0.1847 -0.6912  0.5808
10566TIP3    H153113   2.870   3.360  13.270  0.4709 -3.3951  1.3181
10566TIP3    H253114   2.900   3.404  13.129 -0.4769  0.7817  2.3481
10567TIP3   OH253115   2.071   5.603  14.840  0.3894 -0.2937  0.4404
10567TIP3    H153116   1.995   5.660  14.848 -0.3684 -0.7919 -2.6445
10567TIP3    H253117   2.081   5.563  14.927 -2.5028  0.1985  1.0299
10568TIP3   OH253118   3.192   1.376   3.032 -0.2508 -0.1099 -0.1421
10568TIP3    H153119   3.202   1.329   2.949 -0.0194 -0.5070  0.1134
10568TIP3    H253120   3.254   1.449   3.025 -1.7395  1.0811 -1.1932
10569TIP3   OH253121   4.464   4.410   0.899 -0.2417 -0.4185 -0.4661
10569TIP3    H153122   4.461   4.479   0.966  0.4257  0.1958 -1.0645
10569TIP3    H253123   4.434   4.331   0.945 -1.5127  0.3618  0.0907
10570TIP3   OH253124   1.068   2.988  17.178 -0.4548 -0.7012 -0.5612
10570TIP3    H153125   1.140   2.985  17.241 -0.3482 -1.7813 -0.7260
10570TIP3    H253126   1.110   2.972  17.093 -0.8308 -0.8843 -0.7165
10571TIP3   OH253127   2.141   4.818   1.991  0.2363  0.3055 -0.0187
10571TIP3    H153128   2.133   4.902   1.946 -1.1291  0.4156  0.3861
10571TIP3    H253129   2.106   4.754   1.929  1.4094  0.0217 -0.3825
10572TIP3   OH253130   2.058   1.621   3.752 -0.6329  0.4267  0.5403
10572TIP3    H153131   1.976   1.580   3.779 -0.9089  1.0410  0.6604
10572TIP3    H253132   2.036   1.714   3.743 -0.2805  0.3853 -0.7991
10573TIP3   OH253133   3.624   6.496   0.010 -0.5678 -0.5257 -0.1580
10573TIP3    H153134   3.559   6.498  -0.060 -0.1464  0.1954 -0.5314
10573TIP3    H253135   3.581   6.537   0.085 -0.3330  0.5074 -0.5869
10574TIP3   OH253136   0.772   2.865  14.325  0.6741 -0.1519  0.6859
10574TIP3    H153137   0.779   2.769  14.323  1.8539 -0.1291  2.4986
10574TIP3    H253138   0.802   2.893  14.239 -0.0666 -1.4357 -0.0037
10575TIP3   OH253139   5.398   2.710   2.334  0.7230 -0.0134 -0.2445
10575TIP3    H153140   5.356   2.699   2.248  0.6537 -1.0305 -0.0830
10575TIP3    H253141   5.383   2.802   2.355  1.0553  0.3350 -1.4857
10576TIP3   OH253142   4.071   0.557  16.358 -0.5254 -0.0816  1.4237
10576TIP3    H153143   4.000   0.613  16.387 -1.4271 -0.8892  0.8015
10576TIP3    H253144   4.033   0.469  16.358  0.5318 -0.5431  1.2749
10577TIP3   OH253145   3.673   6.015   4.955  0.0770  0.3335  0.2564
10577TIP3    H153146   3.687   6.051   4.867 -0.0542  2.4505  1.0739
10577TIP3    H253147   3.713   5.928   4.952  2.1694  1.3023 -1.2155
10578TIP3   OH253148   4.804   3.178   5.424  0.1040 -0.5271  0.0693
10578TIP3    H153149   4.720   3.153   5.386  0.8719 -2.4512 -0.3993
10578TIP3    H253150   4.796   3.155   5.517  0.1375 -0.7588  0.0138
10579TIP3   OH253151   5.510   4.012   0.005 -0.3854 -0.1102 -0.1418
10579TIP3    H153152   5.579   3.967   0.054  0.6486 -0.4556 -1.8658
10579TIP3    H253153   5.544   4.101  -0.007 -0.7305  0.0345 -0.0332
10580TIP3   OH253154   4.740   0.290   5.580 -0.7001  0.4810  0.0452
10580TIP3    H153155   4.736   0.246   5.495 -0.7196 -0.6192  0.6059
10580TIP3    H253156   4.777   0.376   5.561 -0.4710  0.1495 -1.0410
10581TIP3   OH253157   4.568   4.298   0.675  0.4211  0.4709  0.4824
10581TIP3    H153158   4.532   4.338   0.754 -0.1279 -1.2472  1.1265
10581TIP3    H253159   4.612   4.219   0.706 -0.2823 -0.5201 -1.0043
10582TIP3   OH253160   3.100   1.277  14.594 -0.0329 -0.1708 -0.0082
10582TIP3    H153161   3.124   1.339  14.663 -1.1004  0.7658 -0.4679
10582TIP3    H253162   3.133   1.316  14.513  2.1708 -1.7861  0.0655
10583TIP3   OH253163   5.085   2.333   5.021  0.6074  0.0537 -0.3582
10583TIP3    H153164   5.027   2.386   4.966 -1.0071 -2.0908 -0.7943
10583TIP3    H253165   5.146   2.292   4.960  0.3106 -0.4879 -0.2915
10584TIP3   OH253166   1.315   5.422  11.929 -0.4871  0.0432  0.7143
10584TIP3    H153167   1.247   5.468  11.880 -1.1155  0.3944  1.9146
10584TIP3    H253168   1.391   5.422  11.870 -0.5338  2.4050  0.5969
10585TIP3   OH253169   2.122   4.714   1.509 -0.3335  0.0867  1.1862
10585TIP3    H153170   2.127   4.800   1.468  0.9050 -0.0122  1.1268
10585TIP3    H253171   2.046   4.720   1.568 -0.5120  1.0733  0.8647
10586TIP3   OH253172   4.015   3.715  14.554 -0.1271  0.0277 -0.0172
10586TIP3    H153173   4.017   3.685  14.645 -0.3428 -0.1276 -0.0623
10586TIP3    H253174   4.089   3.775  14.546 -0.5279  0.5989  0.4574
10587TIP3   OH253175   1.095   4.113  15.521 -0.1348  0.1244 -0.1243
10587TIP3    H153176   1.066   4.199  15.491  2.0926  1.1106  0.4719
10587TIP3    H253177   1.047   4.098  15.602 -0.4587  0.8315 -0.1888
10588TIP3   OH253178   0.322   4.709  13.454 -0.0764 -0.0792 -0.3235
10588TIP3    H153179   0.331   4.616  13.436 -0.1230  0.1174 -1.4264
10588TIP3    H253180   0.296   4.747  13.370  1.0971  1.0808 -0.1740
10589TIP3   OH253181   6.264   2.451   5.821  0.8463 -0.5056 -0.1259
10589TIP3    H153182   6.232   2.537   5.850  2.5849 -0.5759  2.1613
10589TIP3    H253183   6.206   2.388   5.864 -0.6959 -0.4982 -2.1432
10590TIP3   OH253184   2.844   5.771   6.381  0.5760  0.7741 -0.6128
10590TIP3    H153185   2.810   5.859   6.368 -4.2300 -1.0279 -1.5311
10590TIP3    H253186   2.813   5.746   6.468 -0.9294 -1.0734 -1.6302
10591TIP3   OH253187   5.690   1.409  15.064 -0.0558 -0.0534 -0.1179
10591TIP3    H153188   5.783   1.415  15.089  0.1322  0.1641 -0.8416
10591TIP3    H253189   5.642   1.417  15.146  0.6151 -1.9273  0.4872
10592TIP3   OH253190   6.121   5.409   6.134  0.0518  0.3689 -0.0409
10592TIP3    H153191   6.064   5.476   6.098 -3.8087 -2.6703  0.0636
10592TIP3    H253192   6.101   5.408   6.228 -0.0386 -0.9542 -0.0608
10593TIP3   OH253193   4.646   3.449   6.450  0.6758 -0.2552  0.3226
10593TIP3    H153194   4.664   3.478   6.539  0.5294 -2.1078  0.9764
10593TIP3    H253195   4.594   3.369   6.461 -0.3439  0.1331 -1.4332
10594TIP3   OH253196   4.584   4.726   0.998 -0.1803 -0.1169 -0.1440
10594TIP3    H153197   4.572   4.704   1.091  1.4659  0.1612  0.1554
10594TIP3    H253198   4.506   4.777   0.975  0.8505  2.5267  1.9617
10595TIP3   OH253199   6.022   1.678  16.139  0.5099 -0.1944  0.3368
10595TIP3    H153200   6.094   1.739  16.154  0.5122  0.1950 -1.1552
10595TIP3    H253201   6.055   1.619  16.071  0.3313 -1.5864  1.4268
10596TIP3   OH253202   5.644   2.625  16.883 -0.1928 -0.2059 -0.2697
10596TIP3    H153203   5.691   2.542  16.889 -1.0377 -0.6684 -0.0456
10596TIP3    H253204   5.564   2.611  16.933  0.9387  1.6603  2.1915
10597TIP3   OH253205   5.993   1.510   5.172 -0.1355  0.2863  0.5060
10597TIP3    H153206   6.058   1.546   5.111 -0.5899  0.2113 -0.0278
10597TIP3    H253207   5.937   1.584   5.193  0.8256  0.6431  1.9118
10598TIP3   OH253208   5.930   1.794   5.171  0.9140 -0.4147  0.2310
10598TIP3    H153209   5.967   1.770   5.087 -0.7910 -0.8767 -0.4046
10598TIP3    H253210   5.996   1.851   5.211  1.1759  0.8586 -1.9516
10599TIP3   OH253211   3.780   4.567  11.407 -0.4054  0.5270  0.0675
10599TIP3    H153212   3.851   4.630  11.414 -0.0628  0.7864 -4.4626
10599TIP3    H253213   3.817   4.485  11.440  1.8212  0.7982 -1.6946
10600TIP3   OH253214   2.232   0.095  16.282 -0.3846 -0.0427  0.5532
10600TIP3    H153215   2.188   0.017  16.249  0.7900 -0.3826 -0.2004
10600TIP3    H253216   2.223   0.160  16.212  0.6040 -0.2212  0.2517
10601TIP3   OH253217   2.617   5.921  10.330  0.1567  0.1508 -0.6245
10601TIP3    H153218   2.561   5.916  10.408  0.6850 -0.4709 -0.2731
10601TIP3    H253219   2.556   5.926  10.257 -0.3786 -1.6426 -0.3234
10602TIP3   OH253220   1.360   6.388   3.020  0.0200  0.0113 -0.1342
10602TIP3    H153221   1.414   6.466   3.033 -1.0041  0.9110 -1.2235
10602TIP3    H253222   1.397   6.346   2.943 -2.0819  1.7610 -2.1795
10603TIP3   OH253223   4.773   3.676   3.665 -0.3221  0.0344 -0.1094
10603TIP3    H153224   4.720   3.643   3.592 -0.9181 -0.8310  0.6893
10603TIP3    H253225   4.851   3.712   3.624  0.0605 -1.8348 -1.0767
10604TIP3   OH253226   5.682   5.299  13.054 -0.1096  0.0708  0.7482
10604TIP3    H153227   5.735   5.373  13.027 -0.0789 -0.0112  0.5844
10604TIP3    H253228   5.626   5.280  12.979 -2.5443  2.0963  1.9549
10605TIP3   OH253229   5.915   4.703  11.391  0.4132  0.0365 -0.2528
10605TIP3    H153230   5.838   4.716  11.334 -0.3924  0.1659  0.8434
10605TIP3    H253231   5.948   4.617  11.366  0.8537  0.6368 -1.8187
10606TIP3   OH253232   4.936   0.684   4.734  0.8779 -0.0392 -0.2539
10606TIP3    H153233   4.961   0.641   4.816  0.3493 -0.0302 -0.0840
10606TIP3    H253234   4.966   0.774   4.744  3.0942 -0.6550 -1.1118
10607TIP3   OH253235   6.267   1.964  12.991  0.2572 -1.1079  0.0560
10607TIP3    H153236   6.351   1.970  12.946  0.5945  0.1696  0.8059
10607TIP3    H253237   6.252   1.870  13.002  1.3720 -1.3594 -0.4893
10608TIP3   OH253238   4.087   6.096   2.896  0.2878 -0.1943  0.1246
10608TIP3    H153239   4.123   6.027   2.839  1.6979  0.7123 -0.1299
10608TIP3    H253240   4.054   6.162   2.835  3.5213  1.6753  0.2295
10609TIP3   OH253241   2.492   1.147  13.865  0.1762  0.1009 -0.0867
10609TIP3    H153242   2.410   1.099  13.862  0.0766  0.3368 -1.6254
10609TIP3    H253243   2.560   1.081  13.852  0.1014  0.1957 -1.0102
10610TIP3   OH253244   5.154   1.949  15.129 -0.0604 -0.2491 -0.1189
10610TIP3    H153245   5.094   1.923  15.059  0.2297 -1.2697  0.0020
10610TIP3    H253246   5.164   2.043  15.118 -0.6211 -0.2812 -0.9797
10611TIP3   OH253247   4.748   6.358  12.383 -0.0221 -0.3778 -0.5938
10611TIP3    H153248   4.721   6.412  12.308  0.1698 -0.4244 -0.6961
10611TIP3    H253249   4.815   6.410  12.428  1.7555 -1.4529 -1.9349
10612TIP3   OH253250   2.729   1.577   0.134 -0.4294 -0.2931 -0.1206
10612TIP3    H153251   2.765   1.520   0.066  0.2661  0.1546 -0.1252
10612TIP3    H253252   2.796   1.643   0.149  0.4779 -1.7546  2.6990
10613TIP3   OH253253   3.391   2.542  11.186 -0.5831 -0.3048 -0.2379
10613TIP3    H153254   3.331   2.616  11.200 -1.9103 -1.1630 -1.2706
10613TIP3    H253255   3.468   2.564  11.238 -1.3691  1.3284  0.2810
10614TIP3   OH253256   2.546   2.861  16.283 -0.2151  0.7537 -0.0438
10614TIP3    H153257   2.453   2.838  16.289 -0.5448  2.0849  0.1592
10614TIP3    H253258   2.548   2.955  16.303  1.1497  0.7692 -0.2536
10615TIP3   OH253259   0.336   1.807  14.464  0.0961 -0.1064  0.4451
10615TIP3    H153260   0.382   1.737  14.511 -0.7087 -0.8831  0.0852
10615TIP3    H253261   0.278   1.761  14.403 -0.1150  0.8820 -0.1038
10616TIP3   OH253262   1.941   5.801  13.807  0.2901 -0.1266  0.6140
10616TIP3    H153263   1.986   5.826  13.887  0.7547  0.8164  0.0595
10616TIP3    H253264   1.851   5.831  13.819  0.3909  0.1259  0.7331
10617TIP3   OH253265   0.466   0.715  11.921 -0.2081 -0.6769 -0.6697
10617TIP3    H153266   0.411   0.739  11.847  0.8502 -1.1963 -1.6468
10617TIP3    H253267   0.407   0.674  11.984 -1.3219  0.8670 -0.7055
10618TIP3   OH253268   0.596   0.746   5.458 -0.3530  0.0199 -0.1239
10618TIP3    H153269   0.605   0.735   5.553  0.1010 -0.8608 -0.2718
10618TIP3    H253270   0.521   0.805   5.448  1.3831  2.4819  0.8928
10619TIP3   OH253271   6.210   3.117   1.698 -0.0630 -0.0870 -0.9744
10619TIP3    H153272   6.294   3.162   1.688  0.1872 -0.2335  0.3942
10619TIP3    H253273   6.223   3.031   1.657  0.0600  0.3476 -1.8572
10620TIP3   OH253274   2.657   6.552   1.173  0.3373  0.3329 -0.1639
10620TIP3    H153275   2.745   6.525   1.198  0.6234  0.5364 -0.9531
10620TIP3    H253276   2.664   6.578   1.081 -0.5384  0.3698 -0.2298
10621TIP3   OH253277   1.212   5.096   1.545  0.0417  0.1929 -0.0393
10621TIP3    H153278   1.142   5.159   1.530  0.8716  1.2266  0.3562
10621TIP3    H253279   1.261   5.132   1.619  1.1384 -0.3856 -0.4716
10622TIP3   OH253280   3.338   1.436  15.544  0.4391 -0.4251  0.2465
10622TIP3    H153281   3.408   1.387  15.588  2.4314  2.1726  0.0741
10622TIP3    H253282   3.327   1.515  15.596 -1.9735 -0.5289 -0.0846
10623TIP3   OH253283   4.019   3.197   6.017 -0.1813  0.2478 -0.0036
10623TIP3    H153284   4.049   3.267   5.960 -2.5197  0.4203 -1.0929
10623TIP3    H253285   4.074   3.122   5.995  2.5616  1.8009  1.4179
10624TIP3   OH253286   5.925   2.548   0.595 -0.3028 -0.4525  0.3799
10624TIP3    H153287   5.993   2.547   0.527 -0.4216 -0.0218  0.2493
10624TIP3    H253288   5.954   2.615   0.657 -0.1555 -0.8985  0.7981
10625TIP3   OH253289   4.893   2.862   2.261 -0.3214 -0.7563  0.0631
10625TIP3    H153290   4.909   2.819   2.177 -0.5193 -0.8675  0.0808
10625TIP3    H253291   4.932   2.803   2.326 -0.2937 -0.7409  0.0597
10626TIP3   OH253292   5.940   5.688  10.477  0.4692  0.1633 -0.5364
10626TIP3    H153293   5.987   5.756  10.525  1.1342 -0.4544 -0.3156
10626TIP3    H253294   5.858   5.677  10.524  0.0589  1.2991 -0.9671
10627TIP3   OH253295   2.126   0.431   1.524  0.0804  0.1033  0.1685
10627TIP3    H153296   2.209   0.453   1.481  0.1217  1.3917  0.8833
10627TIP3    H253297   2.138   0.461   1.614 -1.0600  0.0402  0.3371
10628TIP3   OH253298   6.709   6.123  15.813  0.0975  0.2708 -0.8997
10628TIP3    H153299   6.754   6.046  15.847  0.8018  0.4248 -1.4781
10628TIP3    H253300   6.777   6.189  15.801 -0.5369  1.0806 -0.1708
10629TIP3   OH253301   0.062   6.368   5.882  0.2606 -0.4472  0.3041
10629TIP3    H153302  -0.016   6.318   5.904 -1.5368  1.7560 -0.8262
10629TIP3    H253303   0.059   6.377   5.787  2.0461 -0.5802  0.2167
10630TIP3   OH253304   4.281   6.552  16.566  0.1385  0.2384 -0.0273
10630TIP3    H153305   4.207   6.535  16.624  0.7221 -0.5297  0.5064
10630TIP3    H253306   4.247   6.614  16.502 -0.9898 -0.1726  0.1563
10631TIP3   OH253307   6.002   6.132   5.001  0.3042 -0.3210 -0.4318
10631TIP3    H153308   6.009   6.050   4.953 -3.0463 -1.1318  0.3420
10631TIP3    H253309   6.035   6.112   5.088 -0.5001 -0.8869 -0.2457
10632TIP3   OH253310   2.811   4.990   0.089  0.2827  0.3107  0.4785
10632TIP3    H153311   2.754   4.920   0.120  1.1050 -0.0585  1.2060
10632TIP3    H253312   2.882   4.945   0.044 -0.9488  0.8478 -2.1091
10633TIP3   OH253313   4.869   4.445  11.318 -0.1786  0.6021 -0.0430
10633TIP3    H153314   4.959   4.432  11.347  0.1428 -1.2177 -1.7016
10633TIP3    H253315   4.854   4.539  11.324  1.5140  0.8069  1.1379
10634TIP3   OH253316   0.576   3.313  12.538  0.0112 -0.5527  0.3051
10634TIP3    H153317   0.632   3.236  12.551  1.3635  0.4837  0.6741
10634TIP3    H253318   0.504   3.301  12.600  0.2130 -1.5097  0.3661
10635TIP3   OH253319   0.396   6.191   2.250 -0.1539  0.6708  0.6782
10635TIP3    H153320   0.450   6.170   2.326 -1.8289  0.2575  1.7885
10635TIP3    H253321   0.309   6.159   2.273  0.2067 -3.5532 -3.2411
10636TIP3   OH253322   5.777   5.317  16.536  0.3248  0.4304  1.0480
10636TIP3    H153323   5.836   5.391  16.554  2.1950 -0.9051  0.5707
10636TIP3    H253324   5.798   5.291  16.447 -0.5603 -0.4648  1.0990
10637TIP3   OH253325   0.379   1.072   4.921 -0.1413 -0.7483  0.0383
10637TIP3    H153326   0.400   0.979   4.908 -0.4498 -0.9749  1.1797
10637TIP3    H253327   0.451   1.104   4.976  0.7136  0.0265 -1.4870
10638TIP3   OH253328   6.096   3.315   3.432 -0.2123  0.1207 -0.1256
10638TIP3    H153329   6.093   3.245   3.367  2.3891 -0.1464 -0.0355
10638TIP3    H253330   6.156   3.380   3.394  2.0523 -0.4381  2.3303
10639TIP3   OH253331   5.301   4.938  11.612 -0.0391 -0.4034  0.0123
10639TIP3    H153332   5.329   4.916  11.701 -0.7084  0.0310  0.3353
10639TIP3    H253333   5.238   5.010  11.624 -2.3585 -2.2704 -0.5910
10640TIP3   OH253334   4.620   1.490  11.750 -0.3846 -0.0014  0.0713
10640TIP3    H153335   4.630   1.493  11.845  0.6929  0.9103 -0.0546
10640TIP3    H253336   4.541   1.438  11.736 -2.3236  2.3982  1.5904
10641TIP3   OH253337   5.504   1.746  11.089  0.3305 -0.4635 -0.1227
10641TIP3    H153338   5.456   1.824  11.063  0.7406  0.7871  2.7569
10641TIP3    H253339   5.441   1.675  11.080 -1.2921  0.7895  1.0938
10642TIP3   OH253340   2.118   3.288   5.077 -0.7117 -0.0623 -0.2104
10642TIP3    H153341   2.171   3.367   5.078 -2.1125  0.9170 -0.6716
10642TIP3    H253342   2.145   3.239   5.155  0.1750  0.8585  0.0699
10643TIP3   OH253343   1.565   5.843   5.026  0.2177  0.0519 -0.2410
10643TIP3    H153344   1.631   5.774   5.033 -0.7396 -0.8537 -0.0653
10643TIP3    H253345   1.487   5.806   5.066 -0.5606  0.9292 -0.9324
10644TIP3   OH253346   0.924   6.507  14.830 -0.3712  0.4263 -0.1666
10644TIP3    H153347   1.016   6.517  14.854 -0.4128  1.0690 -0.2541
10644TIP3    H253348   0.925   6.475  14.740 -0.2292  0.2930 -0.1159
10645TIP3   OH253349   4.367   4.901  14.507 -0.1468  0.0485 -0.3859
10645TIP3    H153350   4.307   4.904  14.582 -0.5668 -1.9200 -0.6106
10645TIP3    H253351   4.313   4.926  14.432 -0.5366 -1.0538 -0.4835
10646TIP3   OH253352   2.551   3.591  16.083  0.4829 -0.4396  0.0997
10646TIP3    H153353   2.607   3.642  16.024  0.5250 -0.9709 -0.3213
10646TIP3    H253354   2.518   3.655  16.146  1.0938 -0.0155 -0.0078
10647TIP3   OH253355   0.522   4.240   3.762 -0.0284  0.5677  0.0957
10647TIP3    H153356   0.549   4.179   3.830  1.0054  1.3240  0.3794
10647TIP3    H253357   0.436   4.209   3.734  0.3264 -0.7888  0.4911
10648TIP3   OH253358   4.032   5.272  13.371  0.0431 -0.5949  0.0304
10648TIP3    H153359   4.014   5.245  13.461  0.7885 -0.8613  0.0990
10648TIP3    H253360   3.988   5.206  13.317 -0.1844 -0.5824  0.1980
10649TIP3   OH253361   6.432   3.773   4.377 -0.2220  0.3765  0.2456
10649TIP3    H153362   6.362   3.730   4.327  0.1977 -3.0839  2.4768
10649TIP3    H253363   6.513   3.740   4.338  0.1070 -0.4948  1.6169
10650TIP3   OH253364   2.805   6.727   4.546 -0.1626  0.4797  0.6884
10650TIP3    H153365   2.712   6.747   4.532 -0.3124 -0.2107  0.6399
10650TIP3    H253366   2.852   6.793   4.496 -0.6650 -0.1833 -0.6927
10651TIP3   OH253367   1.560   4.136   4.312 -0.7707  0.2903  0.0038
10651TIP3    H153368   1.640   4.170   4.270 -0.8309  0.8296  0.3236
10651TIP3    H253369   1.524   4.211   4.360 -1.4450  0.0350 -0.0958
10652TIP3   OH253370   4.280   5.926   3.342  0.3899  0.0600 -0.3642
10652TIP3    H153371   4.252   5.979   3.268  0.5160  1.4833  0.5788
10652TIP3    H253372   4.218   5.853   3.345 -1.3730  1.5357 -0.1522
10653TIP3   OH253373   0.257   4.122  11.436 -0.1092  0.2872 -0.7236
10653TIP3    H153374   0.285   4.214  11.434 -1.4733  0.7352  0.2149
10653TIP3    H253375   0.165   4.125  11.412 -0.4328 -0.7318  0.3797
10654TIP3   OH253376   3.712   5.665  13.163  0.0003 -0.0779  0.0726
10654TIP3    H153377   3.635   5.661  13.219 -0.3985  0.7689 -0.4033
10654TIP3    H253378   3.778   5.611  13.207 -1.1412 -1.5229  0.0379
10655TIP3   OH253379   5.439   5.296   3.276 -0.2306  0.0428 -0.4349
10655TIP3    H153380   5.393   5.214   3.294  0.2442  0.0935  1.0441
10655TIP3    H253381   5.518   5.291   3.330  0.7931  0.6039 -1.8334
10656TIP3   OH253382   1.563   3.282   4.290  0.0322 -0.6773  0.2032
10656TIP3    H153383   1.486   3.329   4.321 -0.3998 -1.2918  0.0627
10656TIP3    H253384   1.619   3.274   4.367 -0.8507 -1.8286  0.7365
10657TIP3   OH253385   6.359   0.454  12.408 -0.9113  0.0328  0.8281
10657TIP3    H153386   6.452   0.459  12.427 -1.1627  0.0854  2.0851
10657TIP3    H253387   6.344   0.523  12.343  0.0733 -0.5409 -0.0173
10658TIP3   OH253388   3.623   3.287   3.474  0.5224 -0.3773 -0.1548
10658TIP3    H153389   3.715   3.287   3.503  0.6802  1.0035 -0.6397
10658TIP3    H253390   3.614   3.366   3.421 -1.1275 -0.1680  0.4139
10659TIP3   OH253391   6.217   6.503  11.794  0.0896  0.5369 -0.1690
10659TIP3    H153392   6.252   6.593  11.795  0.4067  0.3996  0.8717
10659TIP3    H253393   6.211   6.478  11.886  2.4509 -1.4553 -0.5017
10660TIP3   OH253394   2.755   2.721  16.874 -0.3421 -0.3298 -0.2613
10660TIP3    H153395   2.843   2.759  16.876  0.7234 -2.6454 -2.2591
10660TIP3    H253396   2.725   2.727  16.965  2.8444 -1.7591  0.9471
10661TIP3   OH253397   6.741   5.336   4.031  0.2411  0.8946 -0.1643
10661TIP3    H153398   6.712   5.419   3.992 -0.0219 -0.0635 -2.0451
10661TIP3    H253399   6.682   5.270   3.993 -0.7335  0.0417  2.6751
10662TIP3   OH253400   3.744   6.065   6.118 -0.1105 -1.0933 -0.5147
10662TIP3    H153401   3.651   6.065   6.139 -0.3412  2.2240 -1.1617
10662TIP3    H253402   3.788   6.079   6.201 -0.3398 -0.5093 -0.4855
10663TIP3   OH253403   0.911   1.680   4.454 -0.0260 -0.2317  0.0542
10663TIP3    H153404   0.899   1.589   4.428  0.4447 -0.4834  0.6979
10663TIP3    H253405   0.868   1.687   4.539 -1.0200  0.4305 -0.4949
10664TIP3   OH253406   1.470   5.033  11.742 -0.0564  0.4422  0.1355
10664TIP3    H153407   1.492   5.069  11.828  1.4241 -0.4808  0.1721
10664TIP3    H253408   1.382   4.997  11.753 -0.1383  0.9077  1.0855
10665TIP3   OH253409   3.111   4.448  14.622  0.1571  0.5911  0.9763
10665TIP3    H153410   3.074   4.379  14.676  2.4215 -0.5613  1.0934
10665TIP3    H253411   3.043   4.467  14.558 -1.7634  0.5570  2.9410
10666TIP3   OH253412   3.679   4.244  15.819  0.7369  0.6991  0.0939
10666TIP3    H153413   3.664   4.338  15.827 -1.2008  0.4506 -0.4542
10666TIP3    H253414   3.690   4.214  15.910  1.0283  1.3738  0.2929
10667TIP3   OH253415   3.351   1.421   1.560  0.1496  0.2123  0.2285
10667TIP3    H153416   3.346   1.504   1.608  1.3699  0.3212  0.1930
10667TIP3    H253417   3.435   1.425   1.514  0.3486 -1.1546  0.4395
10668TIP3   OH253418   2.147   6.194  11.015  0.7073  0.0459  0.4060
10668TIP3    H153419   2.149   6.286  11.042 -4.5034  0.8774 -1.5789
10668TIP3    H253420   2.151   6.197  10.920 -2.9950 -1.5165  0.1456
10669TIP3   OH253421   0.678   4.061   3.899 -0.0825 -0.6227  0.2978
10669TIP3    H153422   0.695   4.070   3.805  0.8155 -1.0632  0.4066
10669TIP3    H253423   0.647   3.970   3.908  0.2645 -0.7233  0.4833
10670TIP3   OH253424   1.672   5.852   2.347 -0.8710  0.0743 -0.2903
10670TIP3    H153425   1.592   5.848   2.401 -1.1286 -0.5412 -0.7044
10670TIP3    H253426   1.665   5.776   2.290 -0.1624  0.2323 -0.5867
10671TIP3   OH253427   1.017   3.922   0.395  0.5604  0.8346  0.0770
10671TIP3    H153428   1.063   3.864   0.334  0.7258 -0.1847  1.1461
10671TIP3    H253429   0.939   3.950   0.347 -0.3992 -1.6279  0.1167
10672TIP3   OH253430   6.199   6.182   3.941  0.3780  0.3697 -0.0345
10672TIP3    H153431   6.240   6.164   4.026  0.6159  2.1334  0.2402
10672TIP3    H253432   6.269   6.221   3.889 -0.5356  1.9818 -0.0695
10673TIP3   OH253433   0.914   0.158  10.234  0.0167 -0.1291 -0.6910
10673TIP3    H153434   0.892   0.162  10.141  1.3120 -1.9858 -1.1030
10673TIP3    H253435   0.981   0.226  10.245  0.8521 -0.8209 -1.4159
10674TIP3   OH253436   2.410   6.289  10.856 -0.2195 -0.5014 -0.2947
10674TIP3    H153437   2.324   6.269  10.819  0.4904 -1.5548 -1.4441
10674TIP3    H253438   2.463   6.313  10.780  0.3713  0.5994  0.4571
10675TIP3   OH253439   4.918   1.956  12.472 -0.0638 -0.2829  0.1456
10675TIP3    H153440   4.940   2.007  12.395 -0.4446 -0.8132 -0.3232
10675TIP3    H253441   4.997   1.960  12.527 -0.1462  0.9129  0.1835
10676TIP3   OH253442   0.899   6.491   2.221 -0.0896 -0.3245 -0.1431
10676TIP3    H153443   0.983   6.537   2.223 -0.3164  0.1812 -1.6279
10676TIP3    H253444   0.920   6.404   2.187  0.1724 -0.9957  1.6644
10677TIP3   OH253445   1.681   1.492  11.412 -0.2313 -0.0577 -0.1456
10677TIP3    H153446   1.657   1.510  11.321  0.0801  0.3527 -0.1500
10677TIP3    H253447   1.598   1.491  11.459 -0.2978  0.8930 -0.2389
10678TIP3   OH253448   5.356   4.223   4.033 -0.2434 -0.2732 -0.3712
10678TIP3    H153449   5.441   4.185   4.056  0.5720  2.3328  1.2163
10678TIP3    H253450   5.292   4.156   4.057  1.2329 -1.3174  0.7434
10679TIP3   OH253451   6.771   3.490   1.800 -0.0473  0.2707 -0.7871
10679TIP3    H153452   6.739   3.509   1.712 -1.9742 -0.7719 -0.3516
10679TIP3    H253453   6.692   3.487   1.854  1.0196 -0.0288  0.8030
10680TIP3   OH253454   3.909   1.112  14.248 -0.0242  0.1906  0.1650
10680TIP3    H153455   3.960   1.146  14.321  0.6709 -0.5182  0.0178
10680TIP3    H253456   3.913   1.017  14.258 -0.0267  0.0895 -0.7256
10681TIP3   OH253457   3.903   4.240   5.660  0.8413  0.1845 -0.0976
10681TIP3    H153458   3.904   4.283   5.574 -0.6819 -2.1118 -1.2980
10681TIP3    H253459   3.894   4.147   5.641  0.7093 -0.3948  2.5703
10682TIP3   OH253460   4.132   4.927   3.559  0.0709  0.5596  0.4465
10682TIP3    H153461   4.075   4.851   3.569  1.8602 -0.6469  1.8489
10682TIP3    H253462   4.102   4.989   3.625 -1.4686  1.1591 -0.7783
10683TIP3   OH253463   2.544   4.647  11.332 -0.4095  0.1226 -0.4048
10683TIP3    H153464   2.516   4.711  11.266  1.1771  2.1053  0.7916
10683TIP3    H253465   2.634   4.672  11.353  0.5090 -2.9708 -0.4079
10684TIP3   OH253466   6.706   0.867   5.406 -0.0161 -0.5325 -0.2296
10684TIP3    H153467   6.681   0.936   5.467  0.0404 -1.1787  0.5284
10684TIP3    H253468   6.799   0.882   5.390 -1.0059  2.5614 -3.9333
10685TIP3   OH253469   3.078   3.856   3.155 -0.4407  0.8269 -0.2280
10685TIP3    H153470   3.096   3.885   3.244  1.0965 -0.0304 -0.2419
10685TIP3    H253471   3.158   3.811   3.127 -2.0016 -1.6882 -0.8991
10686TIP3   OH253472   3.886   2.740   4.434 -0.3205  0.0360  0.9608
10686TIP3    H153473   3.845   2.690   4.504 -0.3656  0.0620  0.9523
10686TIP3    H253474   3.903   2.827   4.472  0.3403 -0.1840  1.1775
10687TIP3   OH253475   1.698   1.808   5.627  0.1548  0.2203 -0.3365
10687TIP3    H153476   1.675   1.829   5.536  2.0982 -1.7670 -1.3513
10687TIP3    H253477   1.766   1.871   5.650  0.7416 -0.2224 -0.8198
10688TIP3   OH253478   4.820   6.296   2.817 -0.3592 -0.5757  0.0928
10688TIP3    H153479   4.903   6.289   2.770  0.1668 -1.5639  1.1333
10688TIP3    H253480   4.837   6.255   2.902 -0.9028  2.2974  1.6642
10689TIP3   OH253481   1.117   0.280   4.412  0.4702 -0.0660 -0.7609
10689TIP3    H153482   1.125   0.287   4.507  0.6125 -0.4349 -0.7455
10689TIP3    H253483   1.062   0.204   4.397  1.9380 -1.1107 -1.0083
10690TIP3   OH253484   1.499   1.586   4.042  0.7002 -0.7226  0.3943
10690TIP3    H153485   1.438   1.545   3.981 -1.1641 -0.1262  1.8254
10690TIP3    H253486   1.563   1.518   4.063  1.1871 -1.0142 -1.9658
10691TIP3   OH253487   4.015   5.304  16.206 -0.9739 -0.2973  0.3921
10691TIP3    H153488   4.071   5.358  16.262  2.7389 -0.9230 -2.5311
10691TIP3    H253489   3.965   5.368  16.155 -0.5548  0.3259  0.7396
10692TIP3   OH253490   3.853   3.437  16.440 -0.3673 -0.0684 -0.5164
10692TIP3    H153491   3.816   3.353  16.466  1.2944 -0.2192  1.5253
10692TIP3    H253492   3.946   3.419  16.429 -0.4320  0.9032 -2.8508
10693TIP3   OH253493   4.401   6.256   4.627 -0.3520  0.1753  0.0605
10693TIP3    H153494   4.373   6.256   4.719 -1.7390  1.6423 -0.3382
10693TIP3    H253495   4.487   6.297   4.629  1.2645 -3.0879  1.1180
10694TIP3   OH253496   2.012   4.220   5.184 -0.5836 -0.0500  0.3986
10694TIP3    H153497   2.000   4.128   5.161 -1.6679 -0.2800  1.8181
10694TIP3    H253498   2.071   4.219   5.259 -1.9424  0.3004  1.4794
10695TIP3   OH253499   1.001   3.959  12.354 -0.2895  0.2040 -0.4564
10695TIP3    H153500   0.987   4.037  12.408 -1.9438 -1.3926  1.5380
10695TIP3    H253501   0.943   3.893  12.392  1.1588 -2.0486 -2.0061
10696TIP3   OH253502   4.611   1.040   4.314  0.4226 -0.0003  0.1620
10696TIP3    H153503   4.634   1.115   4.369  0.4210  1.3218 -1.6052
10696TIP3    H253504   4.558   0.984   4.371 -0.2970  1.7447  1.2604
10697TIP3   OH253505   0.316   2.940   3.601  0.0142  0.2293 -0.3017
10697TIP3    H153506   0.360   2.864   3.563  0.3319  0.3847 -0.2493
10697TIP3    H253507   0.376   2.971   3.670  0.4838  1.2898 -1.1740
10698TIP3   OH253508   6.562   4.052  14.872  0.0538 -0.0925 -0.0039
10698TIP3    H153509   6.543   4.145  14.886 -1.1157  0.0351 -2.3700
10698TIP3    H253510   6.635   4.052  14.810  1.1754 -0.7645  1.2796
10699TIP3   OH253511   5.144   4.305  13.890  0.1805  0.1498  0.4249
10699TIP3    H153512   5.122   4.373  13.955 -0.6003  0.8936 -0.5996
10699TIP3    H253513   5.093   4.229  13.917  0.0263  0.3857  0.8111
10700TIP3   OH253514   4.704   6.362  13.210  0.2030  0.2679  1.1975
10700TIP3    H153515   4.721   6.273  13.243 -3.5390 -0.6597  0.8457
10700TIP3    H253516   4.675   6.349  13.120  0.6810  1.9611  0.7807
10701TIP3   OH253517   5.424   0.291   5.368 -0.2696 -0.3376 -0.1940
10701TIP3    H153518   5.403   0.293   5.461 -1.8948 -1.4342 -0.5132
10701TIP3    H253519   5.513   0.326   5.362 -0.4861  0.5744  1.6677
10702TIP3   OH253520   6.679   2.302  16.988  0.6083  0.1614  0.3753
10702TIP3    H153521   6.615   2.274  16.923 -0.0813  1.4740  0.4700
10702TIP3    H253522   6.717   2.220  17.022 -2.0550 -0.7203  1.3515
10703TIP3   OH253523   2.543   4.916   4.710  0.0875 -0.0019  0.2040
10703TIP3    H153524   2.601   4.989   4.734 -1.2349  1.2859 -0.4230
10703TIP3    H253525   2.587   4.838   4.744  0.6980  1.2521  2.3752
10704TIP3   OH253526   5.391   0.981  14.984  0.1523  0.7496 -0.1122
10704TIP3    H153527   5.312   0.927  14.984 -0.9096  2.2669 -0.6835
10704TIP3    H253528   5.461   0.921  14.958 -0.4103 -1.1348  2.4841
10705TIP3   OH253529   6.069   4.532  10.636 -0.4690 -0.3873 -0.3408
10705TIP3    H153530   6.036   4.468  10.572  2.8369 -1.8746 -0.6599
10705TIP3    H253531   6.102   4.479  10.708 -0.4881  1.1260  0.8028
10706TIP3   OH253532   2.166   0.961   2.580  0.3754 -0.3445 -0.0937
10706TIP3    H153533   2.137   1.027   2.516  0.1271 -0.3224  0.0420
10706TIP3    H253534   2.220   1.010   2.642 -1.3869  0.0961  1.0982
10707TIP3   OH253535   3.608   3.677   2.250  0.0063  0.1442  0.5830
10707TIP3    H153536   3.627   3.766   2.280 -2.4448  1.3657 -1.2584
10707TIP3    H253537   3.654   3.669   2.166  0.1119 -0.2772  0.6801
10708TIP3   OH253538   5.714   5.488   1.835 -0.3024  0.3027 -0.5175
10708TIP3    H153539   5.698   5.539   1.756  0.3799 -0.2921 -1.0479
10708TIP3    H253540   5.627   5.478   1.875 -0.3884  2.2087 -0.1849
10709TIP3   OH253541   1.490   6.122  11.985 -0.5656  0.1917 -0.1505
10709TIP3    H153542   1.438   6.173  12.047  1.6553  1.4483  0.7574
10709TIP3    H253543   1.524   6.187  11.923  2.1443 -0.1479  0.9075
10710TIP3   OH253544   1.067   4.504   2.752 -0.2116 -0.3200  0.5513
10710TIP3    H153545   1.054   4.490   2.845 -0.9449  0.0005  0.4972
10710TIP3    H253546   1.153   4.547   2.746  0.5306 -1.7376  0.9473
10711TIP3   OH253547   5.990   4.563   1.015 -0.4543  0.2282 -0.0961
10711TIP3    H153548   5.990   4.620   0.938 -1.6085 -0.5895 -0.7179
10711TIP3    H253549   5.945   4.614   1.082 -0.4082  0.5261 -0.2914
10712TIP3   OH253550   4.782   6.178  16.912 -1.1193 -0.4251  0.0292
10712TIP3    H153551   4.874   6.166  16.934 -0.8017  1.3449 -0.3064
10712TIP3    H253552   4.766   6.116  16.841  0.0271 -0.1725 -0.4681
10713TIP3   OH253553   3.211   5.817  12.989 -0.0360  0.2664  0.0109
10713TIP3    H153554   3.260   5.840  13.069  0.1288 -1.0410  0.2994
10713TIP3    H253555   3.275   5.769  12.936 -0.4475  0.2375 -0.4538
10714TIP3   OH253556   4.953   5.509   0.501 -0.4636 -0.7114  0.3669
10714TIP3    H153557   4.954   5.555   0.417  1.5769 -1.9074 -0.3191
10714TIP3    H253558   4.862   5.510   0.528 -1.0239  0.4456 -1.4584
10715TIP3   OH253559   2.008   0.677  11.343 -0.3381  0.2669 -0.0961
10715TIP3    H153560   2.062   0.602  11.318 -1.1638 -0.8241  1.3249
10715TIP3    H253561   2.064   0.729  11.400 -0.0215  0.3316 -0.4647
10716TIP3   OH253562   2.045   1.747  14.142 -0.6350 -0.5121 -0.1670
10716TIP3    H153563   2.035   1.777  14.233  0.3256 -2.0219  0.4689
10716TIP3    H253564   1.965   1.774  14.099 -1.3638 -0.2702  1.2904
10717TIP3   OH253565   5.207   6.031  12.833  0.5411  0.1671  0.4336
10717TIP3    H153566   5.289   5.983  12.841 -0.5598 -1.8461 -0.0683
10717TIP3    H253567   5.177   6.043  12.923  1.5996  1.3318  0.6456
10718TIP3   OH253568   4.248   4.348   5.281  0.3916  0.2706 -0.1111
10718TIP3    H153569   4.203   4.404   5.344  0.6649  0.3652  0.0011
10718TIP3    H253570   4.334   4.333   5.320 -0.4180 -1.9716  0.8832
10719TIP3   OH253571   3.695   2.553   4.073  0.1615 -0.0086  0.3938
10719TIP3    H153572   3.633   2.481   4.085  0.4916 -0.2555  0.6311
10719TIP3    H253573   3.767   2.514   4.022 -0.3559  0.5418 -0.7822
10720TIP3   OH253574   6.348   2.420  12.126 -0.5903 -0.2881  0.1544
10720TIP3    H153575   6.392   2.479  12.065 -1.8856  0.6090  0.0704
10720TIP3    H253576   6.324   2.344  12.072 -1.7283  0.5026 -0.4579
10721TIP3   OH253577   2.330   3.690   2.459 -0.5398 -0.1053 -0.8561
10721TIP3    H153578   2.309   3.644   2.378  0.4633 -0.3518 -0.9834
10721TIP3    H253579   2.248   3.691   2.508 -1.1126 -0.0909 -1.8048
10722TIP3   OH253580   6.184   1.645   5.037  0.1394  0.1348 -0.0736
10722TIP3    H153581   6.212   1.650   4.946  0.1847  0.2871 -0.0521
10722TIP3    H253582   6.252   1.691   5.086  1.2432 -1.8251  0.2853
10723TIP3   OH253583   5.909   3.972  16.930 -0.8483 -0.4441  0.2585
10723TIP3    H153584   5.875   4.060  16.946 -3.0778 -1.2482  0.1022
10723TIP3    H253585   5.866   3.943  16.850 -1.0584 -2.1313  0.9478
10724TIP3   OH253586   4.223   0.745   3.558 -0.1440 -0.3345 -0.1340
10724TIP3    H153587   4.272   0.785   3.485  1.4881  0.7026  1.4928
10724TIP3    H253588   4.258   0.656   3.563 -0.3855 -0.4665 -0.7311
10725TIP3   OH253589   4.932   4.472  16.403  0.0909  0.1163  0.1322
10725TIP3    H153590   4.951   4.486  16.496  0.5888 -2.3306  0.4277
10725TIP3    H253591   5.013   4.495  16.358  0.6294 -0.9822  0.5267
10726TIP3   OH253592   3.587   6.764  11.898  0.7860 -0.2851  0.5055
10726TIP3    H153593   3.650   6.700  11.864  1.9251  0.3253  1.4174
10726TIP3    H253594   3.533   6.714  11.959  0.7116 -0.7056  0.0985
10727TIP3   OH253595   3.967   6.059  12.955  0.1958  0.1911 -0.1444
10727TIP3    H153596   3.903   6.025  13.018  1.4487  0.4712  1.2930
10727TIP3    H253597   3.940   6.149  12.939 -1.3604 -0.5117 -1.6511
10728TIP3   OH253598   5.202   4.168   0.479  0.1336  0.2233  0.7339
10728TIP3    H153599   5.203   4.157   0.384 -1.0386 -0.3296  0.7698
10728TIP3    H253600   5.293   4.153   0.506  0.3692 -0.1646 -0.2429
10729TIP3   OH253601   3.256   6.169  16.566  0.4416 -0.1668  0.0682
10729TIP3    H153602   3.243   6.131  16.479  0.4621  0.8940 -0.3996
10729TIP3    H253603   3.167   6.195  16.593  0.7798  2.1009 -0.8460
10730TIP3   OH253604   2.772   2.779  15.706 -0.0131  0.1788  0.4357
10730TIP3    H153605   2.866   2.797  15.714  0.0611 -0.5487  1.3398
10730TIP3    H253606   2.730   2.861  15.730  0.3848  0.2933  0.7484
10731TIP3   OH253607   5.426   3.744  14.189  0.6099  0.1997  0.6449
10731TIP3    H153608   5.364   3.703  14.128  0.9816 -0.5615  0.7758
10731TIP3    H253609   5.405   3.838  14.185  1.2580  0.2662 -1.3346
10732TIP3   OH253610   4.953   2.744  13.233 -0.2706 -0.2659 -0.0481
10732TIP3    H153611   4.974   2.658  13.268  0.6596 -0.0756 -0.1006
10732TIP3    H253612   5.038   2.788  13.227 -0.4142 -0.2465 -2.3984
10733TIP3   OH253613   4.401   4.058   3.146  0.3727  0.1795 -0.4204
10733TIP3    H153614   4.358   4.034   3.228 -0.0607  1.1129 -0.3621
10733TIP3    H253615   4.454   3.982   3.123  0.4390 -0.1142  0.6905
10734TIP3   OH253616   4.284   5.144  12.821  0.7749 -0.0516 -0.5584
10734TIP3    H153617   4.221   5.215  12.808  1.0131 -0.0984 -2.0529
10734TIP3    H253618   4.358   5.167  12.766  2.3015  0.2450  1.5499
10735TIP3   OH253619   4.508   3.302   5.496  0.4311 -0.2143  0.1492
10735TIP3    H153620   4.479   3.369   5.558  1.0577  0.5148 -0.3292
10735TIP3    H253621   4.507   3.346   5.411  1.3473 -0.6512 -0.0969
10736TIP3   OH253622   2.594   2.154  12.566 -0.2546 -0.0169  0.4729
10736TIP3    H153623   2.665   2.114  12.616 -0.7132  0.5567  1.6090
10736TIP3    H253624   2.637   2.195  12.491  0.4680 -0.7389  0.4960
10737TIP3   OH253625   4.705   3.738  13.030 -0.2797 -0.0017 -0.0266
10737TIP3    H153626   4.680   3.695  12.949 -0.6329 -0.9818  0.5886
10737TIP3    H253627   4.624   3.747  13.079  0.2708 -1.5328  1.2010
10738TIP3   OH253628   2.547   1.254   0.660  0.0988  0.0536  0.5017
10738TIP3    H153629   2.562   1.337   0.706  1.5788 -0.2571  0.6009
10738TIP3    H253630   2.596   1.189   0.711  1.3770 -0.3752 -1.2323
10739TIP3   OH253631   1.757   0.389  16.629 -0.3285  0.7913  0.4571
10739TIP3    H153632   1.786   0.360  16.542  0.4825  1.1586  0.6054
10739TIP3    H253633   1.674   0.434  16.613 -0.1018  0.9961 -0.1416
10740TIP3   OH253634   1.863   6.603  15.842 -0.3619  0.0085  0.7548
10740TIP3    H153635   1.933   6.571  15.899  0.7491 -0.0712 -0.6134
10740TIP3    H253636   1.891   6.578  15.754 -0.8178  2.3075 -0.0799
10741TIP3   OH253637   0.421   0.139  15.605  0.0857 -0.2912 -0.0817
10741TIP3    H153638   0.496   0.165  15.658  0.6826 -1.0781 -0.5398
10741TIP3    H253639   0.348   0.190  15.641  0.9808  1.1046 -0.1703
10742TIP3   OH253640   2.031   2.934   0.555  0.3496 -0.1638  0.1002
10742TIP3    H153641   2.125   2.933   0.572  0.3590 -0.6907  0.0446
10742TIP3    H253642   2.009   3.026   0.544  0.7768 -0.0052  0.5700
10743TIP3   OH253643   4.309   3.244  15.427 -0.3610  0.1210  0.5018
10743TIP3    H153644   4.375   3.222  15.362 -1.8047 -1.5667 -0.4087
10743TIP3    H253645   4.279   3.332  15.402 -0.2745 -0.1563 -0.5707
10744TIP3   OH253646   0.662   3.466   4.472 -0.0287  0.4581 -0.2499
10744TIP3    H153647   0.626   3.541   4.424 -0.6250 -0.0170 -0.5578
10744TIP3    H253648   0.756   3.470   4.455 -0.5939 -1.8767 -4.6829
10745TIP3   OH253649   6.573   6.624  14.973  0.3415 -0.1051 -0.5147
10745TIP3    H153650   6.584   6.543  15.024  0.1692 -0.6653 -1.3477
10745TIP3    H253651   6.483   6.618  14.939  0.4177  0.3082 -0.7876
10746TIP3   OH253652   6.054   0.802  11.859  0.3158  0.0690  0.2105
10746TIP3    H153653   6.057   0.895  11.881  2.0317  0.0471  0.0748
10746TIP3    H253654   5.975   0.792  11.806  0.7435  1.6381 -0.7180
10747TIP3   OH253655   2.161   6.550  12.523  0.2891  0.5563 -0.8316
10747TIP3    H153656   2.135   6.494  12.596 -0.4884  1.0986 -0.6763
10747TIP3    H253657   2.232   6.604  12.558 -1.3739  2.1945  0.1799
10748TIP3   OH253658   1.959   6.518  14.025  0.0535 -0.2507 -0.0454
10748TIP3    H153659   1.878   6.470  14.006 -0.7456  0.5005  1.4123
10748TIP3    H253660   2.018   6.452  14.060 -0.2705 -0.6049 -0.1560
10749TIP3   OH253661   4.130   6.668  17.003  0.6334  0.5526 -0.3075
10749TIP3    H153662   4.116   6.642  16.912  1.1678 -1.4995  0.1842
10749TIP3    H253663   4.208   6.620  17.030  0.2775  0.8802  1.3508
10750TIP3   OH253664   6.562   5.063   4.293 -0.2317  0.1691  0.5064
10750TIP3    H153665   6.497   5.029   4.232  1.0026  0.3900 -0.9825
10750TIP3    H253666   6.534   5.152   4.311 -0.1744  0.3709 -0.3839
10751TIP3   OH253667   3.919   1.783   5.332 -0.1492  0.4251  0.0588
10751TIP3    H153668   4.008   1.776   5.298 -0.3098  1.2275 -0.5395
10751TIP3    H253669   3.880   1.697   5.313  0.2902  0.2923 -0.2683
10752TIP3   OH253670   1.527   2.130   1.072 -0.4283 -0.5574  0.2179
10752TIP3    H153671   1.441   2.112   1.034 -0.3190 -0.5922 -0.0171
10752TIP3    H253672   1.516   2.113   1.166 -0.7593 -0.2597  0.2336
10753TIP3   OH253673   1.017   4.804   2.267 -0.4870  0.0866  0.4843
10753TIP3    H153674   1.059   4.739   2.324 -0.9879 -0.0704  0.6804
10753TIP3    H253675   1.058   4.790   2.181 -0.5124 -0.4161  0.5517
10754TIP3   OH253676   4.472   1.711  12.051  0.2239 -0.1406  0.4216
10754TIP3    H153677   4.444   1.626  12.018 -0.5633  0.2022  0.1993
10754TIP3    H253678   4.562   1.720  12.021  0.1554 -0.6940  0.0464
10755TIP3   OH253679   0.380   4.305  15.516  0.1253  0.1780 -0.1152
10755TIP3    H153680   0.361   4.239  15.582  2.7837  0.3466  0.8697
10755TIP3    H253681   0.352   4.265  15.433 -1.7799 -0.6488  0.8844
10756TIP3   OH253682   2.468   1.800  14.980  0.1423  0.3422  0.5780
10756TIP3    H153683   2.541   1.850  15.018  0.2663 -0.6893  1.7372
10756TIP3    H253684   2.419   1.770  15.056  0.2489 -1.5707 -0.0898
10757TIP3   OH253685   0.147   6.366   3.671 -0.1829  0.0208  0.4859
10757TIP3    H153686   0.150   6.433   3.603  0.1454  0.8252  1.2759
10757TIP3    H253687   0.144   6.283   3.624  0.4524  0.5591 -0.5064
10758TIP3   OH253688   5.807   1.291  13.611 -0.2934  0.1262  0.1860
10758TIP3    H153689   5.730   1.339  13.642 -0.3470 -0.2219  0.6111
10758TIP3    H253690   5.881   1.347  13.633 -0.4070  0.3277  0.0497
10759TIP3   OH253691   3.216   5.619  15.993 -0.5719 -0.3118 -0.7891
10759TIP3    H153692   3.192   5.672  16.069  0.1474 -0.1574 -0.6657
10759TIP3    H253693   3.145   5.634  15.930 -0.9586 -0.1144 -0.3107
10760TIP3   OH253694   0.743   0.566  11.376 -0.0430  0.1677  0.2761
10760TIP3    H153695   0.787   0.482  11.388  0.9588  0.7689  0.9242
10760TIP3    H253696   0.811   0.631  11.394 -0.5247  1.1220 -1.2327
10761TIP3   OH253697   2.873   0.151   4.873 -1.1903 -0.1118  0.1583
10761TIP3    H153698   2.938   0.123   4.938  0.3503  0.5109 -1.0595
10761TIP3    H253699   2.922   0.153   4.791 -2.2204  2.4746 -0.4179
10762TIP3   OH253700   0.654   4.874  14.657  0.5016  0.3039  0.1106
10762TIP3    H153701   0.583   4.811  14.648 -0.1371  1.1190 -0.6636
10762TIP3    H253702   0.674   4.875  14.751 -0.3790 -0.0610  0.3055
10763TIP3   OH253703   6.423   0.241   5.721 -0.1140  0.3890 -0.1476
10763TIP3    H153704   6.459   0.320   5.681  1.8149 -1.2006 -1.7254
10763TIP3    H253705   6.498   0.200   5.764 -0.6606 -1.4591 -0.8819
10764TIP3   OH253706   1.963   0.944  13.980 -0.6153  0.0444 -0.3801
10764TIP3    H153707   2.000   0.892  13.908  0.0975 -2.5724  1.7942
10764TIP3    H253708   1.892   0.994  13.939 -1.8624 -3.2673 -2.4833
10765TIP3   OH253709   2.932   3.739  16.680 -0.1820 -0.1748 -0.6325
10765TIP3    H153710   2.943   3.830  16.705 -1.0892 -0.7019  1.8327
10765TIP3    H253711   3.019   3.712  16.649  0.3248  1.2342 -0.4493
10766TIP3   OH253712   5.556   3.152   5.413 -0.1135 -0.7317  0.0931
10766TIP3    H153713   5.590   3.240   5.429  2.3190 -1.2911 -1.6380
10766TIP3    H253714   5.520   3.124   5.497  1.0444  1.1005  1.2214
10767TIP3   OH253715   4.811   5.808  11.313 -0.3154  0.3384 -0.0878
10767TIP3    H153716   4.884   5.767  11.267  0.5239  0.6561  0.9492
10767TIP3    H253717   4.800   5.756  11.393 -0.0281  1.3828  0.6470
10768TIP3   OH253718   6.077   4.510  16.487 -0.1026 -0.5961  0.4422
10768TIP3    H153719   6.054   4.516  16.580 -1.2193 -0.7791  0.1900
10768TIP3    H253720   5.995   4.485  16.444  0.1089  0.6651 -0.7457
10769TIP3   OH253721   5.743   3.113  12.507 -0.0511 -0.1385  0.3340
10769TIP3    H153722   5.680   3.149  12.569  0.0833  0.4328  0.1391
10769TIP3    H253723   5.700   3.120  12.422 -0.7853 -2.1671  0.5166
10770TIP3   OH253724   0.063   1.157   3.240 -0.1293 -0.3477 -0.5491
10770TIP3    H153725   0.144   1.121   3.204  0.3925  0.9221 -0.6764
10770TIP3    H253726   0.070   1.251   3.226 -2.6673 -0.4240 -2.6766
10771TIP3   OH253727   4.861   5.453  14.138  0.1093 -0.6873 -0.2223
10771TIP3    H153728   4.923   5.449  14.210 -1.1336  0.6332  0.9597
10771TIP3    H253729   4.775   5.450  14.180 -0.6526  1.8786 -1.4516
10772TIP3   OH253730   0.838   5.379   3.989 -0.2941 -0.0079 -0.5074
10772TIP3    H153731   0.745   5.355   3.988 -0.1653 -0.6187  1.2950
10772TIP3    H253732   0.844   5.446   4.056  0.7257 -0.6030 -0.0056
10773TIP3   OH253733   5.082   2.971   5.160 -0.3319  0.7074 -0.0634
10773TIP3    H153734   5.163   3.002   5.201  0.0358 -0.8557  0.4291
10773TIP3    H253735   5.036   3.051   5.134  1.5534  1.6152 -0.7073
10774TIP3   OH253736   3.102   2.693   5.114  0.1187 -0.3436 -0.3503
10774TIP3    H153737   3.058   2.685   5.199  0.8237  1.0218  0.1582
10774TIP3    H253738   3.063   2.624   5.060  0.6507 -2.1073  1.4903
10775TIP3   OH253739   1.204   2.428   4.171 -1.0350  0.4948 -0.1071
10775TIP3    H153740   1.235   2.488   4.239  1.1991 -2.0784  1.2190
10775TIP3    H253741   1.280   2.413   4.115 -2.5193  1.6256 -2.5489
10776TIP3   OH253742   2.160   1.820  15.019  0.0652 -0.1738 -0.2332
10776TIP3    H153743   2.216   1.896  15.006 -1.4836  1.1172  0.4751
10776TIP3    H253744   2.129   1.797  14.931  1.0209 -0.3701 -0.5180
10777TIP3   OH253745   2.953   6.549  13.533  0.2553 -0.3930  0.2966
10777TIP3    H153746   3.008   6.609  13.482 -0.1750 -1.2554 -1.2119
10777TIP3    H253747   2.876   6.535  13.478  0.3077 -2.2699  0.6839
10778TIP3   OH253748   0.143   4.361   5.175  0.0818 -0.0733 -0.3886
10778TIP3    H153749   0.196   4.425   5.128  1.3306  0.0605  1.1515
10778TIP3    H253750   0.192   4.279   5.168  1.7502  0.5503  3.0123
10779TIP3   OH253751   4.451   0.243  12.314  0.6266  0.0603 -0.2553
10779TIP3    H153752   4.393   0.167  12.319  1.1908 -0.2831  1.6432
10779TIP3    H253753   4.530   0.211  12.271  1.2433 -0.7124  1.3940
10780TIP3   OH253754   4.353   6.340   1.880 -0.3776  0.6975  0.4192
10780TIP3    H153755   4.293   6.309   1.813  0.2908 -0.0851  0.1801
10780TIP3    H253756   4.428   6.374   1.832 -0.3863  1.1631  0.7320
10781TIP3   OH253757   2.793   4.381   3.080 -0.1175 -0.8842 -0.4207
10781TIP3    H153758   2.777   4.288   3.063 -4.2409 -0.0603 -1.7029
10781TIP3    H253759   2.770   4.393   3.172 -2.0969 -0.7058 -0.9126
10782TIP3   OH253760   2.257   6.284  16.491 -0.2992  0.3588 -0.1266
10782TIP3    H153761   2.300   6.308  16.409 -1.6660 -1.1496 -1.3138
10782TIP3    H253762   2.207   6.205  16.470  0.3237 -0.7931  2.4712
10783TIP3   OH253763   5.198   1.516  11.345  0.7240  0.4318 -0.6051
10783TIP3    H153764   5.261   1.580  11.379  2.0666 -1.2116  0.0604
10783TIP3    H253765   5.221   1.507  11.252  0.4216  1.0431 -0.7399
10784TIP3   OH253766   0.449   6.592   4.854 -0.0781 -0.0860 -0.1243
10784TIP3    H153767   0.431   6.667   4.797  2.0691  0.5940  0.0539
10784TIP3    H253768   0.516   6.542   4.808 -1.6277 -2.0471 -0.3371
10785TIP3   OH253769   2.322   0.230   5.340  0.4773 -0.0561 -0.1989
10785TIP3    H153770   2.375   0.299   5.381 -0.3602  1.3426 -1.4006
10785TIP3    H253771   2.254   0.210   5.405 -0.6123  1.8699 -0.6855
10786TIP3   OH253772   6.149   2.228   4.733  0.6224 -0.3905 -0.3278
10786TIP3    H153773   6.204   2.295   4.774 -0.3255  1.5827 -2.1584
10786TIP3    H253774   6.105   2.185   4.806  2.0148  0.2899  0.9445
10787TIP3   OH253775   2.966   1.081   0.737 -0.1362  0.1402  0.6156
10787TIP3    H153776   2.963   1.174   0.760  1.3961  0.5015 -0.5603
10787TIP3    H253777   2.963   1.080   0.641  0.0522 -1.0182  0.6104
10788TIP3   OH253778   4.151   2.751   1.736 -0.2109  0.1799  0.4226
10788TIP3    H153779   4.110   2.821   1.787  0.0547 -0.1200  1.0489
10788TIP3    H253780   4.138   2.777   1.645 -0.7329  0.6933  0.6403
10789TIP3   OH253781   5.195   2.187   1.729 -0.5768  0.9576  0.1718
10789TIP3    H153782   5.249   2.263   1.753 -0.3049  1.3370 -1.5746
10789TIP3    H253783   5.146   2.216   1.652 -1.1389 -0.3535  0.0310
10790TIP3   OH253784   3.290   3.130  13.502 -0.2221  0.0746 -0.3949
10790TIP3    H153785   3.294   3.078  13.422  1.3482 -0.0268 -0.2621
10790TIP3    H253786   3.337   3.211  13.480  0.7530 -0.2145  0.6197
10791TIP3   OH253787   4.613   5.307   1.289  0.4333  0.0336 -0.2344
10791TIP3    H153788   4.593   5.215   1.307  2.1014 -0.4383 -0.6349
10791TIP3    H253789   4.635   5.344   1.375 -0.9407  0.2512  0.0297
10792TIP3   OH253790   1.220   0.074  12.686 -0.0093 -0.4211 -0.1238
10792TIP3    H153791   1.214  -0.019  12.708 -4.1884 -0.2714 -0.2803
10792TIP3    H253792   1.154   0.087  12.619 -0.4215  2.9625  0.8667
10793TIP3   OH253793   3.066   5.941   6.467 -0.4039 -0.2872 -0.2095
10793TIP3    H153794   3.083   5.869   6.528 -1.6013 -0.4568 -0.0730
10793TIP3    H253795   3.017   6.005   6.519  1.4839  1.0996 -0.0366
10794TIP3   OH253796   4.536   5.295  13.547  0.0711  0.4133 -0.5939
10794TIP3    H153797   4.453   5.273  13.506 -1.1259  0.0510  1.9249
10794TIP3    H253798   4.531   5.255  13.634  2.6205  0.9145 -0.1744
10795TIP3   OH253799   2.352   5.339  16.298 -0.0786 -0.2804 -0.3400
10795TIP3    H153800   2.404   5.366  16.373 -1.9353  0.2235  0.8000
10795TIP3    H253801   2.414   5.295  16.240  1.9167  1.6294  0.2778
10796TIP3   OH253802   1.628   6.152  10.336 -0.1665 -0.1553  0.2853
10796TIP3    H153803   1.650   6.193  10.420 -0.2553  2.0424 -0.7234
10796TIP3    H253804   1.697   6.181  10.276 -0.9221 -0.4513 -0.7470
10797TIP3   OH253805   3.949   6.657  11.650  0.0260 -0.1957  0.1779
10797TIP3    H153806   3.953   6.753  11.650 -1.7141 -0.0810 -2.3216
10797TIP3    H253807   4.036   6.629  11.622  0.6035  0.6403  1.1121
10798TIP3   OH253808   5.256   6.232  11.908  0.3203  0.3165  0.6535
10798TIP3    H153809   5.206   6.307  11.876  1.1920 -0.1484 -1.9574
10798TIP3    H253810   5.190   6.170  11.941 -0.5669  1.1590  0.4749
10799TIP3   OH253811   5.223   3.995   5.102 -0.1946  0.0264 -0.2611
10799TIP3    H153812   5.233   3.900   5.102 -0.6306 -0.0532 -2.8386
10799TIP3    H253813   5.156   4.012   5.168  0.6565 -1.3589  0.9842
10800TIP3   OH253814   5.003   6.497  11.359 -0.1451 -0.3704 -0.6120
10800TIP3    H153815   5.084   6.518  11.404  0.1821  0.6870 -1.6786
10800TIP3    H253816   5.031   6.469  11.272 -0.9408  0.0958 -1.0154
10801TIP3   OH253817   1.612   1.317  10.924  0.1500  0.0707  0.4257
10801TIP3    H153818   1.605   1.222  10.919 -0.8532  0.0505  1.8155
10801TIP3    H253819   1.558   1.349  10.852 -1.4383 -0.3922  1.3829
10802TIP3   OH253820   2.397   5.158  12.901  0.5786 -0.2113  0.1672
10802TIP3    H153821   2.418   5.214  12.976 -1.5299 -2.0371  2.2003
10802TIP3    H253822   2.475   5.103  12.891  1.2120  0.6062  0.4715
10803TIP3   OH253823   0.895   6.296   1.346 -0.1671 -0.3672 -0.5272
10803TIP3    H153824   0.967   6.350   1.378  1.4066 -1.5889 -1.9370
10803TIP3    H253825   0.816   6.339   1.380  1.2798  0.0060  2.4582
10804TIP3   OH253826   1.876   5.747  15.103  0.5629  0.1350  0.1383
10804TIP3    H153827   1.927   5.770  15.180 -0.3684  1.3022  0.4236
10804TIP3    H253828   1.790   5.787  15.119 -0.2033 -1.1686 -0.6603
10805TIP3   OH253829   3.202   0.892   0.753 -0.0457  0.4506 -0.3409
10805TIP3    H153830   3.109   0.915   0.748 -0.3706 -0.5272  0.9451
10805TIP3    H253831   3.244   0.967   0.794 -0.5265  0.2366  0.5500
10806TIP3   OH253832   4.119   4.617   0.876  0.0268  0.0627  0.0673
10806TIP3    H153833   4.194   4.667   0.907 -0.3495 -0.3574  1.7142
10806TIP3    H253834   4.044   4.674   0.891 -0.1131  0.0287 -0.4962
10807TIP3   OH253835   2.152   0.051   4.809  0.6725  0.3571  0.1658
10807TIP3    H153836   2.134   0.074   4.900 -0.6442  2.3568 -0.5611
10807TIP3    H253837   2.072   0.009   4.778  1.7544 -1.9592  0.4093
10808TIP3   OH253838   3.343   4.145   0.860 -0.2902 -0.7280 -0.4078
10808TIP3    H153839   3.335   4.078   0.792 -2.6015 -0.7299 -0.1765
10808TIP3    H253840   3.303   4.223   0.821 -0.6262 -0.4268  0.5298
10809TIP3   OH253841   1.447   2.984  12.604  0.1194 -0.3991 -0.1003
10809TIP3    H153842   1.430   3.062  12.657 -0.9001 -0.3312 -0.5163
10809TIP3    H253843   1.513   2.936  12.653  0.2393  0.3785  0.5131
10810TIP3   OH253844   3.107   6.753  13.455  0.2517 -0.1171 -0.4112
10810TIP3    H153845   3.197   6.723  13.467  0.6395  0.9278 -0.6276
10810TIP3    H253846   3.091   6.810  13.530  0.4044  1.1448 -1.3166
10811TIP3   OH253847   0.700   0.229  14.229 -0.0506 -0.4195  0.0734
10811TIP3    H153848   0.689   0.165  14.159 -0.0527  1.2388 -1.4532
10811TIP3    H253849   0.611   0.250  14.256 -0.1013  0.2104 -0.5849
10812TIP3   OH253850   5.880   1.287   5.003 -0.6139 -0.2130 -1.0161
10812TIP3    H153851   5.834   1.307   4.921  0.5481 -0.4088 -1.7286
10812TIP3    H253852   5.901   1.372   5.041 -0.8677 -0.1208 -1.0823
10813TIP3   OH253853   0.880   1.220  10.373 -0.2295  0.2605 -0.2321
10813TIP3    H153854   0.827   1.285  10.328 -2.0750 -1.1766 -0.2259
10813TIP3    H253855   0.819   1.149  10.392  2.1886 -2.5642 -2.4115
10814TIP3   OH253856   1.579   3.698  15.080 -0.1646 -0.0939  0.3911
10814TIP3    H153857   1.603   3.786  15.111 -1.3658  0.0097  1.0557
10814TIP3    H253858   1.659   3.647  15.088  0.0799  0.4748  1.7443
10815TIP3   OH253859   1.311   3.603   2.897  0.7486  0.0865  0.0395
10815TIP3    H153860   1.253   3.562   2.961  1.5572 -0.0108  0.7121
10815TIP3    H253861   1.290   3.559   2.814  0.7022 -0.7706  0.5016
10816TIP3   OH253862   4.662   0.344   1.521 -0.3146 -0.2377 -0.5109
10816TIP3    H153863   4.712   0.270   1.486 -1.3065 -1.0386 -0.2860
10816TIP3    H253864   4.575   0.333   1.482 -0.2563  1.2745 -1.1119
10817TIP3   OH253865   1.711   6.739   6.211  0.3159 -0.3681  0.6246
10817TIP3    H153866   1.655   6.669   6.245  0.4154  0.1645  1.8910
10817TIP3    H253867   1.673   6.820   6.246 -0.4296  0.3250 -1.6893
10818TIP3   OH253868   2.242   5.405  12.122  0.0174  0.1429 -0.2870
10818TIP3    H153869   2.263   5.491  12.158 -0.7777  0.3106 -0.2155
10818TIP3    H253870   2.170   5.421  12.060 -1.8012 -0.7900  1.4922
10819TIP3   OH253871   2.526   3.589   0.532 -0.4005 -0.3972 -0.1058
10819TIP3    H153872   2.538   3.519   0.467  0.5569  0.4181 -0.8206
10819TIP3    H253873   2.610   3.593   0.577  0.5426  2.2212 -1.9932
10820TIP3   OH253874   3.395   6.652   4.347 -0.1567 -0.2550  0.0478
10820TIP3    H153875   3.307   6.689   4.357 -0.0136  0.1699 -0.2416
10820TIP3    H253876   3.446   6.721   4.305  0.1220 -0.7738 -0.4819
10821TIP3   OH253877   1.886   4.700  16.389 -0.5937 -0.5491  0.4280
10821TIP3    H153878   1.957   4.669  16.332 -0.6214 -0.1452  0.1758
10821TIP3    H253879   1.816   4.723  16.328 -0.5702  0.0193  0.6190
10822TIP3   OH253880   2.243   3.714   1.453 -0.0945 -0.7211 -0.0312
10822TIP3    H153881   2.168   3.773   1.465 -0.5756 -0.9877 -1.6078
10822TIP3    H253882   2.316   3.759   1.496 -0.6822  0.5671 -0.3597
10823TIP3   OH253883   3.344   1.649   2.970  0.9724 -0.2293 -0.0818
10823TIP3    H153884   3.297   1.658   2.887 -2.0265 -0.2950  1.5429
10823TIP3    H253885   3.364   1.739   2.996 -0.4383 -0.0451  0.3995
10824TIP3   OH253886   6.236   6.143   4.553  0.2926 -0.0523  0.8713
10824TIP3    H153887   6.181   6.176   4.623  0.9450  1.2495  0.7919
10824TIP3    H253888   6.322   6.183   4.569 -0.0725  1.9970 -1.8415
10825TIP3   OH253889   6.060   2.597   3.799 -0.3718  0.0153 -0.7024
10825TIP3    H153890   6.056   2.551   3.715  2.0291  0.4116 -1.0524
10825TIP3    H253891   6.023   2.683   3.781 -0.8313 -0.2609 -1.0973
10826TIP3   OH253892   4.803   3.272  12.170  0.3175 -0.9439 -0.4051
10826TIP3    H153893   4.744   3.300  12.240  0.5827 -0.2349 -0.4678
10826TIP3    H253894   4.761   3.303  12.090 -0.6318 -2.8383 -0.6827
10827TIP3   OH253895   5.909   4.125  15.870 -0.0399  0.4459 -0.3843
10827TIP3    H153896   5.992   4.093  15.907  0.6935  0.6552 -1.7820
10827TIP3    H253897   5.856   4.149  15.946  0.8640 -0.4752  0.5598
10828TIP3   OH253898   4.427   6.756  13.743 -0.3097  0.8936  0.1417
10828TIP3    H153899   4.484   6.806  13.802 -0.6483  1.2484  0.1740
10828TIP3    H253900   4.410   6.674  13.789  0.9513  0.3747 -0.2857
10829TIP3   OH253901   0.098   3.274  12.866 -0.1984  0.0020 -0.0169
10829TIP3    H153902   0.038   3.213  12.823  2.0043 -2.4732  0.2630
10829TIP3    H253903   0.185   3.246  12.837  1.0108  1.5433  2.0182
10830TIP3   OH253904   0.104   4.332   1.442 -0.0196  0.2188 -0.4023
10830TIP3    H153905   0.188   4.374   1.464  1.0879 -2.4558  0.7187
10830TIP3    H253906   0.040   4.377   1.497  1.0671  0.6586  0.5327
10831TIP3   OH253907   5.860   2.945  13.044  0.0393  0.3051  0.2972
10831TIP3    H153908   5.938   2.912  13.089 -0.0277 -0.5192 -0.1623
10831TIP3    H253909   5.786   2.908  13.093 -0.1263  2.9274  2.0944
10832TIP3   OH253910   3.649   2.063  11.238 -0.3179  0.3025  0.1656
10832TIP3    H153911   3.715   2.072  11.168 -0.4854 -1.2438 -0.1981
10832TIP3    H253912   3.570   2.104  11.201 -0.4915 -0.7797 -0.6737
10833TIP3   OH253913   0.436   4.868  12.719  0.2262 -0.5536 -0.2611
10833TIP3    H153914   0.514   4.817  12.743 -1.6068 -2.8307  0.9979
10833TIP3    H253915   0.377   4.805  12.679 -1.1020  1.1079 -0.9986
10834TIP3   OH253916   4.362   5.203  12.145  0.8183 -0.0167  0.2569
10834TIP3    H153917   4.312   5.190  12.064  2.3162 -1.0008 -0.5159
10834TIP3    H253918   4.424   5.131  12.148  0.6764 -0.1043  2.3957
10835TIP3   OH253919   2.051   3.448   1.885 -0.1976  0.9398 -0.2531
10835TIP3    H153920   2.006   3.378   1.932  1.8528  1.6477  2.8305
10835TIP3    H253921   2.121   3.404   1.836 -1.3011  0.4200 -1.4070
10836TIP3   OH253922   4.714   6.628   1.686  0.3173 -0.0997  0.3918
10836TIP3    H153923   4.805   6.601   1.673  0.2836  0.2435 -0.6236
10836TIP3    H253924   4.716   6.683   1.764  1.2722  1.2305 -0.5397
10837TIP3   OH253925   1.126   0.151  15.967  0.0773  0.0966 -0.0030
10837TIP3    H153926   1.190   0.179  16.033  0.9560 -0.9912 -0.3785
10837TIP3    H253927   1.093   0.232  15.929  0.9111  0.6811  0.5084
10838TIP3   OH253928   3.040   3.642   3.387 -0.3097 -0.0778 -0.4897
10838TIP3    H153929   3.007   3.563   3.431 -1.5104  0.4148 -0.4910
10838TIP3    H253930   3.061   3.702   3.459  0.0725 -0.1930 -0.5068
10839TIP3   OH253931   6.468   5.912  14.771 -0.2456 -1.0134 -0.0562
10839TIP3    H153932   6.417   5.992  14.778  2.9401  1.0125  1.2158
10839TIP3    H253933   6.427   5.863  14.699 -1.8744  2.0089 -1.2665
10840TIP3   OH253934   3.122   5.938  16.763  0.7737 -0.1784 -0.5155
10840TIP3    H153935   3.157   5.980  16.842  1.4735 -1.6489 -0.0231
10840TIP3    H253936   3.199   5.926  16.707  0.4182  0.0780 -1.0556
10841TIP3   OH253937   0.913   6.395  14.589 -0.4330  0.2500 -0.0701
10841TIP3    H153938   0.876   6.315  14.627  2.8913 -1.5953 -0.5051
10841TIP3    H253939   0.839   6.437  14.545 -2.1352 -3.0071 -0.4997
10842TIP3   OH253940   2.651   3.678   2.888 -0.5602 -0.2898  0.0606
10842TIP3    H153941   2.663   3.706   2.979  0.6608 -0.6504  0.0192
10842TIP3    H253942   2.659   3.583   2.890 -0.4947 -0.2995 -0.4323
10843TIP3   OH253943   1.554   4.452  11.847  0.2859  0.4768  0.3708
10843TIP3    H153944   1.503   4.481  11.923 -0.6938 -0.3129  0.0313
10843TIP3    H253945   1.578   4.533  11.802  1.4008  0.9841  1.8525
10844TIP3   OH253946   4.683   2.658   2.233  0.5313 -0.1387 -0.1686
10844TIP3    H153947   4.671   2.742   2.278  4.9405  1.1362 -1.1783
10844TIP3    H253948   4.753   2.614   2.282 -0.1235 -2.2242 -1.0538
10845TIP3   OH253949   2.623   1.225  11.028 -0.5807 -0.3776 -0.2577
10845TIP3    H153950   2.715   1.240  11.004 -0.7019  0.6909 -0.1121
10845TIP3    H253951   2.578   1.304  10.998 -1.5571 -1.1476 -0.8407
10846TIP3   OH253952   5.500   3.666   1.494  0.5684 -0.4139  0.3945
10846TIP3    H153953   5.556   3.642   1.569  1.4567  0.5044  0.0329
10846TIP3    H253954   5.538   3.747   1.461 -1.5305  0.7194  0.6968
10847TIP3   OH253955   3.856   1.444   2.114  0.7765 -0.3909  0.3596
10847TIP3    H153956   3.859   1.386   2.190  1.4956 -1.7755 -0.7027
10847TIP3    H253957   3.767   1.434   2.080  0.3919  0.3801  1.1139
10848TIP3   OH253958   4.151   3.499   2.848  0.1697 -0.6176  0.2660
10848TIP3    H153959   4.153   3.558   2.773  0.2276  0.6414  1.2462
10848TIP3    H253960   4.226   3.441   2.835  1.0059  0.4931  0.0652
10849TIP3   OH253961   2.630   4.804   0.673 -0.0368 -0.6300 -0.3091
10849TIP3    H153962   2.598   4.721   0.707 -0.8651  0.2146  0.9909
10849TIP3    H253963   2.600   4.870   0.736  3.5012  0.2993  0.4918
10850TIP3   OH253964   1.886   3.754  13.519 -0.4671 -0.4528 -0.2385
10850TIP3    H153965   1.979   3.734  13.529 -0.2222  0.5546 -0.4388
10850TIP3    H253966   1.842   3.698  13.583  0.3521 -0.2313  0.5193
10851TIP3   OH253967   6.215   1.998  14.954  0.4447  0.5171 -0.3493
10851TIP3    H153968   6.273   1.930  14.987  0.6201  1.7656  2.0005
10851TIP3    H253969   6.129   1.977  14.992 -0.4148 -0.5990 -2.7824
10852TIP3   OH253970   2.431   4.931   5.234 -0.4324 -0.0039  0.0922
10852TIP3    H153971   2.407   5.007   5.182 -0.4089  0.4996  0.8161
10852TIP3    H253972   2.520   4.949   5.263 -0.6627 -0.0166  0.8008
10853TIP3   OH253973   6.355   6.587   4.136  0.2995  0.5976  0.3608
10853TIP3    H153974   6.325   6.546   4.217 -0.5620  0.6568  0.0794
10853TIP3    H253975   6.277   6.589   4.080  1.5919 -2.4524 -1.7262
10854TIP3   OH253976   5.163   3.103   1.805  0.1088  0.0747  0.6186
10854TIP3    H153977   5.094   3.044   1.776  0.2799  1.1744 -2.0843
10854TIP3    H253978   5.154   3.181   1.751  2.4602  0.8844  1.3161
10855TIP3   OH253979   2.612   4.567  15.433 -0.0853 -0.6935  0.1156
10855TIP3    H153980   2.596   4.502  15.501 -1.1245 -2.2079 -1.5219
10855TIP3    H253981   2.680   4.528  15.379 -2.3427 -1.5454 -2.2262
10856TIP3   OH253982   2.774   4.159   4.636 -0.0651 -0.0299 -0.1592
10856TIP3    H153983   2.744   4.242   4.672  0.8075  0.3325 -0.2646
10856TIP3    H253984   2.793   4.104   4.713  1.0321  0.4682 -0.0702
10857TIP3   OH253985   5.942   1.391  16.557  0.2101  0.4076 -0.1477
10857TIP3    H153986   5.862   1.378  16.506 -0.3717  1.6203  0.4406
10857TIP3    H253987   5.950   1.311  16.610  0.1422 -0.3158 -1.2016
10858TIP3   OH253988   6.067   4.303   5.765  0.4178  0.1831 -0.0659
10858TIP3    H153989   6.032   4.372   5.709 -0.5708  0.3917  0.7973
10858TIP3    H253990   5.996   4.281   5.825  0.0392 -2.9430 -1.5341
10859TIP3   OH253991   2.261   3.710   1.800 -0.8396 -0.3306  0.2257
10859TIP3    H153992   2.176   3.667   1.787 -0.5929 -0.7464 -0.0003
10859TIP3    H253993   2.324   3.653   1.757 -0.5097  0.2564 -0.0807
10860TIP3   OH253994   3.803   3.654   5.463 -0.0040 -0.3214  0.0285
10860TIP3    H153995   3.734   3.591   5.484  0.6868 -1.7098 -1.7794
10860TIP3    H253996   3.884   3.604   5.470  0.6087  0.5331 -0.8453
10861TIP3   OH253997   1.476   3.036  14.862 -0.2048 -0.2318 -0.2567
10861TIP3    H153998   1.568   3.051  14.884 -0.0929 -0.5342 -0.5179
10861TIP3    H253999   1.463   2.942  14.873 -0.2957 -0.3017 -0.9233
10862TIP3   OH254000   1.658   3.235  13.898 -0.0092 -1.0100  0.2701
10862TIP3    H154001   1.738   3.184  13.906  0.1367 -0.6723  1.0508
10862TIP3    H254002   1.665   3.279  13.813  0.7929 -0.7136  0.4851
10863TIP3   OH254003   3.735   3.206  11.422 -0.3591 -0.0672 -0.0716
10863TIP3    H154004   3.729   3.285  11.368 -0.6299  0.3057  0.5020
10863TIP3    H254005   3.712   3.235  11.510  3.2224  0.0363  0.9384
10864TIP3   OH254006   1.463   4.600   0.488 -0.3900 -0.0094 -0.5015
10864TIP3    H154007   1.433   4.528   0.433 -0.7182  0.5269 -1.0320
10864TIP3    H254008   1.396   4.608   0.555 -0.0008 -0.6490 -0.0358
10865TIP3   OH254009   2.499   4.276  12.969  0.5823 -0.6810 -0.5390
10865TIP3    H154010   2.436   4.256  13.038  2.0894 -1.5044  0.6481
10865TIP3    H254011   2.527   4.190  12.936 -0.2386 -0.2972 -2.2969
10866TIP3   OH254012   6.506   4.700   6.329 -0.2717 -0.0336 -0.1990
10866TIP3    H154013   6.449   4.658   6.265  0.6936 -1.0572 -0.4011
10866TIP3    H254014   6.583   4.725   6.280 -0.0661  0.3239  0.3064
10867TIP3   OH254015   2.715   6.607  12.275  0.2436  0.5570  0.2870
10867TIP3    H154016   2.647   6.593  12.342  0.2354  0.3346  0.2340
10867TIP3    H254017   2.751   6.693  12.295 -0.4010  0.8926  0.0131
10868TIP3   OH254018   6.284   4.594   0.906 -0.6650 -0.0884  0.1944
10868TIP3    H154019   6.245   4.508   0.890  0.8010 -0.4194 -1.7138
10868TIP3    H254020   6.215   4.656   0.882 -1.0581 -0.7010 -0.2943
10869TIP3   OH254021   0.935   1.613   5.744 -0.1839  0.5521 -0.3259
10869TIP3    H154022   1.014   1.595   5.796  0.0228 -1.8706 -1.4032
10869TIP3    H254023   0.865   1.616   5.809  0.2756 -1.0138  0.2622
10870TIP3   OH254024   3.746   1.944  16.632  0.3938 -0.4128  0.4178
10870TIP3    H154025   3.799   2.006  16.683  1.9614  1.0580 -2.8309
10870TIP3    H254026   3.708   1.997  16.562 -0.3496 -2.6625 -0.9333
10871TIP3   OH254027   4.285   1.368  14.351  0.0542 -0.2474  0.4464
10871TIP3    H154028   4.360   1.406  14.397 -0.1117  0.1591  0.3886
10871TIP3    H254029   4.309   1.372  14.258 -0.1574  0.1505  0.4072
10872TIP3   OH254030   3.572   4.068  15.628 -0.1647  0.5047 -0.3587
10872TIP3    H154031   3.607   3.992  15.675  1.6174 -0.4060 -3.0457
10872TIP3    H254032   3.599   4.144  15.679 -1.3617 -0.6046  1.9859
10873TIP3   OH254033   5.574   4.693   6.983 -0.5703 -0.1177 -0.1717
10873TIP3    H154034   5.635   4.695   6.910  0.7364  0.7256  0.8933
10873TIP3    H254035   5.594   4.612   7.030 -1.3752 -0.6361 -0.7186
10874TIP3   OH254036   6.567   1.103   3.829 -0.4865  0.3237  0.3729
10874TIP3    H154037   6.624   1.139   3.760  0.0323  0.2513  0.7635
10874TIP3    H254038   6.625   1.091   3.904 -0.8752 -0.4118  0.5525
10875TIP3   OH254039   4.816   5.326  13.597  0.2238  0.1763 -0.9446
10875TIP3    H154040   4.840   5.391  13.662 -2.9391  0.5341 -0.0805
10875TIP3    H254041   4.821   5.373  13.513 -1.0374  1.2399 -0.4292
10876TIP3   OH254042   6.033   2.951  14.603 -0.1348  0.2096 -0.1600
10876TIP3    H154043   6.010   2.943  14.696  0.7201 -0.2137  0.0173
10876TIP3    H254044   6.056   3.043  14.592  0.2695  0.1468  0.1623
10877TIP3   OH254045   4.332   1.403   4.423 -0.1610  0.1870 -0.3644
10877TIP3    H154046   4.275   1.340   4.379 -1.4098  0.6819  0.4834
10877TIP3    H254047   4.344   1.366   4.511  0.1620  0.4806 -0.2885
10878TIP3   OH254048   4.640   4.245  11.809 -0.1240 -0.4964 -0.3705
10878TIP3    H154049   4.613   4.278  11.895  0.0916  0.3815 -0.6317
10878TIP3    H254050   4.663   4.153  11.824  0.7321 -0.1187  0.6817
10879TIP3   OH254051   3.853   0.535   0.169 -1.0369 -0.3751 -0.1354
10879TIP3    H154052   3.886   0.625   0.169  1.0402 -1.0655  1.9263
10879TIP3    H254053   3.763   0.542   0.138 -0.6368  2.3007 -0.8068
10880TIP3   OH254054   4.785   3.033  14.783 -0.0236  0.6182  0.4484
10880TIP3    H154055   4.788   3.057  14.875  2.9948  2.8094 -0.1359
10880TIP3    H254056   4.870   2.991  14.767 -0.2553  0.8357 -1.4647
10881TIP3   OH254057   0.713   6.542   1.605  0.0760 -0.1564 -0.6949
10881TIP3    H154058   0.790   6.508   1.561 -0.2440  0.1694 -1.5036
10881TIP3    H254059   0.705   6.633   1.576 -0.8856 -0.3280 -1.0013
10882TIP3   OH254060   5.834   1.549  11.148 -0.4028  0.8711 -0.5356
10882TIP3    H154061   5.752   1.562  11.099 -0.2151  0.8623 -0.8552
10882TIP3    H254062   5.900   1.595  11.096  0.0798 -0.4173 -1.1020
10883TIP3   OH254063   0.854   5.433   5.330 -0.5080 -0.0220 -0.3060
10883TIP3    H154064   0.781   5.446   5.390 -0.4720 -0.9579 -0.0492
10883TIP3    H254065   0.875   5.340   5.338  1.1820  0.3854  0.1648
10884TIP3   OH254066   0.573   3.926  16.443 -0.0817  0.5911 -0.6290
10884TIP3    H154067   0.649   3.868  16.435  0.0269  0.6710 -0.1990
10884TIP3    H254068   0.499   3.868  16.459  0.0082  0.5617 -0.3169
10885TIP3   OH254069   6.321   4.528  11.957 -0.1059 -0.0363  0.6854
10885TIP3    H154070   6.337   4.623  11.955  1.2039 -0.2529 -0.2906
10885TIP3    H254071   6.323   4.502  11.865 -1.8612 -0.8058  0.8520
10886TIP3   OH254072   5.027   4.694   3.403 -0.0124 -0.2704  0.2398
10886TIP3    H154073   4.967   4.622   3.425  0.2756 -0.4363  0.4822
10886TIP3    H254074   5.095   4.689   3.470  0.8437 -0.7468 -0.6614
10887TIP3   OH254075   6.304   3.769  11.032  0.3189 -0.0766 -0.3896
10887TIP3    H154076   6.220   3.800  11.066  0.4669 -0.3232  0.2111
10887TIP3    H254077   6.357   3.753  11.110 -0.1053 -2.8792 -0.6141
10888TIP3   OH254078   0.185   5.510   5.157 -0.3120 -0.2107 -0.0811
10888TIP3    H154079   0.158   5.566   5.230  0.3668  0.5168 -0.3706
10888TIP3    H254080   0.169   5.563   5.079  3.0278  0.7514 -0.1939
10889TIP3   OH254081   0.629   5.029  12.868  0.6385  0.2233 -0.0051
10889TIP3    H154082   0.687   5.025  12.792 -0.1440 -1.7273 -0.5254
10889TIP3    H254083   0.566   5.097  12.845  0.5966 -0.1255 -0.9836
10890TIP3   OH254084   0.345   3.008  11.778 -0.3539  0.1801  0.2151
10890TIP3    H154085   0.277   2.942  11.789 -1.8460  1.6597  0.0543
10890TIP3    H254086   0.322   3.077  11.840  0.4473  1.1364 -0.5259
10891TIP3   OH254087   1.192   5.277  10.487 -0.3017 -0.4408  0.0624
10891TIP3    H154088   1.111   5.317  10.519 -0.6527  0.7802 -2.3019
10891TIP3    H254089   1.209   5.318  10.403  1.5435 -2.3598 -0.5700
10892TIP3   OH254090   0.707   4.191   6.454  0.3339  0.1966 -0.0534
10892TIP3    H154091   0.708   4.098   6.433  2.7141  0.1439  0.1978
10892TIP3    H254092   0.799   4.214   6.469 -0.3288  2.3438  0.9690
10893TIP3   OH254093   6.142   4.982  17.135  0.0275  0.1437 -0.1859
10893TIP3    H154094   6.210   5.048  17.137  0.2062 -0.0752  1.4610
10893TIP3    H254095   6.186   4.903  17.103  0.4119  0.1445  0.3483
10894TIP3   OH254096   4.330   0.773   3.247 -0.2493 -0.2266 -0.2286
10894TIP3    H154097   4.369   0.694   3.284 -0.1447 -0.0780 -0.0160
10894TIP3    H254098   4.338   0.762   3.152  2.0373  0.6407 -0.1800
10895TIP3   OH254099   4.310   4.052  16.959 -0.7091 -0.5644  0.6509
10895TIP3    H154100   4.237   4.104  16.927  0.1173 -1.9272 -3.8521
10895TIP3    H254101   4.376   4.116  16.985 -2.1321  0.6165  1.4294
10896TIP3   OH254102   5.258   3.809  14.500  0.0788 -0.9313  0.0791
10896TIP3    H154103   5.213   3.744  14.446  0.2602 -1.2783  0.3423
10896TIP3    H254104   5.211   3.891  14.483 -0.3057 -1.1795 -0.0672
10897TIP3   OH254105   1.377   4.053   5.821 -0.0447 -0.2284  0.8453
10897TIP3    H154106   1.342   4.051   5.732  0.4264  2.6053  0.5529
10897TIP3    H254107   1.300   4.041   5.877 -0.1942 -3.1861  0.0797
10898TIP3   OH254108   6.152   1.835   2.882  0.1268 -0.5393  0.1011
10898TIP3    H154109   6.103   1.914   2.861  0.5871 -0.3267 -0.1641
10898TIP3    H254110   6.174   1.797   2.797 -1.6653 -1.9312  0.2130
10899TIP3   OH254111   0.116   3.726   5.736  0.5525  0.2111 -0.0151
10899TIP3    H154112   0.051   3.660   5.760 -1.7143  1.1556 -3.1859
10899TIP3    H254113   0.123   3.781   5.814 -0.7989 -1.2203  1.1492
10900TIP3   OH254114   0.883   5.072   5.811 -0.4333 -0.4981  0.6488
10900TIP3    H154115   0.846   5.000   5.863 -2.5996  2.3009  3.1842
10900TIP3    H254116   0.867   5.047   5.720 -0.3483 -3.6057  1.4405
10901TIP3   OH254117   0.297   0.076  16.797  0.0531 -0.2919 -0.0225
10901TIP3    H154118   0.242   0.033  16.730 -1.0761 -0.1020  0.7738
10901TIP3    H254119   0.252   0.058  16.880  0.0658  1.6315  0.4290
10902TIP3   OH254120   4.248   1.046  14.247 -0.1880 -0.1448  0.3832
10902TIP3    H154121   4.195   1.074  14.321 -0.0333 -1.5865  1.0739
10902TIP3    H254122   4.280   1.127  14.208 -1.5505  0.6838  0.9439
10903TIP3   OH254123   0.667   5.905   3.146 -0.0834 -0.0257 -0.1398
10903TIP3    H154124   0.698   5.937   3.231 -0.3742  0.4792 -0.2201
10903TIP3    H254125   0.596   5.844   3.167 -0.8822  0.9161 -0.0507
10904TIP3   OH254126   1.230   1.152  13.476 -0.2200 -0.1286  0.3819
10904TIP3    H154127   1.149   1.202  13.461 -0.7982 -0.8662  0.9654
10904TIP3    H254128   1.254   1.119  13.389 -0.7455 -0.1884  0.2537
10905TIP3   OH254129   4.638   5.872  17.038  0.1100  0.6838  0.0764
10905TIP3    H154130   4.733   5.868  17.028  0.1894  0.5616  0.8861
10905TIP3    H254131   4.607   5.912  16.956  0.8473  0.6669 -0.2148
10906TIP3   OH254132   4.512   6.288  13.994 -0.1134 -0.5024 -0.2146
10906TIP3    H154133   4.501   6.198  13.962 -0.8761 -0.4149 -0.1980
10906TIP3    H254134   4.435   6.304  14.048  0.3851 -0.0913  0.3769
10907TIP3   OH254135   3.916   3.188  15.811 -0.4034  0.3771 -0.0361
10907TIP3    H154136   3.827   3.207  15.840 -0.2345 -0.6476  1.2149
10907TIP3    H254137   3.911   3.192  15.715 -1.5394  1.4035  0.0512
10908TIP3   OH254138   6.449   5.579   4.666 -0.1817 -0.1434 -0.3118
10908TIP3    H154139   6.372   5.559   4.721 -0.3659  1.8826  0.1917
10908TIP3    H254140   6.412   5.610   4.584  0.0911  0.5338 -0.1824
10909TIP3   OH254141   1.917   4.174  11.755  0.0040 -0.3798 -0.4652
10909TIP3    H154142   2.002   4.129  11.746 -0.4361 -0.9490 -1.8682
10909TIP3    H254143   1.859   4.107  11.791  0.3997  0.3327  1.6014
10910TIP3   OH254144   3.624   5.829   1.672 -0.1244  0.0319  0.3075
10910TIP3    H154145   3.690   5.768   1.639 -0.5500  0.5456 -1.5879
10910TIP3    H254146   3.541   5.787   1.653 -0.3680 -1.1716  3.8109
10911TIP3   OH254147   5.230   2.343  13.217 -0.3292  0.2356  0.9804
10911TIP3    H154148   5.204   2.339  13.125  0.3792  1.4340  0.7285
10911TIP3    H254149   5.230   2.251  13.245 -0.8223 -0.1137 -0.1279
10912TIP3   OH254150   3.944   3.596   0.367  0.2162 -0.4744 -0.2381
10912TIP3    H154151   3.962   3.592   0.273 -0.0268 -2.0091 -0.2334
10912TIP3    H254152   4.002   3.530   0.405  1.9372  1.6592  0.9642
10913TIP3   OH254153   2.923   0.209   3.373  0.0628  0.6213 -0.1039
10913TIP3    H154154   2.989   0.141   3.361 -0.4331  0.3238 -1.2385
10913TIP3    H254155   2.858   0.191   3.305 -1.3506  0.7103  1.2105
10914TIP3   OH254156   0.947   4.539  13.255 -0.2889 -0.0930 -0.1553
10914TIP3    H154157   0.966   4.561  13.346 -1.6728  2.2809 -0.3758
10914TIP3    H254158   0.852   4.532  13.252 -0.1753 -1.1940 -1.1991
10915TIP3   OH254159   0.106   6.717  16.664  0.0681  0.5569 -0.2807
10915TIP3    H154160   0.011   6.730  16.657  0.1251  0.5413 -1.2095
10915TIP3    H254161   0.117   6.623  16.676 -0.0353  0.5628 -0.1408
10916TIP3   OH254162   2.245   3.440  13.139 -0.0464 -0.2830  0.2957
10916TIP3    H154163   2.339   3.444  13.156 -0.1384 -0.7713  0.9230
10916TIP3    H254164   2.204   3.476  13.217 -0.4354 -1.6480  0.7493
10917TIP3   OH254165   1.718   0.736  12.651 -0.2996  0.2769 -0.0126
10917TIP3    H154166   1.691   0.670  12.587  0.1522 -0.3552  0.4446
10917TIP3    H254167   1.641   0.793  12.659 -0.9578 -0.6147  0.1317
10918TIP3   OH254168   1.869   4.060  17.163  0.1743 -0.1064 -0.4858
10918TIP3    H154169   1.810   4.085  17.092  1.6704 -1.7733 -2.3833
10918TIP3    H254170   1.829   3.982  17.201 -0.1884  0.2983 -0.0251
10919TIP3   OH254171   5.967   2.106  10.811 -0.3080  0.1908 -0.2185
10919TIP3    H154172   5.882   2.141  10.784 -0.0520  0.1814 -1.0635
10919TIP3    H254173   5.973   2.127  10.904 -1.3612 -0.0684 -0.0841
10920TIP3   OH254174   2.260   1.624  13.197 -0.3577  0.0312  0.1592
10920TIP3    H154175   2.258   1.655  13.106 -1.0277  1.0101  0.5051
10920TIP3    H254176   2.219   1.694  13.247 -0.5004 -0.7536  1.1525
10921TIP3   OH254177   3.113   1.099   3.092  0.2525  0.4692 -0.5236
10921TIP3    H154178   3.114   1.195   3.095  0.5861  0.4345  0.7670
10921TIP3    H254179   3.087   1.073   3.180 -0.0669 -0.6315 -0.9371
10922TIP3   OH254180   5.959   2.381   1.075 -0.2224 -0.0979 -1.1005
10922TIP3    H154181   5.892   2.318   1.100 -0.4936  0.1783 -1.1243
10922TIP3    H254182   5.989   2.419   1.158  2.7815 -3.0949 -0.7110
10923TIP3   OH254183   2.516   6.593  10.378  0.0559  0.0282 -0.4923
10923TIP3    H154184   2.441   6.573  10.434 -1.6852  3.0887 -1.6132
10923TIP3    H254185   2.570   6.651  10.431  0.8218 -0.8560 -0.2931
10924TIP3   OH254186   5.764   5.667   6.575  0.2011  0.0823  0.3603
10924TIP3    H154187   5.842   5.674   6.630  0.6353  1.4949 -0.4189
10924TIP3    H254188   5.764   5.576   6.546  3.1442  0.7433 -1.8957
10925TIP3   OH254189   2.861   2.400  11.338  0.2012 -0.4226 -0.3602
10925TIP3    H154190   2.914   2.417  11.260 -0.7054  0.9728 -0.6884
10925TIP3    H254191   2.771   2.397  11.306 -0.2779  1.2633  0.7913
10926TIP3   OH254192   2.882   5.866   2.056  0.1792 -0.6016  0.7017
10926TIP3    H154193   2.900   5.790   2.001 -0.1989  0.1998 -0.5370
10926TIP3    H254194   2.786   5.870   2.060  0.1738  0.5955 -0.3499
10927TIP3   OH254195   4.693   1.722   4.938  0.3258  0.1339 -0.0066
10927TIP3    H154196   4.696   1.627   4.928 -1.6753  0.2377 -1.9346
10927TIP3    H254197   4.655   1.737   5.024 -3.2520 -0.8416 -1.3500
10928TIP3   OH254198   5.352   1.589  15.313  0.3130 -0.1275  0.2378
10928TIP3    H154199   5.340   1.596  15.218 -2.5165  0.1014  0.5581
10928TIP3    H254200   5.318   1.671  15.348 -1.5931 -1.4788  1.6478
10929TIP3   OH254201   1.020   1.900   1.012  0.1018 -0.1140 -0.2274
10929TIP3    H154202   1.077   1.972   0.983 -0.1703  0.2608  0.1624
10929TIP3    H254203   1.076   1.846   1.067  0.1637  0.0918 -0.0876
10930TIP3   OH254204   1.930   4.984   1.326 -0.2178  0.0688 -0.4217
10930TIP3    H154205   2.019   4.991   1.360  0.6098 -0.8788 -2.3050
10930TIP3    H254206   1.886   4.924   1.386  1.2608 -1.6838 -1.0303
10931TIP3   OH254207   0.220   4.550  12.024  0.0106 -0.2292 -0.1078
10931TIP3    H154208   0.311   4.527  12.006  0.0362 -0.6550  0.5339
10931TIP3    H254209   0.181   4.561  11.937  0.6138 -0.2656 -0.3914
10932TIP3   OH254210   0.376   1.261   3.782 -0.2091 -0.4458 -0.3575
10932TIP3    H154211   0.433   1.270   3.706 -0.7174 -1.9500 -0.9226
10932TIP3    H254212   0.434   1.229   3.851 -0.1682 -1.0010 -0.6521
10933TIP3   OH254213   4.356   3.927   0.469  0.4206 -0.3812  0.2092
10933TIP3    H154214   4.323   3.895   0.385  1.5123 -0.7249 -0.0961
10933TIP3    H254215   4.448   3.947   0.453  1.2184 -2.5583  1.8963
10934TIP3   OH254216   0.001   0.182   0.979  0.4027  0.3122 -0.3676
10934TIP3    H154217   0.096   0.175   0.969  0.4669 -0.1953  0.5240
10934TIP3    H254218  -0.012   0.255   1.039  0.3248 -0.7953  0.9948
10935TIP3   OH254219   2.688   3.849  11.160 -0.0049 -0.4649 -0.0771
10935TIP3    H154220   2.772   3.881  11.128 -0.1816  0.8449  0.7434
10935TIP3    H254221   2.667   3.775  11.103  1.5727 -0.6296 -0.4564
10936TIP3   OH254222   5.909   6.281   4.510 -0.5060 -0.4653 -0.4222
10936TIP3    H154223   5.897   6.250   4.600 -1.5945 -1.4346 -0.8955
10936TIP3    H254224   5.874   6.211   4.455 -4.2063  2.0701 -1.5169
10937TIP3   OH254225   6.130   1.136   3.978 -0.1084 -0.0266  0.0421
10937TIP3    H154226   6.090   1.113   4.062 -0.0853 -0.3907 -0.0469
10937TIP3    H254227   6.086   1.217   3.951  2.8488  2.5738  2.5064
10938TIP3   OH254228   0.944   2.869  16.473 -0.1123  0.1434 -0.1467
10938TIP3    H154229   0.895   2.903  16.548  2.4568  3.9134 -0.0846
10938TIP3    H254230   0.884   2.879  16.399 -1.4649 -0.5360  0.8415
10939TIP3   OH254231   2.919   5.219   3.084  0.3534  0.2083 -0.1714
10939TIP3    H154232   2.870   5.197   3.005  0.5162  1.0325 -0.5068
10939TIP3    H254233   2.973   5.142   3.102  0.2009 -0.0380 -0.7745
10940TIP3   OH254234   2.913   5.882   3.331  0.4228  0.2693 -0.4643
10940TIP3    H154235   2.945   5.815   3.393 -0.9410  0.4920  0.5065
10940TIP3    H254236   2.989   5.900   3.275  1.1241 -1.3429 -0.0907
10941TIP3   OH254237   4.827   1.586  13.210 -0.2304  0.2970 -0.2247
10941TIP3    H154238   4.795   1.671  13.238  0.7914 -0.1359  2.3684
10941TIP3    H254239   4.748   1.540  13.180 -0.9398  1.7572 -0.6683
10942TIP3   OH254240   3.214   1.851  16.845  0.1254  0.6543  0.3097
10942TIP3    H154241   3.128   1.893  16.851 -0.2221 -0.2799  2.0162
10942TIP3    H254242   3.218   1.794  16.921  0.9044 -1.8574 -1.5592
10943TIP3   OH254243   0.123   4.763  12.885 -0.1739  0.5799  0.0776
10943TIP3    H154244   0.159   4.846  12.914 -2.2682  0.8898  1.9111
10943TIP3    H254245   0.097   4.718  12.965 -1.1313 -0.8743 -1.0042
10944TIP3   OH254246   4.432   2.656   2.116  0.0772 -0.8349 -0.6014
10944TIP3    H154247   4.526   2.664   2.135  0.0278 -1.8131  0.1167
10944TIP3    H254248   4.421   2.563   2.094 -0.8644 -0.8870  0.0893
10945TIP3   OH254249   1.212   0.138  13.716  0.2561 -0.0817 -0.3395
10945TIP3    H154250   1.219   0.139  13.811  1.5664  0.4304 -0.4383
10945TIP3    H254251   1.293   0.097  13.686  0.6901  1.4327 -1.3048
10946TIP3   OH254252   3.483   5.902   6.471  0.4878 -0.0703 -0.0810
10946TIP3    H154253   3.531   5.825   6.439  1.5680  0.2345  0.7932
10946TIP3    H254254   3.546   5.973   6.467  0.2443  0.2488  1.4788
10947TIP3   OH254255   4.702   5.273  12.101 -0.0583  0.2600 -0.0167
10947TIP3    H154256   4.673   5.246  12.013  1.1461 -0.3550 -0.2332
10947TIP3    H254257   4.756   5.200  12.131 -2.7585 -0.8207  2.4053
10948TIP3   OH254258   1.568   4.897   2.325 -0.4635 -0.0771  0.1090
10948TIP3    H154259   1.627   4.923   2.254  0.7157 -1.6433  0.4652
10948TIP3    H254260   1.622   4.839   2.380 -2.4248 -1.7593  0.3015
10949TIP3   OH254261   5.099   1.283  13.442  0.1430 -0.4175 -0.1414
10949TIP3    H154262   5.095   1.374  13.472  0.4929  0.6594 -3.2042
10949TIP3    H254263   5.012   1.247  13.461 -0.0994  0.6482  0.7694
10950TIP3   OH254264   0.814   3.549   1.500 -0.1962  0.2727 -0.4774
10950TIP3    H154265   0.830   3.640   1.476 -0.2647  0.3821 -0.1125
10950TIP3    H254266   0.828   3.546   1.594 -2.2819  0.3596 -0.1447
10951TIP3   OH254267   3.935   4.496   2.512  0.0222  0.1620 -0.4426
10951TIP3    H154268   3.992   4.533   2.444  1.3815  0.3056  0.7586
10951TIP3    H254269   3.883   4.431   2.465  1.9135 -0.7327 -1.3948
10952TIP3   OH254270   4.727   3.921   4.475  0.0548 -0.0286  0.5300
10952TIP3    H154271   4.785   3.974   4.530  0.0222  0.4790  0.0727
10952TIP3    H254272   4.785   3.878   4.413 -0.0030  0.0881  0.3943
10953TIP3   OH254273   1.504   2.360   3.517 -0.2199  0.2528 -0.2490
10953TIP3    H154274   1.558   2.437   3.497  0.5828  0.0315  1.0426
10953TIP3    H254275   1.416   2.396   3.533  0.2153  0.9241  0.6251
10954TIP3   OH254276   2.330   2.557   1.581 -0.5089 -0.3376  0.1596
10954TIP3    H154277   2.273   2.591   1.513 -1.6492  0.4074  1.4753
10954TIP3    H254278   2.394   2.627   1.597  1.4195 -1.5397 -1.9912
10955TIP3   OH254279   4.439   0.972   1.425  0.2151  0.1142 -0.3139
10955TIP3    H154280   4.360   0.952   1.374  0.2934  2.9526 -1.6081
10955TIP3    H254281   4.412   1.044   1.482  1.4514  0.0012  0.4259
10956TIP3   OH254282   3.816   1.013  14.677 -0.0543  0.2970  0.0542
10956TIP3    H154283   3.880   1.075  14.712 -0.0333 -0.5481  1.5170
10956TIP3    H254284   3.769   1.063  14.610  0.6532  1.5846  0.5016
10957TIP3   OH254285   4.835   1.464   5.108  0.3378 -0.2877 -0.0445
10957TIP3    H154286   4.883   1.540   5.077  1.0957 -1.3430 -1.5031
10957TIP3    H254287   4.884   1.434   5.184 -0.2450  0.9541  0.8432
10958TIP3   OH254288   3.673   5.917  14.729  0.6710 -0.4730  0.9024
10958TIP3    H154289   3.735   5.917  14.656 -0.6581  1.8966 -0.2993
10958TIP3    H254290   3.625   5.834  14.719  0.1862  0.0246 -1.2245
10959TIP3   OH254291   0.071   3.800   0.762  0.0411  0.0279 -0.4423
10959TIP3    H154292   0.106   3.878   0.806  0.8053  0.2016 -1.3579
10959TIP3    H254293  -0.015   3.829   0.730  0.3988  0.5569 -0.9421
10960TIP3   OH254294   1.504   3.817  11.393  0.0260 -0.0200 -0.2543
10960TIP3    H154295   1.514   3.858  11.479  1.6812 -2.5047  0.7883
10960TIP3    H254296   1.410   3.801  11.385 -0.2603  1.1350  0.6458
10961TIP3   OH254297   0.430   2.587   6.265 -0.0859  0.5104  0.2886
10961TIP3    H154298   0.411   2.543   6.182 -1.1202  0.8151  0.3542
10961TIP3    H254299   0.347   2.629   6.289  0.6911  1.9297  0.5574
10962TIP3   OH254300   5.084   1.350   4.634  0.5353  0.2101 -0.2045
10962TIP3    H154301   5.147   1.288   4.670  1.4346 -0.2777 -2.4845
10962TIP3    H254302   4.999   1.317   4.661  1.0485 -1.6106 -0.7273
10963TIP3   OH254303   2.819   4.761   2.230  0.1866 -0.2338 -0.1515
10963TIP3    H154304   2.759   4.835   2.223  1.5360  0.8511 -0.5160
10963TIP3    H254305   2.840   4.739   2.139  1.5618  0.4178 -0.0010
10964TIP3   OH254306   5.346   5.866   4.657 -0.7096 -0.9694  0.5956
10964TIP3    H154307   5.355   5.873   4.752  0.3730  0.3462  0.4172
10964TIP3    H254308   5.427   5.825   4.627 -0.9793 -1.2410  0.2274
10965TIP3   OH254309   3.680   0.517   5.711 -0.2226 -0.1906  0.6915
10965TIP3    H154310   3.642   0.482   5.791 -0.2846 -0.5881  0.4907
10965TIP3    H254311   3.679   0.612   5.723 -1.4518 -0.1817  0.6140
10966TIP3   OH254312   1.284   6.334   2.277  0.7890  0.0202 -0.1077
10966TIP3    H154313   1.198   6.304   2.250 -0.0544 -0.5265  2.9709
10966TIP3    H254314   1.330   6.254   2.306  1.5472  0.5709  0.2490
10967TIP3   OH254315   0.885   1.578  16.068  0.9153  0.0261  0.3854
10967TIP3    H154316   0.896   1.668  16.097 -1.1944  0.1220  0.8998
10967TIP3    H254317   0.836   1.584  15.987  2.2523 -0.5841 -0.4984
10968TIP3   OH254318   4.222   0.634  14.232 -0.2989  0.0209 -0.2192
10968TIP3    H154319   4.154   0.642  14.165 -1.7022 -2.9645  0.7770
10968TIP3    H254320   4.177   0.657  14.314 -0.2071 -2.2121  0.4812
10969TIP3   OH254321   4.243   4.006   3.404  0.2602  0.1132 -0.0453
10969TIP3    H154322   4.327   3.991   3.447 -0.4216  0.8460  1.6123
10969TIP3    H254323   4.217   3.920   3.370  1.2856 -0.2863  0.1754
10970TIP3   OH254324   0.125   5.366   3.086 -0.0411  0.4992  0.5651
10970TIP3    H154325   0.203   5.340   3.136  0.4666  1.1743  0.1296
10970TIP3    H254326   0.142   5.456   3.060  0.4516 -0.3607 -2.2230
10971TIP3   OH254327   0.592   5.772  14.384 -0.0549 -0.2908  0.3492
10971TIP3    H154328   0.546   5.843  14.340 -1.2877  0.8484  3.4084
10971TIP3    H254329   0.533   5.696  14.375  0.2090 -0.3577 -0.8945
10972TIP3   OH254330   2.195   2.424   2.343 -0.0203  0.4881  0.2624
10972TIP3    H154331   2.117   2.441   2.292  1.0919  1.4013 -1.1739
10972TIP3    H254332   2.231   2.511   2.362  0.8692  0.0677  0.5380
10973TIP3   OH254333   4.205   5.563   6.431  0.0423 -0.1225  0.1681
10973TIP3    H154334   4.146   5.509   6.380  0.5732  0.6510 -1.2950
10973TIP3    H254335   4.247   5.502   6.492 -0.2520 -1.1323 -0.6283
10974TIP3   OH254336   0.548   2.146   4.324  0.4936 -0.5305  0.5286
10974TIP3    H154337   0.468   2.125   4.276  0.1176 -2.5382  1.9359
10974TIP3    H254338   0.615   2.092   4.282  0.8540  0.2207  0.1397
10975TIP3   OH254339   1.576   0.816  14.761 -0.2445 -0.6499 -0.0987
10975TIP3    H154340   1.662   0.784  14.734  0.4429  0.9507  0.1551
10975TIP3    H254341   1.561   0.894  14.708 -0.7556  0.0898  1.1149
10976TIP3   OH254342   6.632   2.044   5.463 -0.2616  0.0764  0.4526
10976TIP3    H154343   6.617   1.976   5.529  0.3038  0.8956  1.4586
10976TIP3    H254344   6.728   2.049   5.456 -0.2739  1.3574  1.0351
10977TIP3   OH254345   2.287   3.593  13.998 -0.1876  0.3522 -0.2154
10977TIP3    H154346   2.344   3.585  13.921  1.5146  1.2380  0.9570
10977TIP3    H254347   2.341   3.564  14.071 -1.7586 -0.3227  0.6993
10978TIP3   OH254348   2.175   1.395  11.447 -0.3610  0.0734 -0.2329
10978TIP3    H154349   2.188   1.306  11.479  0.2783  0.5998  1.0189
10978TIP3    H254350   2.084   1.416  11.470 -0.6625 -0.4255 -0.9674
10979TIP3   OH254351   0.255   2.571   1.111 -0.3953  0.7947  0.1767
10979TIP3    H154352   0.324   2.532   1.163  0.7592  2.4265 -0.0873
10979TIP3    H254353   0.279   2.552   1.020 -0.2360  1.4518  0.0789
10980TIP3   OH254354   6.208   0.682   0.037 -0.0336 -0.2410  0.3708
10980TIP3    H154355   6.176   0.770   0.060 -1.0548 -0.3560 -0.5541
10980TIP3    H254356   6.299   0.696   0.009 -0.7926  0.8463 -1.6874
10981TIP3   OH254357   5.345   1.840   4.007 -0.3206 -0.0044  0.1612
10981TIP3    H154358   5.356   1.929   3.972  3.3268 -0.4146  0.1468
10981TIP3    H254359   5.280   1.850   4.077  0.8243  2.8830  0.8696
10982TIP3   OH254360   1.478   5.544  14.713 -0.2790 -0.3775  0.2917
10982TIP3    H154361   1.526   5.569  14.634 -2.2639  0.0372 -0.8343
10982TIP3    H254362   1.423   5.470  14.685 -0.6084 -0.5693  1.4185
10983TIP3   OH254363   4.946   3.477  11.203 -0.3477 -0.1528 -0.0137
10983TIP3    H154364   4.867   3.498  11.152  0.3855  0.5812 -0.8556
10983TIP3    H254365   4.946   3.543  11.273  1.1627  1.8285 -1.8098
10984TIP3   OH254366   4.387   1.267  11.109  0.1392 -0.7013 -0.2837
10984TIP3    H154367   4.326   1.270  11.035  0.5454 -1.2703 -0.6464
10984TIP3    H254368   4.473   1.257  11.069  0.4409 -0.2267  0.2427
10985TIP3   OH254369   6.600   5.892   3.572 -0.2854 -0.0519  0.4543
10985TIP3    H154370   6.562   5.926   3.653 -0.9020 -3.6698  1.7949
10985TIP3    H254371   6.688   5.865   3.597  0.0680  0.2417 -0.4737
10986TIP3   OH254372   1.601   2.498   3.225  0.0078 -0.0577  0.5729
10986TIP3    H154373   1.577   2.545   3.305 -1.1539 -0.0396  0.2102
10986TIP3    H254374   1.682   2.541   3.196 -0.8240  1.4873  0.4642
10987TIP3   OH254375   2.286   4.138  11.548 -0.2847  0.0528  0.5673
10987TIP3    H154376   2.329   4.136  11.633  0.6473 -2.7186  0.0812
10987TIP3    H254377   2.355   4.162  11.486 -0.1889 -1.1337  0.2014
10988TIP3   OH254378   4.186   2.775  15.164  0.3435 -0.1596 -0.7291
10988TIP3    H154379   4.221   2.858  15.196 -2.3070  0.1975  1.4512
10988TIP3    H254380   4.130   2.800  15.091 -0.5519 -0.0030  0.0059
10989TIP3   OH254381   2.628   6.372   3.104  0.4336 -0.8496 -0.3892
10989TIP3    H154382   2.591   6.445   3.054  0.4861 -0.9814 -0.6201
10989TIP3    H254383   2.616   6.397   3.196 -0.6383 -1.0926 -0.4543
10990TIP3   OH254384   2.830   0.725  13.028 -0.1141  0.1196 -0.4537
10990TIP3    H154385   2.921   0.754  13.037 -0.2996  0.8013 -0.7683
10990TIP3    H254386   2.814   0.725  12.934 -1.1418  2.1705 -0.2839
10991TIP3   OH254387   3.023   5.263  15.745 -0.4932 -0.1442 -0.0708
10991TIP3    H154388   3.115   5.291  15.738 -0.6487  1.5589  3.2485
10991TIP3    H254389   3.016   5.188  15.687  3.1777 -0.6797  0.0236
10992TIP3   OH254390   1.636   5.212   5.174  0.1330  0.2701  0.2425
10992TIP3    H154391   1.615   5.172   5.259 -1.1604  1.6803  0.6028
10992TIP3    H254392   1.697   5.283   5.195 -2.2652  2.3584  0.3533
10993TIP3   OH254393   0.439   3.822   0.280  0.2778 -0.1577  0.1359
10993TIP3    H154394   0.491   3.819   0.200  1.1595  1.1779  0.6398
10993TIP3    H254395   0.500   3.850   0.348 -1.0639  1.4082  0.7504
10994TIP3   OH254396   3.469   4.700   0.538 -0.2453 -0.9998  0.8299
10994TIP3    H154397   3.524   4.767   0.579 -1.2219  0.2437  0.1575
10994TIP3    H254398   3.405   4.750   0.487 -1.7333 -2.4109  1.2580
10995TIP3   OH254399   2.699   0.549   2.533  0.5786  0.2237 -0.2230
10995TIP3    H154400   2.651   0.607   2.593  1.1675  0.1590  0.3232
10995TIP3    H254401   2.633   0.490   2.498 -0.0219  1.2262 -0.7750
10996TIP3   OH254402   1.485   0.426   0.634  0.1958  0.1666 -0.0425
10996TIP3    H154403   1.402   0.383   0.617  0.3917 -0.4223  0.4684
10996TIP3    H254404   1.465   0.519   0.631 -0.5049  0.0263  0.1795
10997TIP3   OH254405   5.323   2.029  11.949 -0.1128  0.0946 -0.2149
10997TIP3    H154406   5.332   2.017  11.855 -0.6082  1.4146 -0.4451
10997TIP3    H254407   5.229   2.041  11.963 -0.2070 -1.5569  0.6309
10998TIP3   OH254408   4.473   2.410  13.820  0.0120 -0.5144  0.6904
10998TIP3    H154409   4.536   2.429  13.889 -1.0661  0.6470  1.3830
10998TIP3    H254410   4.464   2.315  13.820  3.3405 -0.9106 -0.8601
10999TIP3   OH254411   1.982   3.322   5.864  0.5466 -0.2386  0.3451
10999TIP3    H154412   1.923   3.277   5.924  0.1589 -0.7838 -0.4300
10999TIP3    H254413   2.057   3.263   5.855  0.9641  0.2042  0.9072
11000TIP3   OH254414   4.518   6.417   4.172  0.6711  0.1713  0.1432
11000TIP3    H154415   4.447   6.478   4.192  0.3239  0.2711 -1.3611
11000TIP3    H254416   4.474   6.339   4.138  1.2193 -0.2132  0.3145
11001TIP3   OH254417   2.033   5.053  13.142 -0.3071 -0.2667 -0.3190
11001TIP3    H154418   2.053   5.081  13.052 -0.5763  0.9720  0.0036
11001TIP3    H254419   2.113   5.009  13.171  1.1367  2.5361  0.1023
11002TIP3   OH254420   3.081   4.726   2.293  0.2429 -0.1122  0.1372
11002TIP3    H154421   3.108   4.714   2.202 -0.9763  1.9987 -0.5551
11002TIP3    H254422   2.992   4.763   2.286  0.2413  0.2866  2.1583
11003TIP3   OH254423   2.267   5.897   1.264 -0.9964  0.3091  0.0053
11003TIP3    H154424   2.358   5.913   1.239  0.3611 -0.5204  4.0428
11003TIP3    H254425   2.250   5.806   1.238 -0.3782  0.1715  0.0907
11004TIP3   OH254426   2.703   6.519  10.774 -0.3471  0.1731  0.0517
11004TIP3    H154427   2.716   6.578  10.700 -1.5236  0.1634 -0.1683
11004TIP3    H254428   2.736   6.434  10.744 -0.0536  0.3648 -0.1620
11005TIP3   OH254429   5.931   5.089  12.497 -0.1287  0.0304  0.1334
11005TIP3    H154430   5.852   5.052  12.458 -0.6645  1.3448 -0.0263
11005TIP3    H254431   5.989   5.013  12.510 -1.3996 -0.9322  0.2454
11006TIP3   OH254432   1.394   0.414  13.057 -0.0873  0.1712 -0.3172
11006TIP3    H154433   1.334   0.341  13.071  1.8403 -1.2983  0.5102
11006TIP3    H254434   1.366   0.480  13.121 -1.1460 -0.2629 -0.3149
11007TIP3   OH254435   2.107   5.929  11.689 -0.4546  0.0766 -0.2238
11007TIP3    H154436   2.163   5.913  11.613 -1.7534  0.2853 -1.2367
11007TIP3    H254437   2.042   5.859  11.687 -1.8747  1.3710 -0.6357
11008TIP3   OH254438   6.773   5.291  14.419  0.2818 -0.3657 -0.2799
11008TIP3    H154439   6.822   5.264  14.342 -2.3186 -0.3127 -2.0350
11008TIP3    H254440   6.762   5.211  14.470  0.9786 -0.6461 -0.5656
11009TIP3   OH254441   0.160   4.570  11.769 -0.2584  0.0135  0.4237
11009TIP3    H154442   0.212   4.651  11.772  0.0415 -0.2043  1.7957
11009TIP3    H254443   0.122   4.568  11.681 -1.4657  2.4109  0.8439
11010TIP3   OH254444   5.973   5.858  16.344  0.6163  0.3275 -0.2616
11010TIP3    H154445   6.066   5.868  16.363  0.0515  0.0177  2.9103
11010TIP3    H254446   5.948   5.940  16.301  2.1879  0.7059 -0.4706
11011TIP3   OH254447   0.466   5.795  13.645  0.5020 -0.4898  0.3955
11011TIP3    H154448   0.544   5.768  13.597  0.3590  0.6619 -0.5243
11011TIP3    H254449   0.412   5.840  13.579  0.2429  1.0023  1.6067
11012TIP3   OH254450   0.512   5.155   1.443  0.4717  0.0588  0.1029
11012TIP3    H154451   0.579   5.111   1.496 -0.5370  1.3765  2.5446
11012TIP3    H254452   0.559   5.229   1.404  0.6309  0.5859  1.2597
11013TIP3   OH254453   4.112   2.476   3.539 -0.2576  0.4243 -0.6858
11013TIP3    H154454   4.126   2.384   3.562 -0.9515  1.0209  2.3822
11013TIP3    H254455   4.144   2.483   3.449  1.4750 -2.4114 -0.3668
11014TIP3   OH254456   2.302   5.697  12.503 -0.2916 -0.1072  0.0568
11014TIP3    H154457   2.215   5.732  12.522 -0.3728 -0.3384  0.1120
11014TIP3    H254458   2.357   5.729  12.575  0.0708  1.5330 -0.9080
11015TIP3   OH254459   1.210   2.894   1.993  0.2239  0.0621 -0.0187
11015TIP3    H154460   1.139   2.954   2.014 -0.5777 -0.4567 -1.1738
11015TIP3    H254461   1.269   2.944   1.937  0.7799  0.4947  0.9442
11016TIP3   OH254462   3.642   0.878  16.268  0.1035 -0.2225 -0.1303
11016TIP3    H154463   3.600   0.964  16.277  3.1927  1.6453 -2.1326
11016TIP3    H254464   3.618   0.849  16.180  0.6294 -0.4902 -0.1868
11017TIP3   OH254465   5.431   2.940   5.304  0.4711  0.0707  0.1026
11017TIP3    H154466   5.459   2.995   5.378 -2.8996  1.7247  0.2465
11017TIP3    H254467   5.353   2.984   5.270 -0.4702 -2.9382 -1.8141
11018TIP3   OH254468   6.772   0.541   1.439  0.4222  0.6422  0.2952
11018TIP3    H154469   6.851   0.528   1.387 -1.4276 -3.1662 -1.7594
11018TIP3    H254470   6.729   0.616   1.398  1.6545  1.0496 -0.2767
11019TIP3   OH254471   1.601   2.825   5.910 -0.0167 -0.1346  0.3437
11019TIP3    H154472   1.552   2.750   5.876  0.8552 -0.4048 -0.3454
11019TIP3    H254473   1.648   2.791   5.985 -1.6525  0.3719  1.6267
11020TIP3   OH254474   3.838   4.701   5.197  0.0250  0.0972 -0.1436
11020TIP3    H154475   3.880   4.732   5.116  0.3892  0.7504  0.2937
11020TIP3    H254476   3.815   4.610   5.178 -0.7393  0.5188 -1.3244
11021TIP3   OH254477   3.656   5.387   3.486 -0.2277  0.5537 -0.0586
11021TIP3    H154478   3.569   5.404   3.523 -0.3712 -1.3110  0.5109
11021TIP3    H254479   3.639   5.358   3.397 -0.1809  0.4429 -0.0319
11022TIP3   OH254480   3.150   5.212  11.709 -0.1731  0.6570 -0.4035
11022TIP3    H154481   3.064   5.253  11.723  0.3615  1.7004 -0.1268
11022TIP3    H254482   3.140   5.163  11.628 -1.5687 -0.6826  0.5435
11023TIP3   OH254483   0.313   3.052   2.543  0.0022 -0.4193 -0.2737
11023TIP3    H154484   0.301   2.958   2.537 -1.5851 -0.1838 -1.1698
11023TIP3    H254485   0.308   3.071   2.637 -0.5102 -1.1248 -0.1547
11024TIP3   OH254486   5.491   1.367   4.394  0.7269  1.0894 -0.1385
11024TIP3    H154487   5.502   1.379   4.488  2.1185 -4.7114  0.6214
11024TIP3    H254488   5.400   1.339   4.385  0.6884  1.3294 -0.5030
11025TIP3   OH254489   3.018   3.389   6.803  0.0200 -0.1360 -0.3014
11025TIP3    H154490   3.061   3.327   6.861  0.2801 -1.4551 -1.8731
11025TIP3    H254491   3.071   3.387   6.723 -1.5063  0.1075 -1.3381
11026TIP3   OH254492   0.124   4.335  16.916 -0.5043  0.0082 -0.0270
11026TIP3    H154493   0.068   4.373  16.982  0.1211  2.2835 -0.7397
11026TIP3    H254494   0.068   4.275  16.867 -1.2542 -0.7854  1.7689
11027TIP3   OH254495   5.664   1.262   1.643 -0.3100  0.3054 -0.5017
11027TIP3    H154496   5.639   1.186   1.697  0.6960 -0.0165 -0.4667
11027TIP3    H254497   5.630   1.242   1.556  1.5772 -1.0953 -0.9548
11028TIP3   OH254498   4.680   0.340   2.798 -0.4019 -0.4370  0.5817
11028TIP3    H154499   4.733   0.277   2.847  0.0947 -0.9166 -0.5442
11028TIP3    H254500   4.716   0.338   2.709 -1.9621 -0.3561 -0.0734
11029TIP3   OH254501   2.540   6.218   3.386 -0.1281  0.2912 -0.0179
11029TIP3    H154502   2.604   6.152   3.357 -1.4352 -0.0165 -2.2745
11029TIP3    H254503   2.523   6.195   3.478 -0.5890 -2.5598 -0.7774
11030TIP3   OH254504   1.572   5.282  13.088 -0.2313 -0.4994 -0.2670
11030TIP3    H154505   1.661   5.281  13.054 -0.5918  1.7924 -1.3662
11030TIP3    H254506   1.525   5.217  13.035  0.7289 -1.6587  0.2618
11031TIP3   OH254507   3.640   4.181  14.008  0.3990 -0.7421 -0.2312
11031TIP3    H154508   3.592   4.136  13.938  1.6072 -1.7057 -0.4569
11031TIP3    H254509   3.572   4.215  14.066 -0.5767 -1.3716 -0.9904
11032TIP3   OH254510   0.318   3.065  13.638 -0.3886  0.0733  0.9513
11032TIP3    H154511   0.322   3.086  13.545 -1.2837 -1.9836  0.4363
11032TIP3    H254512   0.321   3.150  13.681  0.7436  1.0210 -0.9199
11033TIP3   OH254513   4.586   6.094   2.277 -0.5141  0.8835  0.1323
11033TIP3    H154514   4.497   6.078   2.309 -0.8910 -0.0467 -1.3355
11033TIP3    H254515   4.573   6.143   2.195  0.3270  0.9334  0.0253
11034TIP3   OH254516   4.941   2.982   0.138 -0.1034  0.1288 -0.0332
11034TIP3    H154517   4.899   2.903   0.105  0.2336  0.0046 -0.1661
11034TIP3    H254518   4.995   2.951   0.211 -0.5896  0.3536  0.4302
11035TIP3   OH254519   4.073   5.800   1.943 -0.0606 -0.0752  0.4040
11035TIP3    H154520   4.129   5.846   1.880  0.8374 -1.2993  0.3085
11035TIP3    H254521   4.133   5.756   2.002 -0.9136 -0.8377  0.7156
11036TIP3   OH254522   2.853   2.672   3.256  0.1200 -0.3298 -0.0643
11036TIP3    H154523   2.879   2.619   3.332  0.4273 -1.1427 -0.7333
11036TIP3    H254524   2.858   2.763   3.287  0.3002 -0.6545  0.8683
11037TIP3   OH254525   4.185   0.858   1.332 -0.6576  0.1534  0.6020
11037TIP3    H154526   4.089   0.859   1.328 -0.6213  0.5607 -0.5347
11037TIP3    H254527   4.212   0.898   1.249  0.4904  0.9690  1.3549
11038TIP3   OH254528   1.349   2.354   0.467 -0.3616  0.3028 -0.5272
11038TIP3    H154529   1.358   2.314   0.554 -1.4134  1.3005  0.0730
11038TIP3    H254530   1.419   2.316   0.415  0.5593  0.0056  0.8905
11039TIP3   OH254531   1.004   3.526   3.914 -0.8166  0.0904 -0.2979
11039TIP3    H154532   1.001   3.435   3.883 -2.6230  0.0951 -0.2126
11039TIP3    H254533   1.087   3.560   3.882  0.9636 -2.2823  1.6593
11040TIP3   OH254534   1.792   6.459   2.610 -0.4270  0.2735  0.1663
11040TIP3    H154535   1.877   6.434   2.646 -0.2901  0.2680 -0.1575
11040TIP3    H254536   1.758   6.524   2.672  0.7252  1.8051 -0.7402
11041TIP3   OH254537   4.290   5.061   3.880  0.0416  0.1456 -0.1728
11041TIP3    H154538   4.360   5.026   3.825  0.3286 -2.6989  1.8681
11041TIP3    H254539   4.214   5.067   3.822  0.9971 -0.3341 -1.5012
11042TIP3   OH254540   1.300   6.341   3.657  0.1252  0.2502 -0.5797
11042TIP3    H154541   1.382   6.381   3.627  0.2608  1.1954  0.9304
11042TIP3    H254542   1.317   6.247   3.656  1.5924  0.4634  0.6104
11043TIP3   OH254543   0.872   0.809   3.101  0.0189 -0.1693  0.6164
11043TIP3    H154544   0.965   0.829   3.092 -0.1207  1.0487  1.6384
11043TIP3    H254545   0.852   0.752   3.027  1.2639  0.6793 -0.3991
11044TIP3   OH254546   2.856   1.503  11.807 -0.1303  0.0333  0.0782
11044TIP3    H154547   2.914   1.504  11.731 -0.3778 -0.3818 -0.1244
11044TIP3    H254548   2.901   1.447  11.871 -0.6001 -0.8304 -0.3261
11045TIP3   OH254549   5.333   5.647  14.972  0.2106  0.0548 -0.0819
11045TIP3    H154550   5.352   5.564  15.014  1.0178  0.5388  0.5200
11045TIP3    H254551   5.257   5.681  15.019  1.3409  0.7717  1.2581
11046TIP3   OH254552   4.309   4.514   2.552  0.1369  0.2724 -0.0596
11046TIP3    H154553   4.327   4.420   2.553  0.3609  0.3284  0.9851
11046TIP3    H254554   4.261   4.527   2.470 -0.0901 -0.7847 -0.1100
11047TIP3   OH254555   1.898   5.424   2.066 -0.2047  0.0573 -0.1532
11047TIP3    H154556   1.839   5.461   2.133 -2.6545 -0.8883 -1.7017
11047TIP3    H254557   1.954   5.497   2.041  0.2273  0.6479  2.3398
11048TIP3   OH254558   4.559   6.628  11.028 -0.4097  0.0139  0.1198
11048TIP3    H154559   4.600   6.553  11.071  0.5023  0.3395 -0.1617
11048TIP3    H254560   4.477   6.595  10.994 -0.4075 -0.6456  0.7440
11049TIP3   OH254561   5.356   5.567   4.227  0.0868 -0.1747 -0.1877
11049TIP3    H154562   5.381   5.482   4.265  1.2509  0.1006 -0.3038
11049TIP3    H254563   5.277   5.549   4.177 -0.9164 -0.7448  1.5738
11050TIP3   OH254564   4.532   0.701  11.384 -0.1362 -0.1487  0.1549
11050TIP3    H154565   4.478   0.701  11.463 -2.0606 -0.1235 -1.1359
11050TIP3    H254566   4.516   0.615  11.344 -1.5639  1.0207 -1.8018
11051TIP3   OH254567   2.202   0.877  15.406 -0.1922  0.6807  0.1579
11051TIP3    H154568   2.165   0.911  15.487 -1.2018 -1.0790  0.4670
11051TIP3    H254569   2.161   0.929  15.337 -3.4086 -1.2919  0.4783
11052TIP3   OH254570   3.011   5.820  14.004  0.2436 -0.3912 -0.4361
11052TIP3    H154571   3.031   5.760  14.076  1.7397 -1.0122 -1.3174
11052TIP3    H254572   2.923   5.797  13.976 -0.0654 -0.6235  0.7400
11053TIP3   OH254573   4.239   2.870   4.135 -0.1545  0.7365 -0.2386
11053TIP3    H154574   4.181   2.832   4.069  0.2185  1.5817 -1.0605
11053TIP3    H254575   4.327   2.860   4.098  0.0581  1.1928  0.1422
11054TIP3   OH254576   5.627   4.248   1.800 -0.0364 -0.3297  0.8577
11054TIP3    H154577   5.600   4.214   1.715 -1.6297  0.5883  0.9753
11054TIP3    H254578   5.567   4.207   1.863 -0.4753  0.8858  1.2502
11055TIP3   OH254579   5.359   5.344  11.670 -0.2348 -0.2439 -0.0198
11055TIP3    H154580   5.414   5.414  11.636 -1.6557  1.2958  0.7352
11055TIP3    H254581   5.328   5.297  11.593  0.9688 -0.2255 -0.5200
11056TIP3   OH254582   6.327   6.660   0.505 -0.2794 -0.7246  0.0515
11056TIP3    H154583   6.272   6.656   0.583 -1.1661  0.5055 -0.4871
11056TIP3    H254584   6.274   6.618   0.437  0.1361 -1.0156 -0.0938
11057TIP3   OH254585   1.406   4.785  14.907 -0.0038  0.3858 -0.0808
11057TIP3    H154586   1.399   4.861  14.965  0.3614 -0.3914  1.0054
11057TIP3    H254587   1.317   4.753  14.898  0.0212  0.0858  0.6524
11058TIP3   OH254588   4.884   5.927  15.979 -0.0838 -0.4253 -0.4175
11058TIP3    H154589   4.868   6.010  15.934 -0.2348  0.7399  1.6827
11058TIP3    H254590   4.976   5.931  16.005  0.0479 -1.1586 -0.7613
11059TIP3   OH254591   1.079   4.383   3.492 -0.6320 -0.6303  0.3973
11059TIP3    H154592   1.012   4.396   3.424 -0.8256  0.9855  0.8949
11059TIP3    H254593   1.143   4.452   3.476 -0.5504 -0.4100  1.6990
11060TIP3   OH254594   4.103   4.486  16.127 -0.0593 -0.0676 -0.1890
11060TIP3    H154595   4.161   4.531  16.065 -0.0135  0.5926  0.3220
11060TIP3    H254596   4.130   4.519  16.213 -1.6660  0.8252  0.0005
11061TIP3   OH254597   4.658   3.906   1.231  0.2202 -0.1029  0.4780
11061TIP3    H154598   4.593   3.837   1.242  0.7174 -0.4381  1.3593
11061TIP3    H254599   4.612   3.975   1.182 -0.3916 -0.8829 -0.0554
11062TIP3   OH254600   3.929   1.513  11.660 -0.0818 -0.2101  0.5489
11062TIP3    H154601   3.977   1.547  11.584 -0.9210 -0.6447 -0.1822
11062TIP3    H254602   3.977   1.434  11.685 -1.2041 -1.4709 -1.0856
11063TIP3   OH254603   1.518   4.740  13.052 -0.6745  0.0860 -0.6179
11063TIP3    H154604   1.603   4.783  13.040 -1.1549  1.3419  0.4101
11063TIP3    H254605   1.539   4.661  13.102  0.0045 -0.0773 -1.1440
11064TIP3   OH254606   1.571   4.938  12.399 -0.7346  0.3808  0.0715
11064TIP3    H154607   1.653   4.898  12.372 -0.2372  0.8877  0.8133
11064TIP3    H254608   1.597   5.015  12.450 -1.6362  2.6008 -2.6310
11065TIP3   OH254609   5.409   0.931  16.180 -0.0238  0.5558 -0.4527
11065TIP3    H154610   5.383   0.856  16.232 -0.9115  0.9308 -0.3549
11065TIP3    H254611   5.343   0.937  16.111  0.0231  1.2630 -0.4391
11066TIP3   OH254612   2.481   1.155  10.768 -0.6634 -0.1794  0.0190
11066TIP3    H154613   2.531   1.086  10.811 -1.2357 -0.7957 -0.2995
11066TIP3    H254614   2.422   1.188  10.835  0.1564  0.5565  0.3999
11067TIP3   OH254615   4.934   5.644   5.051 -0.6180  0.7177 -0.4635
11067TIP3    H154616   5.015   5.670   5.094  0.3999 -0.0538 -1.8676
11067TIP3    H254617   4.962   5.588   4.979 -2.2933  1.6705 -1.9075
11068TIP3   OH254618   3.573   0.972   6.070  0.0540 -0.2104 -0.2265
11068TIP3    H154619   3.519   1.003   6.142 -2.6200  1.3689 -2.7877
11068TIP3    H254620   3.652   1.026   6.072 -1.0679  1.4215  0.0825
11069TIP3   OH254621   0.324   4.861  11.311  0.5680  0.0012  0.6841
11069TIP3    H154622   0.353   4.787  11.258  1.2954  0.1752  0.8312
11069TIP3    H254623   0.377   4.935  11.280 -1.3207  0.8429 -0.6047
11070TIP3   OH254624   6.517   4.513   0.110 -0.0410 -0.0070  0.3204
11070TIP3    H154625   6.456   4.451   0.071 -1.1222  0.2908  1.4808
11070TIP3    H254626   6.463   4.567   0.168  0.7565  2.4218 -1.1059
11071TIP3   OH254627   3.277   3.419   1.423  0.2949  0.8322 -0.5728
11071TIP3    H154628   3.191   3.459   1.427 -0.0600 -0.0834  1.7662
11071TIP3    H254629   3.336   3.485   1.459 -0.3438 -0.7412  3.6514
11072TIP3   OH254630   5.004   3.109  15.139 -0.2462  0.2617  0.2081
11072TIP3    H154631   5.039   3.056  15.211  0.4549 -0.6202 -0.7634
11072TIP3    H254632   4.997   3.048  15.066 -0.1634  1.3430 -0.7130
11073TIP3   OH254633   1.938   5.319  13.243 -0.1219 -0.3262 -0.3020
11073TIP3    H154634   1.968   5.244  13.190 -1.8626 -0.0341 -1.7632
11073TIP3    H254635   1.926   5.283  13.331  0.1096 -1.5167 -0.7469
11074TIP3   OH254636   1.753   2.564   3.556  0.3796 -0.1946 -0.2463
11074TIP3    H154637   1.687   2.603   3.499 -0.6216 -1.2648  0.1634
11074TIP3    H254638   1.795   2.638   3.599 -1.0924  0.4608  0.0675
11075TIP3   OH254639   4.318   5.584  13.569 -0.2161 -0.1717 -0.3856
11075TIP3    H154640   4.257   5.641  13.614 -0.3788 -0.7267  0.0976
11075TIP3    H254641   4.296   5.594  13.476  0.1713  1.0236 -0.3631
11076TIP3   OH254642   6.216   5.892   0.946  0.5978  0.3880 -0.0039
11076TIP3    H154643   6.180   5.964   0.997  1.2412  0.4248  0.3935
11076TIP3    H254644   6.225   5.928   0.857  1.3668  0.9415  0.3007
11077TIP3   OH254645   3.044   6.561  11.266 -0.2953  0.2811 -0.6738
11077TIP3    H154646   3.097   6.627  11.311  2.8098 -3.0525  0.7335
11077TIP3    H254647   2.979   6.534  11.332  0.5540 -0.4286 -0.1170
11078TIP3   OH254648   0.463   1.817   2.785  0.5393 -0.9979  0.0239
11078TIP3    H154649   0.400   1.760   2.829 -1.5035  1.6684  0.6570
11078TIP3    H254650   0.411   1.866   2.722  2.4210 -0.4583 -1.1549
11079TIP3   OH254651   2.021   5.619   1.508  0.2014  0.2701  0.4240
11079TIP3    H154652   1.979   5.668   1.437  2.0168 -2.2350 -2.5010
11079TIP3    H254653   1.951   5.562   1.542 -0.0550 -0.4034 -1.1682
11080TIP3   OH254654   5.752   0.959  15.624  0.0856  0.6539  0.2119
11080TIP3    H154655   5.688   0.899  15.585 -1.0459 -0.0919  3.1159
11080TIP3    H254656   5.725   1.046  15.593 -1.5510  0.2040  0.3341
11081TIP3   OH254657   2.672   5.784   3.591 -0.0435 -0.0965 -0.0714
11081TIP3    H154658   2.657   5.703   3.541 -0.1865 -0.8995  1.2490
11081TIP3    H254659   2.728   5.757   3.664  1.1628  1.3043 -0.4604
11082TIP3   OH254660   2.796   5.606  12.084 -0.4522 -0.3385  0.6202
11082TIP3    H154661   2.795   5.692  12.043  0.5789 -0.3146  0.6200
11082TIP3    H254662   2.744   5.616  12.163  0.0581  0.4100  0.8640
11083TIP3   OH254663   6.105   6.692  12.174 -0.0600 -0.6866 -0.1105
11083TIP3    H154664   6.078   6.606  12.207  0.1687 -1.0104 -0.7587
11083TIP3    H254665   6.071   6.695  12.085  2.0130 -1.1054 -0.9611
11084TIP3   OH254666   3.688   1.460   5.786 -0.0804 -0.3447 -0.7532
11084TIP3    H154667   3.620   1.417   5.736 -1.9766  0.1211  1.3121
11084TIP3    H254668   3.719   1.394   5.848  0.0714 -0.0277 -0.4845
11085TIP3   OH254669   4.494   5.114   1.676 -1.0113 -0.1316  0.0975
11085TIP3    H154670   4.554   5.076   1.613 -1.7979 -0.0774 -0.6890
11085TIP3    H254671   4.493   5.051   1.749 -1.6990 -1.2390 -0.8496
11086TIP3   OH254672   6.096   0.014   0.987 -0.0090 -0.0763  0.7348
11086TIP3    H154673   6.072   0.075   1.057  1.5110  2.0152 -0.5126
11086TIP3    H254674   6.185  -0.014   1.011  0.9596  1.5132 -0.9074
11087TIP3   OH254675   5.594   1.192   5.528  0.3934 -0.6492 -0.1662
11087TIP3    H154676   5.620   1.169   5.438  0.2132 -0.8643 -0.1637
11087TIP3    H254677   5.588   1.288   5.527  0.0309 -0.6718 -0.4873
11088TIP3   OH254678   1.245   2.579   6.109  0.2804  0.2539 -0.1807
11088TIP3    H154679   1.313   2.632   6.152 -1.1123  0.6827  1.5403
11088TIP3    H254680   1.204   2.640   6.047  3.3602 -0.7959 -3.4586
11089TIP3   OH254681   3.275   2.234  13.431 -0.2710 -0.1380 -0.4622
11089TIP3    H154682   3.261   2.190  13.515  0.7871 -0.4531 -0.4450
11089TIP3    H254683   3.186   2.252  13.399 -0.6911  1.2037  1.3606
11090TIP3   OH254684   6.729   4.302   3.344 -0.3282 -0.1819 -0.2980
11090TIP3    H154685   6.647   4.300   3.297 -0.8041 -0.8147  0.5484
11090TIP3    H254686   6.718   4.373   3.408  0.9600  1.8732 -2.2523
11091TIP3   OH254687   0.605   5.435  10.971 -0.3102  0.5106 -0.3269
11091TIP3    H154688   0.697   5.427  10.996  0.1845  1.8532 -1.6390
11091TIP3    H254689   0.558   5.441  11.054  0.5579 -2.1648  0.4036
11092TIP3   OH254690   6.315   4.578   2.051 -0.1163 -0.4399  0.3928
11092TIP3    H154691   6.316   4.516   1.979  1.4597 -0.6248  0.5586
11092TIP3    H254692   6.341   4.661   2.012  1.3598 -0.6738  0.8497
11093TIP3   OH254693   5.889   4.134   0.379  0.3643 -0.2252  0.0741
11093TIP3    H154694   5.983   4.119   0.384  0.3591  0.1020  1.1822
11093TIP3    H254695   5.877   4.190   0.302  1.0600 -0.3410 -0.1194
11094TIP3   OH254696   6.466   5.876  16.059  0.0468 -0.3581  0.0982
11094TIP3    H154697   6.471   5.962  16.101 -1.1435  0.2212 -0.8852
11094TIP3    H254698   6.549   5.833  16.080  0.6240  1.0112  0.6565
11095TIP3   OH254699   3.327   2.937   2.664  0.1679  0.2190 -0.4320
11095TIP3    H154700   3.378   2.881   2.723 -1.9149 -0.1047  1.1098
11095TIP3    H254701   3.315   3.018   2.713  0.0589  0.6618 -1.1901
11096TIP3   OH254702   4.751   3.997  15.121 -0.9095  0.7298  0.4571
11096TIP3    H154703   4.668   3.964  15.157  0.2782 -1.4408  1.2844
11096TIP3    H254704   4.754   3.961  15.033 -1.6145  2.1994 -0.1841
11097TIP3   OH254705   1.036   4.282   5.386 -0.4333  0.0530  0.2066
11097TIP3    H154706   1.078   4.338   5.320  0.0440  0.8106  1.1482
11097TIP3    H254707   1.055   4.193   5.357  2.4348  0.3683  0.9861
11098TIP3   OH254708   5.257   0.629  16.990  0.5275  0.1214 -0.9439
11098TIP3    H154709   5.349   0.606  16.976  1.1565  2.4837 -0.8147
11098TIP3    H254710   5.236   0.593  17.076  2.0081  1.5545  0.0295
11099TIP3   OH254711   0.751   0.389  15.982  0.0507  0.2564 -0.0688
11099TIP3    H154712   0.837   0.387  15.941  0.3513  2.5354  0.3627
11099TIP3    H254713   0.750   0.314  16.041  1.2011 -0.5940 -1.0939
11100TIP3   OH254714   0.330   1.180   5.580 -0.1837  0.2536  0.2140
11100TIP3    H154715   0.283   1.134   5.649 -0.2550 -2.1061 -1.3628
11100TIP3    H254716   0.264   1.233   5.536 -0.7143 -0.5377  0.0659
11101TIP3   OH254717   6.590   2.449  16.687  0.3207  0.4105  0.0387
11101TIP3    H154718   6.503   2.456  16.649  0.1505 -1.3964  0.0493
11101TIP3    H254719   6.649   2.483  16.620 -0.3351  1.0359 -0.2235
11102TIP3   OH254720   5.293   3.028  16.398  0.3112  0.4475  0.0508
11102TIP3    H154721   5.258   3.113  16.374 -1.4060 -0.3718 -0.4016
11102TIP3    H254722   5.324   2.990  16.316  0.0522  0.1778  0.0781
11103TIP3   OH254723   3.901   3.564   3.048 -0.8341  0.1545  0.2769
11103TIP3    H154724   3.900   3.566   2.953 -0.0948  0.5940  0.2725
11103TIP3    H254725   3.858   3.646   3.075 -2.6641 -0.8145  0.3360
11104TIP3   OH254726   2.199   3.813  12.122  0.1669  0.0855 -0.2931
11104TIP3    H154727   2.214   3.854  12.207 -1.6323  1.2350 -0.5083
11104TIP3    H254728   2.271   3.845  12.067  2.1363 -1.7564  1.1250
11105TIP3   OH254729   4.987   2.150  13.150 -0.3863 -0.4958 -0.6389
11105TIP3    H154730   5.013   2.102  13.072  0.0925  0.3457 -1.0083
11105TIP3    H254731   4.956   2.235  13.117  0.2495  0.0417  0.1189
11106TIP3   OH254732   5.258   2.053   2.633  0.1925 -0.0486  0.8488
11106TIP3    H154733   5.351   2.056   2.654  0.5430  0.5491 -0.6729
11106TIP3    H254734   5.238   2.141   2.600  0.0733 -1.2776 -2.6217
11107TIP3   OH254735   0.671   1.264  12.133 -0.1043  0.6997  0.0419
11107TIP3    H154736   0.620   1.207  12.191  4.4375 -3.9028 -0.1541
11107TIP3    H254737   0.619   1.268  12.052 -2.7436  0.7211  1.6883
11108TIP3   OH254738   3.167   5.222  16.927 -0.2093 -0.5318  0.2065
11108TIP3    H154739   3.148   5.292  16.989  1.2306  0.3178 -0.2893
11108TIP3    H254740   3.255   5.193  16.949 -0.8053 -2.2534  0.4403
11109TIP3   OH254741   0.755   5.537  14.527 -0.3378 -0.1533 -0.4781
11109TIP3    H154742   0.683   5.474  14.529 -0.4078 -0.0666  1.4002
11109TIP3    H254743   0.720   5.612  14.479 -1.0731 -0.6007 -0.6525
11110TIP3   OH254744   2.326   3.046   2.984 -0.1087  0.6398  0.4137
11110TIP3    H154745   2.373   2.985   2.926 -1.2040  1.3245 -1.2396
11110TIP3    H254746   2.388   3.116   3.000  0.9481 -0.5900  1.8290
11111TIP3   OH254747   1.417   3.290  12.348 -0.7158 -0.1074  0.1877
11111TIP3    H154748   1.427   3.195  12.342  2.0436  0.0866  1.2084
11111TIP3    H254749   1.503   3.322  12.375 -1.8310  2.6198  0.6725
11112TIP3   OH254750   0.510   1.139  11.376  0.3851 -0.2767  0.5104
11112TIP3    H154751   0.539   1.127  11.467  0.2791 -2.3287  0.2879
11112TIP3    H254752   0.416   1.154  11.382  0.6898  1.6528  0.8718
11113TIP3   OH254753   2.768   3.735  13.691 -0.2518 -0.1258 -0.0521
11113TIP3    H154754   2.810   3.649  13.697 -1.8465 -0.8334  1.6383
11113TIP3    H254755   2.682   3.717  13.651 -0.9469  0.5376  1.1140
11114TIP3   OH254756   6.719   4.138  16.784  0.0018 -0.4901 -0.0415
11114TIP3    H154757   6.639   4.132  16.837 -1.4714 -2.6885 -2.3608
11114TIP3    H254758   6.734   4.048  16.754  2.0746  0.3003 -1.4858
11115TIP3   OH254759   4.419   0.752  11.748  0.2232  0.1564 -0.7603
11115TIP3    H154760   4.437   0.797  11.830 -0.7738 -0.0500 -0.4186
11115TIP3    H254761   4.461   0.666  11.758  3.3465  1.4823 -1.9785
11116TIP3   OH254762   0.537   0.613  15.874  0.1514  0.9712  0.2276
11116TIP3    H154763   0.529   0.662  15.956 -0.6513 -0.2043  0.8703
11116TIP3    H254764   0.447   0.604  15.842  0.1727 -0.8457  0.5967
11117TIP3   OH254765   1.651   4.371  11.135 -0.9422 -0.7367  0.4389
11117TIP3    H154766   1.614   4.460  11.137  2.4688  0.8252 -1.2717
11117TIP3    H254767   1.682   4.356  11.224 -1.8893 -0.3769  0.8357
11118TIP3   OH254768   6.367   1.688  10.866 -0.0452 -0.5489  0.3868
11118TIP3    H154769   6.326   1.675  10.951  0.1836  0.3898  0.6396
11118TIP3    H254770   6.411   1.605  10.848 -0.9121 -1.0972  0.7279
11119TIP3   OH254771   1.474   2.761  12.060 -0.0479 -0.2970  0.5417
11119TIP3    H154772   1.489   2.856  12.065  1.5060 -0.5864  1.4590
11119TIP3    H254773   1.507   2.736  11.974  1.3035 -0.3048  1.0513
11120TIP3   OH254774   1.810   0.968  12.753  0.1614  0.3518  0.6592
11120TIP3    H154775   1.815   0.878  12.722  0.7415  0.7252 -0.4013
11120TIP3    H254776   1.782   0.962  12.844 -0.8923 -0.8337  0.2567
11121TIP3   OH254777   4.980   1.894   3.923  0.5851 -0.1689  0.4397
11121TIP3    H154778   5.007   1.808   3.891  0.0366 -0.2388  0.1689
11121TIP3    H254779   4.890   1.904   3.892  0.5255  0.3473  0.7818
11122TIP3   OH254780   2.818   6.435   3.873  0.4847 -0.0596  0.2488
11122TIP3    H154781   2.806   6.435   3.968 -1.2345  2.6810  0.0868
11122TIP3    H254782   2.731   6.458   3.838  0.7485 -2.3120 -2.0619
11123TIP3   OH254783   2.470   0.868   0.624 -0.2155  0.1180  0.4743
11123TIP3    H154784   2.424   0.948   0.597  0.9558  0.7844  0.3900
11123TIP3    H254785   2.559   0.880   0.590  0.8644  0.2325  3.2152
11124TIP3   OH254786   1.199   6.211  14.092 -0.0837 -0.2204  0.2185
11124TIP3    H154787   1.273   6.221  14.152 -0.3652  1.9398  0.2210
11124TIP3    H254788   1.145   6.289  14.106 -1.1071 -0.5816 -1.5260
11125TIP3   OH254789   0.380   2.695   4.242 -0.1370 -0.5372  0.3407
11125TIP3    H154790   0.410   2.608   4.268  0.7299  0.4454  2.7365
11125TIP3    H254791   0.286   2.684   4.226 -0.2995 -1.6193  1.9575
11126TIP3   OH254792   4.807   4.787   1.410  0.5753 -0.0649  0.3516
11126TIP3    H154793   4.728   4.781   1.358  0.9566 -0.3203 -0.2067
11126TIP3    H254794   4.829   4.880   1.412  0.1187  0.0348  0.7269
11127TIP3   OH254795   2.523   0.226  16.890 -0.4656 -0.1856  0.1532
11127TIP3    H154796   2.541   0.190  16.803 -2.0949 -1.0945  0.1707
11127TIP3    H254797   2.460   0.296  16.874 -0.6272 -0.2328  0.5768
11128TIP3   OH254798   0.862   3.333  13.759 -0.0003  0.2826  0.6106
11128TIP3    H154799   0.834   3.257  13.707 -1.3092  0.8408  0.4939
11128TIP3    H254800   0.820   3.408  13.717  0.8216  1.0091  1.0793
11129TIP3   OH254801   1.773   5.481  14.243  0.1639 -0.2436  0.4308
11129TIP3    H154802   1.727   5.418  14.188 -1.9820  1.2764  0.4405
11129TIP3    H254803   1.788   5.434  14.325 -1.0658 -0.8918  0.3015
11130TIP3   OH254804   4.003   0.418  13.401 -0.3262  0.4878  0.5750
11130TIP3    H154805   4.042   0.406  13.488 -0.3405  2.4049  0.8557
11130TIP3    H254806   4.072   0.391  13.340  0.3859  1.0376  1.1334
11131TIP3   OH254807   3.553   0.438  13.560  0.2847  0.2212 -0.0590
11131TIP3    H154808   3.631   0.479  13.522  0.5885  0.0129  0.3393
11131TIP3    H254809   3.556   0.347  13.528 -1.5558  1.0467 -2.7356
11132TIP3   OH254810   0.265   3.914  15.894 -0.0595 -0.3159  0.5086
11132TIP3    H154811   0.272   3.977  15.823  0.1723 -0.2738  0.5698
11132TIP3    H254812   0.203   3.953  15.955 -2.3404 -1.5298 -0.9326
11133TIP3   OH254813   4.880   6.786   3.105  0.5621 -0.1532 -0.8273
11133TIP3    H154814   4.899   6.700   3.143 -0.6366  0.2769  0.7954
11133TIP3    H254815   4.933   6.847   3.156 -1.5507  0.5039  0.6582
11134TIP3   OH254816   4.821   4.431   2.035 -0.1404 -0.5600  0.0825
11134TIP3    H154817   4.798   4.355   1.981 -0.6443  1.7847 -3.1553
11134TIP3    H254818   4.741   4.449   2.086 -1.5256  0.3094 -2.3022
11135TIP3   OH254819   4.653   2.070  16.827 -0.2784 -0.2407 -0.1207
11135TIP3    H154820   4.702   2.134  16.775  1.2910  0.0761  1.6748
11135TIP3    H254821   4.567   2.065  16.785  0.4468  1.1091 -1.8209
11136TIP3   OH254822   1.595   0.140   6.401 -0.0034 -0.1752  0.8480
11136TIP3    H154823   1.629   0.095   6.478 -1.3142 -1.6100  0.6113
11136TIP3    H254824   1.501   0.149   6.418 -0.4305 -1.1422 -0.8758
11137TIP3   OH254825   0.610   4.450  16.191 -0.0919  1.0105  0.8436
11137TIP3    H154826   0.606   4.357  16.209  0.7880  0.4399 -1.7326
11137TIP3    H254827   0.664   4.486  16.262  3.4593 -1.1682 -0.6324
11138TIP3   OH254828   5.273   2.616  14.482 -0.0699  0.4255 -0.1115
11138TIP3    H154829   5.201   2.558  14.458  0.8087 -1.1713  1.0063
11138TIP3    H254830   5.237   2.704  14.470 -2.1511 -0.3277  0.2392
11139TIP3   OH254831   0.261   6.676   3.274 -0.1176 -0.8169 -0.2393
11139TIP3    H154832   0.193   6.744   3.269 -2.2299 -2.8451  0.2491
11139TIP3    H254833   0.328   6.715   3.330 -2.0450  0.2789  1.4001
11140TIP3   OH254834   6.056   4.758  16.970  0.1352  0.5560  0.2483
11140TIP3    H154835   6.001   4.767  16.892  0.1803 -0.7671  0.0458
11140TIP3    H254836   6.039   4.837  17.021 -0.6819  0.9433 -0.6086
11141TIP3   OH254837   0.040   2.284  11.521  0.4247  0.4881  0.8098
11141TIP3    H154838  -0.009   2.346  11.466 -2.1519 -1.9306  0.2241
11141TIP3    H254839   0.067   2.215  11.460  0.3287 -0.6243  2.0031
11142TIP3   OH254840   4.968   2.698   3.262 -0.1527  0.9037 -0.4887
11142TIP3    H154841   4.911   2.699   3.185  0.5237  1.9959 -0.9900
11142TIP3    H254842   5.054   2.673   3.228  0.1217  1.2817 -0.0801
11143TIP3   OH254843   3.441   6.141  13.864  0.0203  0.5332  0.1395
11143TIP3    H154844   3.410   6.075  13.802  2.6493 -1.3094  0.7406
11143TIP3    H254845   3.534   6.124  13.873  0.4951  3.5538  1.2983
11144TIP3   OH254846   3.946   4.443   3.151  0.1025 -0.1181 -0.0180
11144TIP3    H154847   3.943   4.348   3.144  1.7696 -0.1172 -1.1072
11144TIP3    H254848   3.963   4.460   3.243 -0.2268 -0.8729  0.1834
11145TIP3   OH254849   5.520   3.753  11.215 -0.1892  0.2696 -0.4158
11145TIP3    H154850   5.442   3.770  11.162 -0.0472 -1.9312 -1.3806
11145TIP3    H254851   5.487   3.744  11.304 -0.7899  1.1003 -0.5439
11146TIP3   OH254852   3.327   0.880  15.902  0.4732  0.2759 -0.8324
11146TIP3    H154853   3.350   0.787  15.900  0.0976  0.1507  0.4006
11146TIP3    H254854   3.376   0.918  15.829  1.3922 -0.7165 -0.7501
11147TIP3   OH254855   5.406   3.851   0.685 -0.2414  0.2297  1.0310
11147TIP3    H154856   5.460   3.869   0.609  0.2742  1.2119  1.6229
11147TIP3    H254857   5.465   3.861   0.760 -0.8415 -0.3064  1.5872
11148TIP3   OH254858   3.197   2.933  14.747 -0.1967  0.2855  0.0894
11148TIP3    H154859   3.238   2.848  14.731 -0.3567  0.3645 -0.7414
11148TIP3    H254860   3.270   2.994  14.758 -0.0652 -0.1752  1.9205
11149TIP3   OH254861   6.389   3.321  13.483 -0.0337 -0.4060 -0.3892
11149TIP3    H154862   6.357   3.338  13.394  0.8774  0.4091 -0.5651
11149TIP3    H254863   6.335   3.379  13.538  0.5779  0.3773 -0.6015
11150TIP3   OH254864   0.242   1.975  12.010  0.3447 -0.1664 -0.2869
11150TIP3    H154865   0.156   2.008  11.988  0.4201  1.4551  1.7091
11150TIP3    H254866   0.245   1.888  11.970 -1.4453  0.5236 -2.0293
11151TIP3   OH254867   4.258   2.951  15.538  0.1672  0.2032  0.2546
11151TIP3    H154868   4.303   2.974  15.619 -1.9481 -0.6361  1.7089
11151TIP3    H254869   4.285   3.018  15.475  1.6649  0.9853  1.7056
11152TIP3   OH254870   2.514   2.109   3.606 -0.4737  0.3518 -0.2561
11152TIP3    H154871   2.608   2.091   3.606 -0.9207 -2.2386  0.4968
11152TIP3    H254872   2.506   2.196   3.646  1.5633  0.3037  0.2981
11153TIP3   OH254873   1.651   4.826   6.030 -1.5093  0.3036 -0.1935
11153TIP3    H154874   1.701   4.744   6.031 -0.8495  0.7083  0.6453
11153TIP3    H254875   1.587   4.814   5.960 -0.5404 -0.4102 -0.9782
11154TIP3   OH254876   6.511   0.819  11.455 -0.2059  0.4020 -0.0588
11154TIP3    H154877   6.507   0.910  11.487  0.1807  1.0207 -1.7085
11154TIP3    H254878   6.450   0.817  11.382 -0.0203 -0.6025 -0.1898
11155TIP3   OH254879   3.613   4.387  16.120  0.1764  0.1654  0.0985
11155TIP3    H154880   3.642   4.297  16.132  0.9751  0.5823  1.3015
11155TIP3    H254881   3.688   4.432  16.080 -0.1492  0.3559 -0.3192
11156TIP3   OH254882   2.378   6.321  15.638 -0.3234 -1.0222  0.1799
11156TIP3    H154883   2.307   6.358  15.587  0.1690 -2.1539 -1.3639
11156TIP3    H254884   2.403   6.391  15.699 -1.9084 -0.1900 -0.0970
11157TIP3   OH254885   4.552   1.160  11.807  0.1688  0.5785  0.0692
11157TIP3    H154886   4.512   1.077  11.831  1.2250 -1.0864 -3.4847
11157TIP3    H254887   4.481   1.224  11.816 -1.3844 -1.1489  0.4599
11158TIP3   OH254888   5.144   1.859  14.192 -0.6481 -0.0125  0.5456
11158TIP3    H154889   5.211   1.918  14.158 -1.4696  1.1773  0.9592
11158TIP3    H254890   5.191   1.778  14.212 -0.2184 -1.0653 -4.1436
11159TIP3   OH254891   3.196   5.763   0.252 -0.1143 -1.0083 -0.0395
11159TIP3    H154892   3.131   5.833   0.246 -1.7377 -2.6223 -2.1663
11159TIP3    H254893   3.153   5.694   0.303  1.4157 -0.5781  1.9138
11160TIP3   OH254894   1.124   5.431   0.833  0.1887 -0.0213  0.9168
11160TIP3    H154895   1.079   5.514   0.817  0.2017 -0.3964 -1.1167
11160TIP3    H254896   1.211   5.444   0.795  0.1380 -1.0207  0.4668
11161TIP3   OH254897   6.562   1.164   4.321  0.0028  0.0030  0.2085
11161TIP3    H154898   6.639   1.111   4.302 -0.4586 -0.1413 -1.3478
11161TIP3    H254899   6.519   1.120   4.395  0.2447 -1.1456 -0.3258
11162TIP3   OH254900   1.380   4.628   4.090 -0.1833 -0.2664 -0.0756
11162TIP3    H154901   1.365   4.673   4.173  3.1664 -0.6549  0.7948
11162TIP3    H254902   1.375   4.535   4.112 -0.2860 -0.3675 -0.5218
11163TIP3   OH254903   6.502   2.859   0.500 -0.3378  0.0595  0.2201
11163TIP3    H154904   6.433   2.921   0.476  0.1317  0.7890  0.7329
11163TIP3    H254905   6.462   2.804   0.567 -0.3504  0.6214  0.6737
11164TIP3   OH254906   4.404   5.823   1.757 -0.1466 -0.0322  0.7267
11164TIP3    H154907   4.431   5.905   1.716  0.6259 -1.2137 -1.1726
11164TIP3    H254908   4.473   5.805   1.821  0.5493 -0.0414 -0.0177
11165TIP3   OH254909   5.600   1.587   1.766 -0.5343 -0.4356  0.0931
11165TIP3    H154910   5.660   1.520   1.734  0.6747  0.2812  0.7824
11165TIP3    H254911   5.544   1.542   1.829  0.1704 -0.8440  0.4361
11166TIP3   OH254912   5.603   4.201   6.439  0.2990  0.0948  0.1488
11166TIP3    H154913   5.514   4.174   6.417  1.3584 -2.1222 -1.6155
11166TIP3    H254914   5.610   4.190   6.533 -1.2795  0.2664  0.2924
11167TIP3   OH254915   4.965   0.029  10.558  0.1012 -0.3870 -0.1296
11167TIP3    H154916   5.057   0.038  10.582  0.3762 -0.4930 -1.1344
11167TIP3    H254917   4.917   0.068  10.632  0.9551  0.0314  0.2090
11168TIP3   OH254918   4.301   5.787  14.438  0.4597  0.1800  0.8364
11168TIP3    H154919   4.366   5.737  14.389 -1.0099 -0.2226 -0.7497
11168TIP3    H254920   4.245   5.721  14.478  0.4724  0.5428  1.4636
11169TIP3   OH254921   2.034   3.698  13.862 -0.0558 -0.2802 -0.2461
11169TIP3    H154922   2.127   3.698  13.884  0.6341  0.6325 -2.9492
11169TIP3    H254923   2.015   3.789  13.838 -1.1799 -0.8424 -1.5324
11170TIP3   OH254924   2.060   4.700  13.556 -0.8270  0.3967 -0.0160
11170TIP3    H154925   1.969   4.729  13.560 -1.1484 -0.7010  0.8958
11170TIP3    H254926   2.054   4.606  13.539  0.1349  0.2713  0.3227
11171TIP3   OH254927   4.127   1.621  14.337 -0.6429 -0.1123  0.4549
11171TIP3    H154928   4.067   1.627  14.263  1.2759  2.6141 -0.9804
11171TIP3    H254929   4.200   1.567  14.305 -0.5580 -0.2399  0.8634
11172TIP3   OH254930   6.138   3.255   3.082  0.1293  0.1502 -0.5489
11172TIP3    H154931   6.218   3.215   3.048 -0.0127  0.1075 -0.8337
11172TIP3    H254932   6.124   3.213   3.166  1.1051  1.0608  0.0859
11173TIP3   OH254933   3.165   2.893   0.733 -0.3439  0.6423  0.2799
11173TIP3    H154934   3.183   2.839   0.656 -0.8712 -0.4060  0.8766
11173TIP3    H254935   3.079   2.932   0.716 -0.0021  1.2285 -0.1129
11174TIP3   OH254936   2.190   5.690  11.228 -0.2640  0.4713  0.3302
11174TIP3    H154937   2.147   5.709  11.145  0.0068  0.4730  0.1914
11174TIP3    H254938   2.235   5.606  11.214 -0.2210  0.4698  0.4740
11175TIP3   OH254939   5.375   0.377   2.994  0.5402  0.3228 -0.2466
11175TIP3    H154940   5.282   0.369   3.017  0.4472  0.8705 -0.4324
11175TIP3    H254941   5.380   0.345   2.904  0.8427 -1.4751  0.3926
11176TIP3   OH254942   6.255   6.404   5.637  0.1367  0.6378 -0.1750
11176TIP3    H154943   6.230   6.447   5.555  1.1677  0.4768 -0.5751
11176TIP3    H254944   6.336   6.358   5.617  0.1308  0.1813  0.8055
11177TIP3   OH254945   2.986   0.734  11.348 -0.0987 -0.4087 -0.5243
11177TIP3    H154946   3.070   0.693  11.366 -0.5499 -0.9775  0.3158
11177TIP3    H254947   3.007   0.814  11.300  0.8802 -0.8368 -0.8048
11178TIP3   OH254948   3.352   4.568   2.330 -0.2131  0.2611 -0.6549
11178TIP3    H154949   3.421   4.634   2.326 -0.9429  1.0929  0.1248
11178TIP3    H254950   3.348   4.544   2.423  0.4224 -1.2986 -1.0126
11179TIP3   OH254951   5.144   1.070  12.069  0.1559  0.3907  0.0282
11179TIP3    H154952   5.059   1.111  12.084 -1.1813 -2.5024  0.7808
11179TIP3    H254953   5.131   1.017  11.990  0.7625 -1.2253  0.9784
11180TIP3   OH254954   2.285   6.215  11.415 -0.1207 -0.4691 -0.0583
11180TIP3    H154955   2.291   6.120  11.426  0.9903 -0.6558 -2.0968
11180TIP3    H254956   2.369   6.240  11.377 -0.0335  1.4836  1.3831
11181TIP3   OH254957   1.076   4.891   4.711 -0.3486 -0.7019  0.7988
11181TIP3    H154958   1.035   4.901   4.625  1.2276 -0.2779  0.0827
11181TIP3    H254959   1.005   4.861   4.768 -2.0772  1.6945 -0.0257
11182TIP3   OH254960   6.491   4.185  16.932 -0.1245 -0.6634 -0.7618
11182TIP3    H154961   6.514   4.157  17.020  0.9638  0.9570 -0.5113
11182TIP3    H254962   6.398   4.209  16.938 -0.6443 -2.6743 -0.6131
11183TIP3   OH254963   4.179   5.479  16.620 -0.7885  0.4360 -0.3934
11183TIP3    H154964   4.249   5.439  16.568 -1.1988  1.8278 -2.0510
11183TIP3    H254965   4.222   5.553  16.664 -0.4171 -0.8044  1.3420
11184TIP3   OH254966   1.931   1.959   5.638  0.0062 -0.1170  0.1441
11184TIP3    H154967   1.896   1.986   5.554  0.2525  0.8810  0.3505
11184TIP3    H254968   1.936   2.040   5.689 -0.4719 -0.7572  1.2390
11185TIP3   OH254969   4.190   4.253   0.008 -0.3042 -0.9228 -0.1213
11185TIP3    H154970   4.218   4.162   0.020 -0.5439 -0.8278  1.2118
11185TIP3    H254971   4.172   4.260  -0.086 -0.6916 -2.3694 -0.1691
11186TIP3   OH254972   4.103   2.942   5.909 -0.6098  0.6072  0.2890
11186TIP3    H154973   4.049   2.862   5.905 -0.3085  0.4901 -1.9510
11186TIP3    H254974   4.180   2.916   5.959 -0.0637 -0.8118 -1.2434
11187TIP3   OH254975   4.049   3.066   0.866 -0.2193  0.4920  0.5076
11187TIP3    H154976   3.964   3.070   0.824 -0.9262  0.9259  1.9565
11187TIP3    H254977   4.033   3.095   0.956  1.3163 -0.1059  0.9912
11188TIP3   OH254978   0.458   5.018  16.650  0.0295  0.0234 -0.5093
11188TIP3    H154979   0.466   4.953  16.580  1.1865 -1.4982  1.0184
11188TIP3    H254980   0.412   4.972  16.720  0.8977  0.8487  0.6070
11189TIP3   OH254981   2.620   4.661   4.827 -0.5470  0.4931 -0.6543
11189TIP3    H154982   2.548   4.630   4.773 -1.1914  0.0087  0.4705
11189TIP3    H254983   2.609   4.616   4.911 -1.2852  3.4252  0.8992
11190TIP3   OH254984   6.081   2.635   5.564 -1.1349  0.0038 -0.2595
11190TIP3    H154985   6.033   2.579   5.625  1.1724 -0.6765  1.0102
11190TIP3    H254986   6.112   2.709   5.617 -3.5499  2.1745 -1.7722
11191TIP3   OH254987   1.894   2.203   1.436  0.1470  0.2205 -0.0815
11191TIP3    H154988   1.952   2.278   1.421  0.0045  0.2071 -0.7359
11191TIP3    H254989   1.946   2.127   1.409 -0.3037  0.2452 -1.0522
11192TIP3   OH254990   0.425   0.477  13.419 -0.0029  0.1540  0.0926
11192TIP3    H154991   0.396   0.455  13.507  2.0234 -0.5588  0.6174
11192TIP3    H254992   0.473   0.559  13.429  0.1383  0.1293 -0.3504
11193TIP3   OH254993   3.886   6.142   1.419 -0.1177  0.3191  0.2543
11193TIP3    H154994   3.932   6.123   1.501 -1.0492 -0.5171  0.5977
11193TIP3    H254995   3.867   6.236   1.424 -0.6595  0.1667  1.2627
11194TIP3   OH254996   3.833   0.970   5.629 -0.4739  0.1059 -0.1171
11194TIP3    H154997   3.750   1.002   5.664 -0.9789  0.3687 -1.5098
11194TIP3    H254998   3.897   1.038   5.650 -0.7488  0.2189  0.3513
11195TIP3   OH254999   0.530   0.537  15.524  0.6452 -0.4417 -0.7673
11195TIP3    H155000   0.610   0.510  15.567 -0.0899  0.4342  1.1984
11195TIP3    H255001   0.466   0.548  15.595 -1.0132 -0.4271 -2.2105
11196TIP3   OH255002   6.540   4.827  11.403 -0.4460 -0.8158 -0.6221
11196TIP3    H155003   6.457   4.860  11.437  0.4635  0.8124  0.0605
11196TIP3    H255004   6.520   4.801  11.313 -1.5707  0.0462 -0.6249
11197TIP3   OH255005   3.852   5.089  13.299  0.1142  0.2480  0.0016
11197TIP3    H155006   3.788   5.114  13.233  0.0243  3.6809  1.2520
11197TIP3    H255007   3.800   5.064  13.375  0.2391 -2.0052 -0.6259
11198TIP3   OH255008   3.881   0.765  14.707  0.0750 -0.0819  0.4562
11198TIP3    H155009   3.864   0.718  14.626  1.0371  0.0276  0.1820
11198TIP3    H255010   3.822   0.840  14.704  0.4089  0.1497 -0.3366
11199TIP3   OH255011   1.174   3.489   3.099  0.0670 -0.0194  0.0089
11199TIP3    H155012   1.201   3.398   3.097  0.5951  0.1305  0.1971
11199TIP3    H255013   1.146   3.505   3.189 -0.6035 -0.1591 -0.1726
11200TIP3   OH255014   4.937   3.836  12.215  0.7917 -0.6792 -0.3017
11200TIP3    H155015   4.913   3.923  12.182 -0.0720 -0.8807 -0.2243
11200TIP3    H255016   5.026   3.822  12.182  1.1738  0.4882  0.2105
11201TIP3   OH255017   3.587   5.465  12.540 -0.0073 -0.1180  0.1321
11201TIP3    H155018   3.545   5.483  12.456  0.3884  1.6536  0.3009
11201TIP3    H255019   3.572   5.544  12.592 -0.7084 -1.4017  1.9205
11202TIP3   OH255020   3.768   5.939  13.096 -0.0192  0.3097  0.4795
11202TIP3    H155021   3.719   5.993  13.159 -0.4841 -0.8077  1.0852
11202TIP3    H255022   3.779   5.855  13.140 -1.8342 -1.0604 -1.6048
11203TIP3   OH255023   3.376   1.612   2.138  0.8084  0.2216 -0.0128
11203TIP3    H155024   3.356   1.593   2.047 -1.1495 -0.2914  0.5087
11203TIP3    H255025   3.444   1.548   2.161 -0.4445 -1.3146 -0.4255
11204TIP3   OH255026   2.968   0.487   0.652 -0.4331  0.1665 -0.4635
11204TIP3    H155027   2.935   0.422   0.590 -0.4941  1.0385 -1.3617
11204TIP3    H255028   2.902   0.490   0.722 -0.0490 -1.2762 -0.0266
11205TIP3   OH255029   4.421   0.788  17.229  0.0007  0.0661  0.2768
11205TIP3    H155030   4.450   0.697  17.217 -1.4654 -0.8437  3.1671
11205TIP3    H255031   4.343   0.781  17.284 -0.5504  3.0557 -0.0674
11206TIP3   OH255032   0.140   3.121  16.013 -0.0776  0.3286 -0.5141
11206TIP3    H155033   0.108   3.047  15.961 -0.3475  0.7920 -1.0065
11206TIP3    H255034   0.190   3.174  15.951 -1.4984  1.5744 -0.6226
11207TIP3   OH255035   1.807   4.213  15.993  0.3270 -0.2934 -1.1313
11207TIP3    H155036   1.863   4.164  15.933  2.0808 -1.5752  1.4875
11207TIP3    H255037   1.718   4.194  15.962  1.1860 -0.7936 -3.4053
11208TIP3   OH255038   3.917   1.418  15.274 -0.0904 -0.1944  0.1299
11208TIP3    H155039   3.824   1.396  15.284  0.0309 -0.8324 -0.0879
11208TIP3    H255040   3.949   1.425  15.364 -1.0013  2.9784  0.2461
11209TIP3   OH255041   2.305   4.461   0.518 -0.0473  0.3219  0.5334
11209TIP3    H155042   2.221   4.417   0.509 -0.8864  2.0538 -0.3796
11209TIP3    H255043   2.322   4.500   0.432  0.7306  1.6347  1.2549
11210TIP3   OH255044   2.269   5.632  10.255 -0.4422 -1.2909 -0.0098
11210TIP3    H155045   2.239   5.701  10.315  0.7358 -0.5334 -0.2663
11210TIP3    H255046   2.298   5.679  10.177  1.1144 -2.0035  0.1118
11211TIP3   OH255047   6.649   3.876   2.239  0.1912  0.2321  0.3344
11211TIP3    H155048   6.716   3.922   2.289 -0.2535  1.1666  0.0862
11211TIP3    H255049   6.697   3.812   2.187  0.9634  1.2893 -0.2710
11212TIP3   OH255050   6.140   3.081  16.257 -0.9435 -0.6831 -0.0174
11212TIP3    H155051   6.235   3.076  16.246 -0.9746 -0.9178 -0.1850
11212TIP3    H255052   6.112   2.991  16.273 -1.2998 -0.8225 -1.3664
11213TIP3   OH255053   4.452   3.234  14.598 -0.6010  0.1878  0.0762
11213TIP3    H155054   4.375   3.220  14.542 -1.3510  1.5735  0.7332
11213TIP3    H255055   4.473   3.147  14.632 -0.7026 -0.5237 -1.6100
11214TIP3   OH255056   5.792   1.544   5.681  0.0697 -0.2705  0.6615
11214TIP3    H155057   5.878   1.582   5.700 -0.1601 -0.5799  2.3814
11214TIP3    H255058   5.731   1.617   5.689 -0.0135 -0.3743  0.9752
11215TIP3   OH255059   0.917   3.843  14.026  0.0192 -0.4912 -0.2249
11215TIP3    H155060   0.883   3.762  13.986 -0.3466  0.0927 -1.1196
11215TIP3    H255061   1.010   3.842  14.007 -0.4772  0.8044 -2.9718
11216TIP3   OH255062   0.356   1.573  13.794  0.1929 -0.3471  1.6698
11216TIP3    H155063   0.387   1.494  13.749 -0.1055  0.1976  0.4948
11216TIP3    H255064   0.427   1.636  13.784 -0.1433 -0.0110  1.3967
11217TIP3   OH255065   6.100   5.008  16.823 -0.6768  0.0866 -0.3496
11217TIP3    H155066   6.157   4.948  16.775 -1.3888 -1.7074  0.9965
11217TIP3    H255067   6.017   5.005  16.776 -1.0410 -0.8149  0.3595
11218TIP3   OH255068   3.909   6.251  15.748 -0.5210  0.1665 -0.1390
11218TIP3    H155069   3.850   6.218  15.816 -1.4940  0.6015 -0.7508
11218TIP3    H255070   3.957   6.174  15.718 -0.4211 -0.1098  0.7144
11219TIP3   OH255071   0.631   2.147  11.283 -0.3772 -0.6270  0.2237
11219TIP3    H155072   0.588   2.143  11.368 -0.8839 -1.7930 -0.0768
11219TIP3    H255073   0.575   2.204  11.230 -1.1420 -1.5065  0.0748
11220TIP3   OH255074   4.235   0.877  16.968  0.4419  0.3296 -0.0873
11220TIP3    H155075   4.321   0.914  16.947  0.9547  0.5746  2.2948
11220TIP3    H255076   4.254   0.790  17.001 -0.2880  0.2103  0.0216
11221TIP3   OH255077   6.220   6.103  12.426  0.5744  0.0083  0.2377
11221TIP3    H155078   6.163   6.101  12.349 -0.2858  1.5830  0.8060
11221TIP3    H255079   6.232   6.012  12.450 -0.4163 -0.4145 -0.8423
11222TIP3   OH255080   5.704   0.501  13.836  0.4717  0.4952 -0.1827
11222TIP3    H155081   5.796   0.527  13.822  0.2205  1.4914 -0.0357
11222TIP3    H255082   5.654   0.565  13.786 -0.1860  0.4902  0.4803
11223TIP3   OH255083   5.385   0.821   5.522 -0.4655  0.0816 -0.0422
11223TIP3    H155084   5.416   0.742   5.478 -1.2310 -0.3989  0.2693
11223TIP3    H255085   5.340   0.871   5.453 -1.2083 -0.4243  0.0688
11224TIP3   OH255086   1.797   6.147  16.224 -0.2066 -0.0845 -0.1015
11224TIP3    H155087   1.867   6.082  16.232  0.6050  0.8658  0.5010
11224TIP3    H255088   1.808   6.183  16.136 -1.3905 -1.5836 -0.8971
11225TIP3   OH255089   1.209   4.230  12.171 -0.4204  0.4219  0.2771
11225TIP3    H155090   1.161   4.223  12.253  0.1958  1.7757  0.7704
11225TIP3    H255091   1.252   4.315  12.176  0.0679  0.2718 -1.2100
11226TIP3   OH255092   6.733   2.155  10.391  0.7016 -0.2008 -0.2410
11226TIP3    H155093   6.816   2.199  10.407  0.1736  0.4017  0.8996
11226TIP3    H255094   6.700   2.196  10.311  0.4739  1.1122  0.5112
11227TIP3   OH255095   3.958   2.581   0.742 -0.5541  0.6500 -0.3813
11227TIP3    H155096   3.999   2.494   0.740 -3.5612 -0.8319 -0.6080
11227TIP3    H255097   4.014   2.633   0.799  1.1802 -1.5080 -0.0441
11228TIP3   OH255098   1.445   0.999   3.681 -0.3083  0.1029 -0.2471
11228TIP3    H155099   1.497   1.042   3.749 -1.7229  0.6813  0.4942
11228TIP3    H255100   1.396   0.931   3.728 -1.6222  0.7927 -0.5934
11229TIP3   OH255101   0.771   2.366  15.909  0.5531 -0.6598  0.3838
11229TIP3    H155102   0.711   2.303  15.867 -0.7553 -0.1691  1.5050
11229TIP3    H255103   0.744   2.451  15.874  0.3914 -0.4041  1.1300
11230TIP3   OH255104   0.181   6.431   1.954  0.6342 -0.1218  0.1281
11230TIP3    H155105   0.131   6.483   1.891 -0.4632 -1.7931 -0.4090
11230TIP3    H255106   0.184   6.486   2.033 -0.7632  0.6441 -0.3304
11231TIP3   OH255107   0.876   3.733  12.362  0.4655  0.6426  0.2802
11231TIP3    H155108   0.808   3.666  12.372 -0.2634  1.3428  0.1603
11231TIP3    H255109   0.827   3.811  12.335  1.4216  0.9455 -0.5900
11232TIP3   OH255110   2.124   0.364   4.013  0.0858 -0.1509  0.1131
11232TIP3    H155111   2.065   0.291   4.034 -1.5526  0.7857 -1.1360
11232TIP3    H255112   2.094   0.436   4.068  0.7633  0.0075  0.2755
11233TIP3   OH255113   2.103   4.784  15.990  0.0195 -0.5111  0.0285
11233TIP3    H155114   2.124   4.742  16.073  0.5297 -1.0158 -0.3566
11233TIP3    H255115   2.187   4.810  15.954 -0.2594  0.4836  0.0656
11234TIP3   OH255116   4.775   2.033   2.787 -0.3213 -0.7604  0.1605
11234TIP3    H155117   4.810   1.985   2.863 -0.4173 -2.0089 -0.5640
11234TIP3    H255118   4.779   2.125   2.813 -0.0547 -1.1485  1.5578
11235TIP3   OH255119   4.512   1.332  10.738  0.0706  0.9579  0.0682
11235TIP3    H155120   4.568   1.306  10.811 -1.5968  0.6660  1.2406
11235TIP3    H255121   4.461   1.254  10.717  0.0122  1.2564 -0.9577
11236TIP3   OH255122   2.457   5.847   0.381  0.0085 -0.2410  0.3061
11236TIP3    H155123   2.432   5.786   0.449  0.2017 -0.1448  0.4658
11236TIP3    H255124   2.391   5.917   0.385 -0.8366 -0.9748 -0.5991
11237TIP3   OH255125   2.008   5.211  10.403  0.2162  0.1713  0.1908
11237TIP3    H155126   2.068   5.248  10.338  0.0872  0.2621  0.1224
11237TIP3    H255127   1.944   5.161  10.352 -0.2486  0.7472  0.1997
11238TIP3   OH255128   4.016   2.918  12.409  0.1871 -0.8352  0.4404
11238TIP3    H155129   4.032   2.930  12.503 -1.0893 -0.7639  0.6689
11238TIP3    H255130   4.103   2.916  12.369  0.6958  0.5887  1.4426
11239TIP3   OH255131   5.365   3.050   1.534 -0.0449  0.0848 -0.2733
11239TIP3    H155132   5.378   2.983   1.468 -0.3771 -1.9781  1.7088
11239TIP3    H255133   5.281   3.090   1.512 -0.9335 -1.6917 -0.1909
11240TIP3   OH255134   5.491   4.895  13.487 -0.1934  0.2631 -0.2868
11240TIP3    H155135   5.450   4.976  13.518  1.2565  0.4551  1.1856
11240TIP3    H255136   5.508   4.845  13.567  3.0427  0.4769 -0.7813
11241TIP3   OH255137   6.739   4.788  15.605 -0.2553  0.2691  0.0109
11241TIP3    H155138   6.798   4.813  15.676 -0.1913 -1.3520  0.5533
11241TIP3    H255139   6.651   4.806  15.639 -0.1444  1.2697 -0.2238
11242TIP3   OH255140   2.298   2.354   5.884  0.0826 -0.1712 -0.2339
11242TIP3    H155141   2.222   2.411   5.872  0.2491  0.3513  1.1073
11242TIP3    H255142   2.368   2.412   5.913  0.2561 -1.0423  1.1586
11243TIP3   OH255143   3.203   6.151  11.475  0.7698  0.0442  0.1738
11243TIP3    H155144   3.241   6.072  11.511 -1.0379 -0.3563  1.2769
11243TIP3    H255145   3.148   6.121  11.402 -0.2727  0.2247  0.8782
11244TIP3   OH255146   2.272   1.523   6.319 -0.5440  0.0870  0.2510
11244TIP3    H155147   2.219   1.599   6.296 -1.6336 -0.4324  1.0137
11244TIP3    H255148   2.222   1.448   6.286 -0.2450 -0.4095  0.9239
11245TIP3   OH255149   2.647   2.603   5.576 -0.4614  0.1164 -0.1485
11245TIP3    H155150   2.598   2.682   5.553  1.1803  1.0818 -0.3827
11245TIP3    H255151   2.716   2.597   5.510 -0.1410 -1.1275  0.2864
11246TIP3   OH255152   2.634   4.370   0.012 -0.6337 -0.2152  0.2763
11246TIP3    H155153   2.728   4.357   0.004 -0.8320 -1.1873 -0.6632
11246TIP3    H255154   2.609   4.411  -0.071 -1.3536 -1.9869 -0.4199
11247TIP3   OH255155   4.217   3.679  15.387  0.2221  0.5854 -0.2206
11247TIP3    H155156   4.286   3.652  15.448  0.0246 -0.8132 -0.6029
11247TIP3    H255157   4.148   3.713  15.443 -0.2311 -1.3065  0.4143
11248TIP3   OH255158   1.569   5.757   0.284  0.0164 -0.5525 -0.0388
11248TIP3    H155159   1.505   5.827   0.269  0.7428  0.5185  1.6313
11248TIP3    H255160   1.532   5.705   0.356  0.2610 -0.8871 -0.1525
11249TIP3   OH255161   4.955   5.449   4.833  0.1385  0.9232 -0.2060
11249TIP3    H155162   4.938   5.355   4.845  0.4987  1.0858  1.6914
11249TIP3    H255163   4.874   5.484   4.798  0.2721 -0.2434 -1.7329
11250TIP3   OH255164   1.513   6.012  14.100 -0.0329 -0.6522  0.3508
11250TIP3    H155165   1.487   6.101  14.123  2.5387  0.6431 -1.5098
11250TIP3    H255166   1.461   5.991  14.022  0.5895 -0.0967 -0.2238
11251TIP3   OH255167   3.775   0.217   2.877 -0.3658  0.8331 -0.3150
11251TIP3    H155168   3.770   0.157   2.951  1.1586  1.0437 -0.0389
11251TIP3    H255169   3.684   0.246   2.864 -0.6959  0.5157  1.2301
11252TIP3   OH255170   6.185   2.469  13.055 -0.3864 -0.6169 -0.3748
11252TIP3    H155171   6.273   2.436  13.038 -0.6369 -0.4626 -2.1222
11252TIP3    H255172   6.128   2.394  13.037 -0.5238 -1.3670  2.8336
11253TIP3   OH255173   2.267   0.883   6.212  0.0994  0.0087  0.7809
11253TIP3    H155174   2.271   0.796   6.250  2.8731 -1.1116 -1.8629
11253TIP3    H255175   2.175   0.895   6.187 -0.5220 -1.6587  2.2156
11254TIP3   OH255176   2.937   6.510   1.183 -0.3185  0.3010 -0.1175
11254TIP3    H155177   3.004   6.576   1.168  1.5821 -1.4553  0.3880
11254TIP3    H255178   2.964   6.467   1.264 -2.9047  0.5453  0.9294
11255TIP3   OH255179   6.129   0.327  14.867  0.1665 -0.0002 -0.2069
11255TIP3    H155180   6.054   0.269  14.854  0.2480  0.1414 -1.3867
11255TIP3    H255181   6.093   0.415  14.854  0.4810  0.0826 -0.5248
11256TIP3   OH255182   0.212   1.156  14.127 -0.6773 -0.7589 -0.0769
11256TIP3    H155183   0.235   1.247  14.107  1.5266 -1.0226  1.1201
11256TIP3    H255184   0.120   1.160  14.153 -0.4010  1.2469  0.7014
11257TIP3   OH255185   3.516   6.582  16.511  0.3665 -0.3524 -0.3220
11257TIP3    H155186   3.474   6.605  16.593 -1.7120 -0.3253 -1.3574
11257TIP3    H255187   3.580   6.651  16.496  0.2446  0.0305  0.9136
11258TIP3   OH255188   6.171   2.225  10.642  0.1580  0.3203  0.2550
11258TIP3    H155189   6.136   2.313  10.631 -0.3674  0.1238  0.2906
11258TIP3    H255190   6.106   2.180  10.696  0.1517 -0.2429 -0.2062
11259TIP3   OH255191   4.902   1.672  12.462 -0.3066 -0.3959 -0.0072
11259TIP3    H155192   4.871   1.761  12.473  1.2458 -0.0906  2.2967
11259TIP3    H255193   4.997   1.679  12.465 -0.1239 -1.9416 -1.4478
11260TIP3   OH255194   4.925   5.447  12.857 -0.3318 -0.5376  0.1751
11260TIP3    H155195   4.986   5.389  12.903  0.6571  0.1109 -0.3076
11260TIP3    H255196   4.843   5.398  12.854 -0.1354 -1.0088  1.7388
11261TIP3   OH255197   2.892   4.386  14.136  0.3808 -0.0639 -0.0491
11261TIP3    H155198   2.913   4.303  14.093 -0.6298  0.0903 -0.8648
11261TIP3    H255199   2.934   4.453  14.083  0.7777 -0.0131  0.3246
11262TIP3   OH255200   2.744   5.792  12.466 -0.1150 -0.8539 -0.3442
11262TIP3    H155201   2.814   5.789  12.400 -1.1795 -0.6173 -1.5026
11262TIP3    H255202   2.741   5.883  12.493 -0.6152 -0.6847 -0.9829
11263TIP3   OH255203   5.615   0.970   3.171  0.6027  0.0730 -0.4039
11263TIP3    H155204   5.613   0.875   3.181 -0.2112  0.1435  0.1209
11263TIP3    H255205   5.528   0.992   3.138  0.6159  0.6892 -0.0233
11264TIP3   OH255206   1.270   6.539  15.196  0.2681 -0.8899 -0.2061
11264TIP3    H155207   1.232   6.575  15.276 -1.7030 -0.7542 -1.1491
11264TIP3    H255208   1.339   6.601  15.172  0.3488 -0.5234  0.9760
11265TIP3   OH255209   0.610   5.617  11.256  0.1188  0.2268 -0.2182
11265TIP3    H155210   0.658   5.538  11.282  1.1108  0.3772 -1.5483
11265TIP3    H255211   0.556   5.638  11.332  0.8341 -0.9752  0.6410
11266TIP3   OH255212   5.895   1.789  12.088  0.3584 -0.3141  0.2673
11266TIP3    H155213   5.948   1.858  12.049  0.5013 -0.2050  0.6551
11266TIP3    H255214   5.936   1.707  12.060  2.0707 -0.2178  2.4219
11267TIP3   OH255215   3.746   5.921   3.160  0.3738  0.2144  0.0912
11267TIP3    H155216   3.730   5.908   3.066  1.2003 -0.5234  0.0518
11267TIP3    H255217   3.809   5.853   3.183  0.1917  0.4151  1.1817
11268TIP3   OH255218   2.213   2.680  11.267 -0.6034 -0.0354  0.2466
11268TIP3    H155219   2.154   2.631  11.324 -0.2038  0.2068  0.8812
11268TIP3    H255220   2.266   2.732  11.328 -0.7078  0.8235 -0.3923
11269TIP3   OH255221   4.454   2.201  15.529 -0.3037 -0.4184 -0.5995
11269TIP3    H155222   4.475   2.185  15.437 -0.2137 -1.7042 -0.3699
11269TIP3    H255223   4.368   2.161  15.542 -0.5100  0.1349 -0.2313
11270TIP3   OH255224   4.790   6.203   2.007  0.0378  0.1334 -0.5199
11270TIP3    H155225   4.787   6.297   2.026 -0.9396  0.2831 -1.3409
11270TIP3    H255226   4.777   6.198   1.913  2.3724 -0.7214 -0.8218
11271TIP3   OH255227   2.588   4.522  14.927 -0.0561 -0.9703 -0.7002
11271TIP3    H155228   2.645   4.585  14.884 -0.6247  0.0888  0.0733
11271TIP3    H255229   2.590   4.445  14.870  0.1597 -0.0301 -1.9874
11272TIP3   OH255230   5.755   2.619  10.532  0.3454 -0.1971  0.0754
11272TIP3    H155231   5.828   2.619  10.470 -0.7760  1.4496 -1.2884
11272TIP3    H255232   5.677   2.613  10.477 -0.6020 -0.6217  1.4452
11273TIP3   OH255233   5.907   2.112   4.003 -0.2486  0.2058  0.5400
11273TIP3    H155234   5.816   2.140   4.006  0.0030  0.9193  2.2407
11273TIP3    H255235   5.925   2.078   4.091  1.1078  0.0420  0.2156
11274TIP3   OH255236   6.647   1.637  12.662 -0.6483  0.2455  0.1170
11274TIP3    H155237   6.662   1.607  12.752  0.7092  0.4265 -0.0311
11274TIP3    H255238   6.729   1.681  12.638 -0.4869 -0.9889 -1.6758
11275TIP3   OH255239   2.542   1.995  16.385 -0.6692  0.0369 -0.2925
11275TIP3    H155240   2.617   1.948  16.422 -1.1615 -0.0630  0.5917
11275TIP3    H255241   2.564   2.087  16.397  0.2880  0.0612 -2.0075
11276TIP3   OH255242   1.131   5.177   4.675  0.0026 -0.5225 -0.3930
11276TIP3    H155243   1.135   5.097   4.727  1.1657 -0.6978 -0.7148
11276TIP3    H255244   1.085   5.240   4.730 -0.4663 -1.2589  0.0718
11277TIP3   OH255245   3.273   0.006   1.763 -0.3964  0.1741 -0.3455
11277TIP3    H155246   3.310  -0.047   1.834  0.9640  0.5801 -0.7197
11277TIP3    H255247   3.297   0.096   1.785  0.8224  0.2174 -1.7443
11278TIP3   OH255248   4.766   1.350  14.516 -0.1721 -0.4989  0.1134
11278TIP3    H155249   4.854   1.349  14.480 -0.4259 -0.0403 -0.5352
11278TIP3    H255250   4.710   1.318  14.445 -0.9659  2.5396 -0.7216
11279TIP3   OH255251   5.436   1.875  11.748  0.4175  0.6087 -0.6311
11279TIP3    H155252   5.413   1.791  11.787 -0.1490 -1.0201 -4.3043
11279TIP3    H255253   5.532   1.874  11.743  0.6710  1.7635  2.5112
11280TIP3   OH255254   1.024   4.311   4.193  0.2205  0.5928 -0.7339
11280TIP3    H155255   0.997   4.234   4.142 -0.7542 -1.1921  2.3235
11280TIP3    H255256   0.949   4.371   4.187 -1.3437 -1.0622  1.3090
11281TIP3   OH255257   2.817   6.226   2.005  0.1656 -0.6842 -1.1439
11281TIP3    H155258   2.750   6.159   2.015 -0.3940 -0.2484 -1.8727
11281TIP3    H255259   2.796   6.291   2.072  0.1872 -0.8100 -1.0148
11282TIP3   OH255260   4.326   3.859  12.060  0.0496  0.4701 -0.0808
11282TIP3    H155261   4.360   3.807  11.988  0.4760  0.1319  0.3623
11282TIP3    H255262   4.289   3.795  12.121  0.2886  0.7031  0.3145
11283TIP3   OH255263   2.893   0.085  12.273 -0.3902 -0.1964 -0.6443
11283TIP3    H155264   2.918   0.177  12.261  1.0030 -0.3333  1.0167
11283TIP3    H255265   2.974   0.042  12.301 -1.4468 -1.5746  0.3483
11284TIP3   OH255266   5.148   1.086  15.266  0.5330 -0.9243  0.2621
11284TIP3    H155267   5.089   1.151  15.228  1.1784  0.7161  2.0157
11284TIP3    H255268   5.092   1.011  15.286 -0.6422 -0.0313  0.3559
11285TIP3   OH255269   6.201   5.704   4.200  0.1509 -0.6472  0.2965
11285TIP3    H155270   6.189   5.717   4.106 -0.1912 -2.6237  0.0342
11285TIP3    H255271   6.193   5.792   4.238  1.5482  0.3465 -1.6308
11286TIP3   OH255272   2.687   1.574  16.245  0.3135  0.2495 -0.3296
11286TIP3    H155273   2.624   1.506  16.270 -0.9169  0.9544 -1.4540
11286TIP3    H255274   2.667   1.591  16.153  1.6597  1.0217 -0.4765
11287TIP3   OH255275   2.327   6.527   1.416 -0.0044 -0.0116  0.4844
11287TIP3    H155276   2.331   6.601   1.476  0.5540 -0.5895  1.1760
11287TIP3    H255277   2.282   6.560   1.338  0.7687  1.2175  0.5528
11288TIP3   OH255278   0.349   1.645  12.043  0.0490  0.0160 -0.1851
11288TIP3    H155279   0.377   1.710  12.109  0.5688 -0.3961  0.0045
11288TIP3    H255280   0.417   1.650  11.975  0.3452 -0.6619  0.0558
11289TIP3   OH255281   0.499   5.209  11.694  0.1837  0.1343 -0.0353
11289TIP3    H155282   0.531   5.222  11.605 -0.3176 -0.8648 -0.3573
11289TIP3    H255283   0.534   5.124  11.721  0.6276  0.5877  0.8572
11290TIP3   OH255284   0.276   5.640   0.946 -0.6835 -0.1520 -0.4722
11290TIP3    H155285   0.307   5.667   1.032  0.3576 -0.5452 -0.7068
11290TIP3    H255286   0.313   5.552   0.934 -0.3436  0.1221 -1.5431
11291TIP3   OH255287   1.544   2.068  13.883  0.3174 -0.1852 -0.3483
11291TIP3    H155288   1.635   2.082  13.859  0.1745  3.0659  0.7203
11291TIP3    H255289   1.494   2.096  13.807  0.1287  1.3176  0.3194
11292TIP3   OH255290   5.877   5.176  13.443  0.0827  0.1292 -0.6042
11292TIP3    H155291   5.794   5.219  13.422  0.6935  1.2635 -0.7176
11292TIP3    H255292   5.866   5.147  13.534 -1.1012 -1.3319 -1.1932
11293TIP3   OH255293   0.665   2.234  12.101  0.5578 -0.2196  0.0610
11293TIP3    H155294   0.666   2.141  12.128  0.3808 -0.0678  0.6109
11293TIP3    H255295   0.580   2.246  12.060  0.6087 -0.3211 -0.0725
11294TIP3   OH255296   5.466   5.978   3.441  0.0874 -0.0214  0.1084
11294TIP3    H155297   5.482   6.053   3.385  0.1648 -0.2014 -0.1109
11294TIP3    H255298   5.416   5.917   3.386 -0.6097  0.1724  0.5096
11295TIP3   OH255299   2.493   0.368  12.196 -0.3390  0.5408 -0.3284
11295TIP3    H155300   2.571   0.347  12.144 -0.2368  0.0299  0.0400
11295TIP3    H255301   2.462   0.451  12.158 -0.9643 -0.4457 -2.0082
11296TIP3   OH255302   5.201   1.856  15.678  0.4468  0.0333  0.3176
11296TIP3    H155303   5.208   1.951  15.688  0.8650 -0.1752  2.3111
11296TIP3    H255304   5.212   1.841  15.585  0.1965  1.9657 -0.0510
11297TIP3   OH255305   0.415   0.706   0.922  0.0132 -0.0570  0.6312
11297TIP3    H155306   0.410   0.766   0.996  1.4103 -0.7076  1.2733
11297TIP3    H255307   0.435   0.621   0.961 -2.0707 -0.9750 -0.2600
11298TIP3   OH255308   5.297   6.632   3.208 -0.1312  0.1251 -0.0711
11298TIP3    H155309   5.257   6.685   3.139 -0.5684  0.8879  0.7575
11298TIP3    H255310   5.250   6.657   3.287 -0.7532 -1.9786  0.2264
11299TIP3   OH255311   2.590   2.008   2.325  0.0197 -0.5246 -0.0908
11299TIP3    H155312   2.557   1.939   2.267 -0.4956 -1.8691  1.7332
11299TIP3    H255313   2.525   2.014   2.394  0.5703  1.1330  0.3046
11300TIP3   OH255314   1.465   0.632   4.094  0.1448 -0.6005  0.5378
11300TIP3    H155315   1.460   0.721   4.059 -0.8409 -0.5437  0.7978
11300TIP3    H255316   1.484   0.577   4.018  1.2354 -0.1224  0.4517
11301TIP3   OH255317   3.951   1.768   3.523  0.1465 -0.2033 -0.2762
11301TIP3    H155318   3.920   1.755   3.433 -1.0023 -2.2211  0.3834
11301TIP3    H255319   4.036   1.723   3.526 -0.2081 -0.8724 -0.1334
11302TIP3   OH255320   5.492   2.918  14.404  0.2534  0.3650  0.8051
11302TIP3    H155321   5.437   2.842  14.384  0.4191  0.0328  1.5758
11302TIP3    H255322   5.463   2.944  14.492 -0.0899  1.4473  0.3764
11303TIP3   OH255323   0.456   1.296  12.517  0.1614  0.4988  0.3665
11303TIP3    H155324   0.547   1.310  12.542  0.1853  1.3131 -0.1749
11303TIP3    H255325   0.422   1.236  12.584  1.0113  0.4133  0.7275
11304TIP3   OH255326   6.345   0.710  11.973  0.3844  0.3721  0.5823
11304TIP3    H155327   6.350   0.725  12.067  0.4985 -1.5405  0.8900
11304TIP3    H255328   6.259   0.671  11.959  0.6393  0.0153 -0.0123
11305TIP3   OH255329   3.406   4.831  14.910 -0.3734 -0.4520  0.1722
11305TIP3    H155330   3.396   4.744  14.873  1.7002 -0.8045  0.3885
11305TIP3    H255331   3.425   4.888  14.835  0.5706 -0.5955  0.2982
11306TIP3   OH255332   5.358   5.439   3.765 -0.3042 -0.6902 -0.4469
11306TIP3    H155333   5.270   5.450   3.799 -0.6931 -3.0371 -0.6187
11306TIP3    H255334   5.358   5.489   3.683 -1.2535 -0.1299 -0.1141
11307TIP3   OH255335   4.524   4.216  14.545 -0.6086 -0.3786  0.0356
11307TIP3    H155336   4.467   4.288  14.571 -0.3876 -0.5078  0.8910
11307TIP3    H255337   4.484   4.139  14.585  0.6626 -0.3433  1.3743
11308TIP3   OH255338   1.815   3.051   3.842 -0.2181  0.4950 -0.2337
11308TIP3    H155339   1.829   3.142   3.818 -1.4589  0.6973 -0.2586
11308TIP3    H255340   1.862   3.040   3.925 -0.6627  1.3638  0.1415
11309TIP3   OH255341   2.259   2.227  11.732  0.4648 -0.3150  0.4526
11309TIP3    H155342   2.286   2.153  11.678 -1.3127 -0.3428 -0.4133
11309TIP3    H255343   2.185   2.265  11.686  1.1750  1.8385  1.0478
11310TIP3   OH255344   0.493   6.054   0.556  0.2580 -0.1776  0.2809
11310TIP3    H155345   0.551   6.123   0.523 -0.1762 -0.7850 -1.7634
11310TIP3    H255346   0.552   5.985   0.586  0.6543  0.4775  1.0379
11311TIP3   OH255347   2.145   2.553  16.883  0.2509 -0.0877  0.0250
11311TIP3    H155348   2.213   2.521  16.942 -0.6116  0.5197  1.3958
11311TIP3    H255349   2.163   2.646  16.874 -0.9710  0.2958  1.2480
11312TIP3   OH255350   6.767   3.443   5.109 -1.0527 -0.5346 -0.1557
11312TIP3    H155351   6.677   3.440   5.077 -0.8695 -1.2469 -0.6204
11312TIP3    H255352   6.772   3.371   5.172 -0.8206 -0.4688 -0.0980
11313TIP3   OH255353   6.506   4.973   5.067 -0.4007  0.2492  0.4470
11313TIP3    H155354   6.494   5.024   5.147  0.7140  0.2877  0.5937
11313TIP3    H255355   6.560   4.898   5.094 -1.2251 -0.5107  0.0365
11314TIP3   OH255356   0.327   3.678   4.873  0.0123 -0.1112  0.2838
11314TIP3    H155357   0.389   3.617   4.834 -0.4841  0.8176 -2.0455
11314TIP3    H255358   0.254   3.623   4.901 -0.2974 -0.6430 -1.5178
11315TIP3   OH255359   6.745   3.639  15.519  0.1323  0.4864 -0.1809
11315TIP3    H155360   6.749   3.691  15.600 -1.0337  0.5921 -0.1848
11315TIP3    H255361   6.674   3.679  15.468 -0.8930 -1.1894 -0.1073
11316TIP3   OH255362   2.678   0.217  15.581 -0.0526 -0.0279 -0.5275
11316TIP3    H155363   2.745   0.244  15.519 -0.5396  0.1593 -0.9815
11316TIP3    H255364   2.596   0.222  15.531 -0.5090  0.6153  0.2681
11317TIP3   OH255365   5.467   3.789   2.875 -0.4336 -0.4676 -0.1474
11317TIP3    H155366   5.519   3.712   2.897 -1.4301 -0.8381  0.9359
11317TIP3    H255367   5.387   3.753   2.836 -0.2827  0.0704 -0.9728
11318TIP3   OH255368   5.206   5.248  14.963 -0.0743 -0.7193 -0.0988
11318TIP3    H155369   5.128   5.302  14.970  0.7177  0.5254 -0.7125
11318TIP3    H255370   5.175   5.163  14.932 -1.1613 -0.1867 -0.4732
11319TIP3   OH255371   6.679   3.030  13.400  0.2491  0.3032 -0.0221
11319TIP3    H155372   6.764   2.994  13.424  0.1202  0.5118  0.7645
11319TIP3    H255373   6.684   3.122  13.426  0.1641  0.5803 -0.9637
11320TIP3   OH255374   3.094   3.859   4.992 -0.5048  0.0573  0.1210
11320TIP3    H155375   3.116   3.928   4.930 -0.4474  1.0480  1.2310
11320TIP3    H255376   3.115   3.777   4.945 -1.8396  0.7164 -1.6840
11321TIP3   OH255377   5.422   5.639   2.227 -0.3054 -0.3112 -0.5296
11321TIP3    H155378   5.436   5.729   2.196  0.2220 -0.1248  0.2324
11321TIP3    H255379   5.343   5.610   2.181 -0.6821  0.6645 -0.5223
11322TIP3   OH255380   1.070   5.500  13.732  0.2827  0.2441  0.1543
11322TIP3    H155381   1.128   5.560  13.778  0.8893 -1.6131  1.8765
11322TIP3    H255382   1.107   5.413  13.749 -0.5714 -0.6299 -2.2774
11323TIP3   OH255383   1.957   1.912  13.562  0.4963  0.1926 -0.0364
11323TIP3    H155384   2.022   1.885  13.626  1.2996  0.3141 -0.7914
11323TIP3    H255385   1.985   1.998  13.533 -1.8712  1.7571  2.0927
11324TIP3   OH255386   1.957   1.213   5.676  0.3259 -0.0270 -0.4971
11324TIP3    H155387   1.905   1.134   5.662 -0.4500  0.3641  0.1373
11324TIP3    H255388   1.976   1.245   5.588  0.3326 -0.7227 -0.7487
11325TIP3   OH255389   2.673   0.219  12.595  0.8466  0.0569 -0.3982
11325TIP3    H155390   2.637   0.178  12.516  0.9952  0.8122 -0.8644
11325TIP3    H255391   2.712   0.146  12.644 -0.6568 -0.6513 -0.2385
11326TIP3   OH255392   6.544   2.155  16.365  0.0907  0.1949  0.0715
11326TIP3    H155393   6.521   2.138  16.274 -1.5101  0.3224  0.4352
11326TIP3    H255394   6.606   2.228  16.361 -1.3516  1.4086 -0.8235
11327TIP3   OH255395   6.649   0.161  11.420  0.0538  0.8532 -0.5918
11327TIP3    H155396   6.681   0.164  11.511  0.0692  2.5896 -0.6443
11327TIP3    H255397   6.583   0.092  11.420  0.5526  0.3646  0.5818
11328TIP3   OH255398   3.049   0.121   4.661 -0.2226  0.1611 -0.0794
11328TIP3    H155399   2.996   0.193   4.626  1.0799  0.4946 -1.3823
11328TIP3    H255400   3.119   0.109   4.597  0.0967 -1.6723  0.5792
11329TIP3   OH255401   1.349   4.471   4.635 -0.8672 -0.0090 -0.0627
11329TIP3    H155402   1.342   4.566   4.625 -1.6983  0.1135  1.5382
11329TIP3    H255403   1.368   4.458   4.728 -0.8734 -1.4233 -0.2481
11330TIP3   OH255404   2.096   5.229  11.177 -0.8233  0.2495  0.4523
11330TIP3    H155405   2.041   5.159  11.143  0.1562 -1.5952  2.5259
11330TIP3    H255406   2.068   5.238  11.269  1.8618 -0.2955  1.3534
11331TIP3   OH255407   5.327   1.161   2.467 -0.0328  0.2517 -0.2769
11331TIP3    H155408   5.307   1.254   2.482 -1.3640 -0.3537  1.8224
11331TIP3    H255409   5.275   1.138   2.390 -1.4674  0.6795  0.5433
11332TIP3   OH255410   5.062   5.152   2.691  0.0388  0.2192 -0.0204
11332TIP3    H155411   5.006   5.217   2.733 -0.6028 -1.1933  1.3373
11332TIP3    H255412   5.127   5.129   2.757  0.6972 -0.0229 -0.7356
11333TIP3   OH255413   4.846   2.967  10.567 -0.1292 -0.4684  0.1255
11333TIP3    H155414   4.876   2.960  10.658 -0.1403  1.7947  0.3294
11333TIP3    H255415   4.757   2.931  10.569 -1.7096  3.2795  1.9109
11334TIP3   OH255416   2.851   5.147   2.823  0.3333  0.3231 -0.8392
11334TIP3    H155417   2.899   5.068   2.848  2.2865  1.7222 -0.1157
11334TIP3    H255418   2.888   5.172   2.739  1.1446  1.6159 -0.1063
11335TIP3   OH255419   1.520   5.853  14.326  0.0465  0.7030 -0.1994
11335TIP3    H155420   1.493   5.918  14.261 -0.5939 -0.5517 -1.1780
11335TIP3    H255421   1.527   5.904  14.407  1.0429  2.3176 -1.2572
11336TIP3   OH255422   2.412   4.677   5.387 -0.3515 -0.1295  0.0155
11336TIP3    H155423   2.501   4.694   5.419 -0.7524  0.7874  0.6667
11336TIP3    H255424   2.397   4.745   5.321  0.2090 -1.5782 -1.6389
11337TIP3   OH255425   0.243   5.071   3.750  0.6214 -0.6232  0.1373
11337TIP3    H155426   0.212   4.982   3.736  0.2045 -0.4552 -0.0348
11337TIP3    H255427   0.338   5.065   3.745  0.5701 -0.9650 -0.4064
11338TIP3   OH255428   0.166   3.248   1.891  0.1216  0.4300 -0.4905
11338TIP3    H155429   0.095   3.237   1.954  0.3325  1.1328 -0.1300
11338TIP3    H255430   0.134   3.317   1.831  0.0317 -0.0458 -0.9956
11339TIP3   OH255431   3.394   3.619   4.634 -0.8417 -0.0865 -0.4750
11339TIP3    H155432   3.474   3.586   4.592 -0.1395  0.7854  0.1679
11339TIP3    H255433   3.343   3.540   4.652  1.3442 -1.0191  2.1097
11340TIP3   OH255434   0.844   5.984   2.016  0.4103 -0.2107  0.7595
11340TIP3    H155435   0.771   5.959   1.961 -0.1159 -1.0710  1.8245
11340TIP3    H255436   0.921   5.971   1.961 -0.1352 -0.6615  0.0901
11341TIP3   OH255437   2.146   6.744   3.533  0.1603  0.6059 -0.2360
11341TIP3    H155438   2.117   6.825   3.575  0.6315 -0.0431  1.3697
11341TIP3    H255439   2.081   6.729   3.464 -0.7968  1.5290  0.4363
11342TIP3   OH255440   0.265   0.733  13.686  0.0230 -0.0412 -0.5485
11342TIP3    H155441   0.357   0.709  13.696  0.1773  1.4802  2.3640
11342TIP3    H255442   0.237   0.691  13.604  2.8606 -1.7939 -0.6701
11343TIP3   OH255443   6.172   6.774   2.736 -0.0435  0.1972 -0.2574
11343TIP3    H155444   6.085   6.786   2.699 -0.4877 -0.8138  0.4098
11343TIP3    H255445   6.171   6.825   2.817  0.2367  0.7923 -0.6334
11344TIP3   OH255446   1.531   6.745   1.632  0.3908  0.5445  0.2154
11344TIP3    H155447   1.487   6.792   1.704 -1.1391 -0.1002 -0.2714
11344TIP3    H255448   1.607   6.799   1.612  0.4896  1.0786  1.8916
11345TIP3   OH255449   1.956   1.680  10.746 -0.6178  0.1715  0.5450
11345TIP3    H155450   2.031   1.644  10.698 -0.7397  1.2601 -0.4914
11345TIP3    H255451   1.922   1.606  10.796  0.8201 -0.4634  0.6096
11346TIP3   OH255452   6.654   3.270  13.521 -0.3840 -0.3599  0.0368
11346TIP3    H155453   6.560   3.271  13.505 -0.1622 -1.7556 -1.4866
11346TIP3    H255454   6.683   3.359  13.500 -0.9840 -0.6160 -2.0056
11347TIP3   OH255455   4.488   1.213   6.546 -0.2732 -0.0051  0.0717
11347TIP3    H155456   4.462   1.275   6.614  2.0884  0.1022  0.9367
11347TIP3    H255457   4.561   1.256   6.501 -1.3104 -0.3960 -2.0846
11348TIP3   OH255458   0.099   3.104   2.801 -0.5549 -0.2460 -0.2359
11348TIP3    H155459   0.006   3.105   2.780 -0.3341  0.4971 -1.1948
11348TIP3    H255460   0.124   3.196   2.806  0.4682 -0.4357 -1.5326
11349TIP3   OH255461   4.121   0.573  11.587 -0.0352  0.1119  0.4671
11349TIP3    H155462   4.027   0.557  11.575  0.0665  0.3240 -0.6791
11349TIP3    H255463   4.127   0.668  11.600  0.0526  0.1360  0.2442
11350TIP3   OH255464   3.778   2.401   4.887 -0.2342 -0.0435  0.6124
11350TIP3    H155465   3.840   2.419   4.816  0.4223 -1.4358  0.8185
11350TIP3    H255466   3.759   2.487   4.924  1.0654  0.4744  0.1154
11351TIP3   OH255467   5.680   3.989   3.343  0.2157  0.2324 -0.4298
11351TIP3    H155468   5.713   4.050   3.409 -3.6478  1.6877  0.3146
11351TIP3    H255469   5.718   3.905   3.366  0.6963  1.1708  2.3421
11352TIP3   OH255470   4.750   3.457  13.718  0.4349  0.0919 -0.3418
11352TIP3    H155471   4.809   3.521  13.757 -1.0884  0.9822  0.5589
11352TIP3    H255472   4.740   3.389  13.785 -0.0889  0.2953 -0.2055
11353TIP3   OH255473   4.118   2.463  12.423  0.6270 -0.4276  0.4248
11353TIP3    H155474   4.170   2.500  12.352  2.0331  1.0908  2.2023
11353TIP3    H255475   4.117   2.369  12.406  3.5810 -0.4287  0.0686
11354TIP3   OH255476   0.003   1.628  15.121 -0.0706 -0.8621  0.4658
11354TIP3    H155477  -0.001   1.611  15.215  0.8075  0.5899  0.7845
11354TIP3    H255478   0.095   1.651  15.104  0.8237 -5.4611 -1.5484
11355TIP3   OH255479   1.182   4.249  17.160 -0.7854  0.2565 -0.1277
11355TIP3    H155480   1.149   4.286  17.079  1.2853 -0.1186 -1.1765
11355TIP3    H255481   1.239   4.178  17.133 -0.6650 -0.3760  1.6907
11356TIP3   OH255482   4.917   4.762  16.987 -0.3100  0.4849  0.3740
11356TIP3    H155483   4.921   4.741  17.080  0.5281  0.5013  0.3490
11356TIP3    H255484   5.001   4.734  16.952 -1.7126 -2.2326 -0.9669
11357TIP3   OH255485   1.986   2.581  14.954 -0.3928 -0.3980  0.7480
11357TIP3    H155486   2.069   2.549  14.989  0.9189 -1.2672 -2.8823
11357TIP3    H255487   1.995   2.676  14.952  0.4835 -0.4859  0.4992
11358TIP3   OH255488   0.635   6.138  15.764  0.0982 -0.4762  0.0127
11358TIP3    H155489   0.647   6.190  15.843 -0.4293 -0.0421 -0.1916
11358TIP3    H255490   0.712   6.158  15.710 -0.4568  0.6431 -0.3737
11359TIP3   OH255491   4.871   5.384   3.666  0.1536 -0.4820 -0.6800
11359TIP3    H155492   4.791   5.437   3.666  0.5956  0.1997 -1.2598
11359TIP3    H255493   4.925   5.424   3.598  1.3300 -0.4242  0.2808
11360TIP3   OH255494   3.916   2.085  16.233  0.8033  0.2150 -0.1665
11360TIP3    H155495   4.003   2.092  16.194  0.5012 -1.3828 -1.1482
11360TIP3    H255496   3.923   2.010  16.293  0.2323  0.3730  0.0976
11361TIP3   OH255497   4.487   4.926   3.717  0.0739  0.4725 -0.2559
11361TIP3    H155498   4.471   4.913   3.623 -0.3399 -1.7302  0.1014
11361TIP3    H255499   4.582   4.920   3.726  0.2349  2.0732 -0.7158
11362TIP3   OH255500   6.388   3.084   1.941 -0.1082  0.4391  0.0128
11362TIP3    H155501   6.332   3.121   2.010 -0.5753  0.2010 -0.2375
11362TIP3    H255502   6.443   3.020   1.987  2.3524  3.0667  0.8911
11363TIP3   OH255503   6.782   5.771  12.899  0.3126  0.1531 -0.2778
11363TIP3    H155504   6.752   5.789  12.810 -0.0461  0.1285 -0.1624
11363TIP3    H255505   6.758   5.849  12.949  1.4885  0.6248 -0.4352
11364TIP3   OH255506   4.636   2.742   1.701 -0.3887 -0.8701 -0.3579
11364TIP3    H155507   4.591   2.822   1.674  0.8934  0.8755  2.4473
11364TIP3    H255508   4.572   2.697   1.757  0.7166  0.8579  2.3810
11365TIP3   OH255509   2.506   6.383   4.037 -0.2138 -0.3091 -0.2637
11365TIP3    H155510   2.526   6.411   3.947  0.8381  2.1670  0.6742
11365TIP3    H255511   2.421   6.423   4.056  0.4568  0.8086  0.4714
11366TIP3   OH255512   6.726   0.305  13.458  0.4792 -0.0226 -0.1552
11366TIP3    H155513   6.649   0.336  13.411 -0.2272 -1.6474 -0.1178
11366TIP3    H255514   6.798   0.314  13.395 -0.4994 -2.4457 -1.7286
11367TIP3   OH255515   5.451   0.951   4.842 -0.7492  0.3344 -0.4044
11367TIP3    H155516   5.421   0.860   4.840  0.2370 -0.0425  1.0982
11367TIP3    H255517   5.379   1.000   4.881 -1.0802  0.1346 -0.7527
11368TIP3   OH255518   6.619   4.248   5.336 -0.3623  0.5975 -0.2435
11368TIP3    H155519   6.595   4.294   5.416  0.6193 -0.2133  0.5389
11368TIP3    H255520   6.712   4.227   5.348 -0.5377 -0.6819 -1.0243
11369TIP3   OH255521   2.219   2.592   2.566 -0.5167  0.2187  0.2759
11369TIP3    H155522   2.269   2.510   2.568  0.6027  0.8521 -0.8970
11369TIP3    H255523   2.243   2.637   2.647  1.8324  1.0996 -0.8832
11370TIP3   OH255524   2.210   4.647  15.707 -0.3479 -0.4287  0.1360
11370TIP3    H155525   2.178   4.611  15.790 -0.7748 -0.7784 -0.1734
11370TIP3    H255526   2.300   4.672  15.725 -0.3842 -0.6611  0.6617
11371TIP3   OH255527   5.045   1.808  16.801 -0.2412  0.0473 -0.3482
11371TIP3    H155528   4.968   1.752  16.790 -0.3291  0.3666 -1.4267
11371TIP3    H255529   5.114   1.749  16.829 -0.8473 -0.2682  0.4918
11372TIP3   OH255530   4.738   1.397   3.207  1.0496  0.6644 -0.4803
11372TIP3    H155531   4.731   1.328   3.141 -0.1108  0.2977  0.0144
11372TIP3    H255532   4.750   1.349   3.289  0.6623  1.0614 -0.1911
11373TIP3   OH255533   5.037   1.587  15.629 -0.2627 -0.1113 -0.1214
11373TIP3    H155534   5.114   1.636  15.658  0.1518  0.9123 -2.8512
11373TIP3    H255535   4.962   1.641  15.654 -0.0339 -0.2037  0.7990
11374TIP3   OH255536   0.357   0.261   1.972  0.1587 -0.4907 -0.5150
11374TIP3    H155537   0.421   0.315   1.927  1.6746 -0.8098  1.1744
11374TIP3    H255538   0.281   0.318   1.985  1.1238  0.7221 -0.1773
11375TIP3   OH255539   4.113   4.243  15.445  0.0168  0.1341  0.0872
11375TIP3    H155540   4.138   4.170  15.389  0.2643 -0.0658  0.4649
11375TIP3    H255541   4.018   4.243  15.443 -0.0348 -1.6739  2.0258
11376TIP3   OH255542   3.857   4.983   3.213  0.3156  0.1502 -0.4681
11376TIP3    H155543   3.803   5.017   3.142 -0.5931 -0.6446 -0.1654
11376TIP3    H255544   3.801   4.920   3.258  0.4996  1.4653  1.6451
11377TIP3   OH255545   6.629   1.058  14.718  0.0208 -0.1517 -0.2102
11377TIP3    H155546   6.612   1.131  14.659  0.0323  0.5362  0.6337
11377TIP3    H255547   6.558   0.996  14.700 -0.4060  0.3930 -0.4073
11378TIP3   OH255548   3.293   4.444  15.581  0.6085 -0.1481 -0.0034
11378TIP3    H155549   3.212   4.474  15.623  0.6283 -1.2608  0.8343
11378TIP3    H255550   3.265   4.371  15.525  1.1932 -1.2332  1.1096
11379TIP3   OH255551   2.188   2.937  13.275 -0.0936 -0.1116  0.1379
11379TIP3    H155552   2.284   2.932  13.278 -0.0722 -0.4671 -0.9335
11379TIP3    H255553   2.170   3.023  13.237 -0.1911 -0.2934 -0.2281
11380TIP3   OH255554   6.519   6.217   4.570  0.5452  0.0145  0.9797
11380TIP3    H155555   6.560   6.163   4.503  0.2665  0.2331  0.6292
11380TIP3    H255556   6.584   6.222   4.640  0.1305 -1.6874  1.4919
11381TIP3   OH255557   6.348   0.417   1.842 -0.1483  0.0131 -0.0909
11381TIP3    H155558   6.269   0.431   1.791  0.0810 -1.6823 -0.9592
11381TIP3    H255559   6.317   0.389   1.929 -0.5306  2.5998  0.6411
11382TIP3   OH255560   2.101   3.695  11.573  0.1978 -0.7581 -0.4530
11382TIP3    H155561   2.045   3.694  11.650  1.9911 -1.0739  0.8689
11382TIP3    H255562   2.137   3.607  11.567 -0.6098 -0.9967 -2.1835
11383TIP3   OH255563   4.550   1.201  15.445 -0.7146 -0.3158 -0.3282
11383TIP3    H155564   4.493   1.278  15.452  1.7542  1.5665 -0.0644
11383TIP3    H255565   4.490   1.127  15.441 -3.1664  1.5769  0.0249
11384TIP3   OH255566   3.610   4.813   0.206 -0.2953  1.1088  0.2053
11384TIP3    H155567   3.538   4.766   0.164 -0.3828  0.8257  0.6622
11384TIP3    H255568   3.659   4.852   0.134 -0.5332  0.7598 -0.1483
11385TIP3   OH255569   2.075   1.120  12.537  0.1210  0.2713 -0.7202
11385TIP3    H155570   2.129   1.145  12.611  0.9721  0.3572 -1.3618
11385TIP3    H255571   2.006   1.065  12.574  2.2821 -2.2330 -0.2716
11386TIP3   OH255572   5.586   0.954  13.569 -0.3480 -0.3102  0.2083
11386TIP3    H155573   5.647   1.022  13.542 -0.5314  0.1414  0.9262
11386TIP3    H255574   5.500   0.997  13.570 -0.6198 -0.8284 -0.3812
11387TIP3   OH255575   2.398   0.847  15.953  0.1062  0.3568 -0.0528
11387TIP3    H155576   2.474   0.905  15.943 -0.2792  0.5891 -1.8604
11387TIP3    H255577   2.435   0.760  15.964  0.6382  0.3995 -1.4591
11388TIP3   OH255578   2.186   1.938   0.312 -0.5826  0.5764  1.0319
11388TIP3    H155579   2.259   1.986   0.351  0.6779 -1.0914  0.7776
11388TIP3    H255580   2.184   1.855   0.360  0.9415 -1.4716 -2.2718
11389TIP3   OH255581   2.768   2.811   2.723 -0.0343 -0.4441  0.4985
11389TIP3    H155582   2.750   2.769   2.639 -1.0702  0.4233  0.2709
11389TIP3    H255583   2.857   2.785   2.744 -0.3445 -2.0025 -0.0730
11390TIP3   OH255584   1.811   6.073  12.741  0.2067 -0.1772  0.7806
11390TIP3    H155585   1.809   5.983  12.776  0.6987 -0.2120  0.7239
11390TIP3    H255586   1.826   6.128  12.817 -1.0290 -0.0592  0.9525
11391TIP3   OH255587   6.158   2.853  15.925 -0.4202  0.3950  0.4321
11391TIP3    H155588   6.194   2.841  16.014 -1.8343  1.0709  1.1075
11391TIP3    H255589   6.117   2.769  15.905 -1.9214  0.8891  1.2900
11392TIP3   OH255590   2.372   0.178  11.311 -0.3525 -0.5283  0.7195
11392TIP3    H155591   2.461   0.159  11.283  0.3476  0.3898  2.2470
11392TIP3    H255592   2.329   0.213  11.233  1.1853  0.8427  0.4567
11393TIP3   OH255593   5.936   0.525   2.082  0.2481 -0.4337  0.3035
11393TIP3    H155594   5.873   0.520   2.009 -0.6768 -0.5240  1.0916
11393TIP3    H255595   6.022   0.522   2.040 -0.2720 -1.5615 -0.7223
11394TIP3   OH255596   3.800   2.466   0.075  0.4035 -0.0889 -0.1780
11394TIP3    H155597   3.856   2.526   0.027 -0.9534  3.2194  2.1702
11394TIP3    H255598   3.843   2.456   0.160 -1.0473  0.2419  0.6261
11395TIP3   OH255599   5.652   5.007  12.075  0.1772  0.1211 -0.2758
11395TIP3    H155600   5.667   5.048  11.989  1.1958  1.0739  0.3318
11395TIP3    H255601   5.642   5.081  12.135 -2.3297 -0.5434  0.1491
11396TIP3   OH255602   2.207   2.314   3.728 -0.4013  0.0070 -0.0420
11396TIP3    H155603   2.247   2.401   3.724  1.5781 -0.9374 -2.2903
11396TIP3    H255604   2.216   2.287   3.820  0.1135  1.6475  0.3974
11397TIP3   OH255605   0.127   0.584  15.235 -0.2605  0.3423  0.2829
11397TIP3    H155606   0.219   0.575  15.257 -0.4720 -2.0360  0.3642
11397TIP3    H255607   0.123   0.572  15.140 -0.4326  0.9072  0.2176
11398TIP3   OH255608   2.207   4.688  11.054 -0.4808 -0.2933 -0.1953
11398TIP3    H155609   2.185   4.774  11.089  1.8966  1.2189 -2.2526
11398TIP3    H255610   2.170   4.687  10.966 -1.1705 -1.6857  0.0991
11399TIP3   OH255611   0.919   2.931  14.064 -0.2044  0.5859 -0.1601
11399TIP3    H155612   0.986   2.987  14.101  0.2959 -0.4928  0.5652
11399TIP3    H255613   0.892   2.977  13.984  0.0751  1.9366  0.4969
11400TIP3   OH255614   1.080   0.047  10.513 -0.8659 -0.4543 -0.3462
11400TIP3    H155615   1.111  -0.024  10.457 -1.3277 -1.5015  0.6909
11400TIP3    H255616   1.046   0.003  10.590 -0.1005  0.9640  0.8367
11401TIP3   OH255617   6.552   2.421   1.260 -0.4337 -0.1159  0.2172
11401TIP3    H155618   6.509   2.404   1.176  0.3381  0.9586 -0.3979
11401TIP3    H255619   6.643   2.395   1.247 -0.5349 -0.9466  1.0611
11402TIP3   OH255620   6.230   6.187   5.161 -0.0682 -0.3713  0.0541
11402TIP3    H155621   6.319   6.173   5.195  0.0059  0.0268  0.0212
11402TIP3    H255622   6.243   6.230   5.077 -0.3468  1.3478  0.8718
11403TIP3   OH255623   0.425   4.466   2.603  0.3340  0.3497  0.1547
11403TIP3    H155624   0.351   4.415   2.635 -0.4323  1.2414 -0.1881
11403TIP3    H255625   0.460   4.415   2.531 -0.0113 -0.0285  0.2537
11404TIP3   OH255626   6.066   0.844   4.607  0.3318  0.0767  0.5703
11404TIP3    H155627   6.012   0.832   4.529  0.1639 -1.2346  0.8686
11404TIP3    H255628   6.156   0.834   4.576  0.3732  1.4300  0.2212
11405TIP3   OH255629   1.226   0.206   0.916 -0.4390 -0.1551  0.5028
11405TIP3    H155630   1.208   0.185   0.824  1.9236  0.1860 -0.0495
11405TIP3    H255631   1.145   0.246   0.948 -1.4364 -0.7144 -1.2894
11406TIP3   OH255632   1.271   1.556  15.572 -0.0501  0.1048 -0.2015
11406TIP3    H155633   1.310   1.637  15.539 -3.4960  2.2462  0.7429
11406TIP3    H255634   1.323   1.486  15.532  0.7497  2.7003 -3.9394
11407TIP3   OH255635   1.743   3.364  15.818 -0.1062  0.4641 -0.1133
11407TIP3    H155636   1.667   3.423  15.820 -0.4520 -0.0115  1.7297
11407TIP3    H255637   1.706   3.278  15.799 -0.1300  0.1091  1.4904
11408TIP3   OH255638   3.066   1.204  13.089  0.1442 -0.2883 -0.1694
11408TIP3    H155639   2.985   1.226  13.043 -0.0578  2.4265  1.3687
11408TIP3    H255640   3.043   1.130  13.146 -1.0119 -0.0837 -0.3698
11409TIP3   OH255641   4.070   1.905   1.334 -0.1915 -0.1730 -0.4119
11409TIP3    H155642   4.092   1.855   1.413 -2.4808 -0.8954 -0.1803
11409TIP3    H255643   3.987   1.948   1.356 -0.1049  0.7707 -1.9222
11410TIP3   OH255644   2.940   3.926  14.177 -0.1957 -0.0654 -0.3542
11410TIP3    H155645   2.981   3.842  14.199  0.4000  0.8197  2.0482
11410TIP3    H255646   2.853   3.902  14.145  0.4701 -1.6705 -1.0536
11411TIP3   OH255647   5.427   3.257   0.204  0.2831 -0.0490  0.5606
11411TIP3    H155648   5.507   3.298   0.170 -1.1341  2.4443  0.0654
11411TIP3    H255649   5.399   3.199   0.134  0.2552  1.0653 -0.3812
11412TIP3   OH255650   5.250   0.375  16.222 -0.5044  0.0143  0.5946
11412TIP3    H155651   5.220   0.288  16.250  0.9142  0.2260  2.9041
11412TIP3    H255652   5.296   0.359  16.139 -0.1568 -1.4523  1.0528
11413TIP3   OH255653   0.737   6.593  13.904 -0.0804  0.0951 -0.2248
11413TIP3    H155654   0.783   6.515  13.934  0.2442  0.0573 -0.8123
11413TIP3    H255655   0.679   6.562  13.835  1.3915  0.6532 -1.7427
11414TIP3   OH255656   2.176   2.369   1.140 -0.4949  0.2000 -0.3767
11414TIP3    H155657   2.238   2.299   1.160 -0.1089  0.9186  0.9733
11414TIP3    H255658   2.200   2.398   1.052 -0.1463 -0.8153 -0.6169
11415TIP3   OH255659   3.817   2.163   0.699  0.2746 -0.4857 -0.0982
11415TIP3    H155660   3.741   2.136   0.752  1.3865  1.0077  2.3399
11415TIP3    H255661   3.882   2.192   0.763  1.8841  0.8994 -2.2866
11416TIP3   OH255662   1.094   0.207   3.708  0.0973  0.0608  0.5068
11416TIP3    H155663   1.048   0.127   3.680 -0.7294 -0.0022  2.0020
11416TIP3    H255664   1.060   0.225   3.795  1.7169  0.9760  0.9691
11417TIP3   OH255665   0.274   5.343   1.576  0.2163 -0.3460 -0.0085
11417TIP3    H155666   0.236   5.272   1.525 -2.3298 -1.1041  2.8278
11417TIP3    H255667   0.234   5.422   1.540 -0.2419 -0.7210 -0.3266
11418TIP3   OH255668   1.908   5.664  13.558 -0.0489 -0.5966  0.5068
11418TIP3    H155669   1.915   5.572  13.583 -0.0566 -0.8940 -0.5470
11418TIP3    H255670   1.921   5.713  13.639 -1.4413 -1.5665  1.3299
11419TIP3   OH255671   4.093   1.880  17.178 -0.5150  0.1817 -0.4716
11419TIP3    H155672   4.043   1.827  17.240  1.1653 -0.0715  0.7232
11419TIP3    H255673   4.182   1.879  17.214 -0.3099  3.2588 -0.8028
11420TIP3   OH255674   6.347   0.638   3.006 -0.2754  0.4787  0.0116
11420TIP3    H155675   6.384   0.551   3.022 -1.3784 -0.6244 -3.1718
11420TIP3    H255676   6.329   0.672   3.094 -0.6016 -2.8265  1.3125
11421TIP3   OH255677   0.682   0.486  13.629  0.2501 -0.1141 -0.2048
11421TIP3    H155678   0.721   0.543  13.563  1.3089 -0.0556  0.4532
11421TIP3    H255679   0.617   0.541  13.672  2.0623  1.0056  1.2000
11422TIP3   OH255680   0.866   6.245  12.062 -0.3045 -0.8734 -0.4089
11422TIP3    H155681   0.889   6.155  12.038  1.5314 -0.1159 -1.5724
11422TIP3    H255682   0.770   6.246  12.065 -0.3270 -2.9748  0.0538
11423TIP3   OH255683   0.884   4.982   2.110 -0.1659 -0.6088 -0.2658
11423TIP3    H155684   0.793   4.989   2.140 -0.1767 -1.7726 -0.0008
11423TIP3    H255685   0.926   4.925   2.174  0.9056  0.4007 -0.0660
11424TIP3   OH255686   5.481   3.619  16.957 -0.1875  0.0343 -0.2270
11424TIP3    H155687   5.399   3.667  16.968 -0.4344 -0.2728 -0.7570
11424TIP3    H255688   5.493   3.573  17.040 -0.7748 -0.2713 -0.3073
11425TIP3   OH255689   2.650   3.935  13.185 -0.2422 -0.1156 -0.5295
11425TIP3    H155690   2.631   3.999  13.115 -0.8085  2.4474  1.8667
11425TIP3    H255691   2.668   3.989  13.262  1.7089 -2.8490  1.0184
11426TIP3   OH255692   2.677   3.807  12.336  0.5608 -0.5355 -0.1657
11426TIP3    H155693   2.647   3.716  12.330  1.1008 -0.7640  0.6847
11426TIP3    H255694   2.760   3.808  12.289  0.1395 -0.2970 -0.9111
11427TIP3   OH255695   3.481   2.782   4.886  1.1342 -0.1212 -0.0846
11427TIP3    H155696   3.425   2.708   4.865  1.0103 -0.5738  1.7584
11427TIP3    H255697   3.544   2.748   4.950  0.2983  1.6451  1.7261
11428TIP3   OH255698   4.549   3.338  15.085 -0.0684  0.1691  0.1229
11428TIP3    H155699   4.577   3.398  15.153  0.5650 -0.6337  0.5654
11428TIP3    H255700   4.546   3.392  15.006 -2.3807  1.5005  1.0638
11429TIP3   OH255701   3.629   1.799  14.189  0.4369  0.3816  0.1875
11429TIP3    H155702   3.593   1.802  14.277  0.3843  2.6789  0.1171
11429TIP3    H255703   3.597   1.716  14.153 -2.3838  0.9786  1.1430
11430TIP3   OH255704   3.175   3.682   3.648 -0.2532  0.3313 -0.2162
11430TIP3    H155705   3.144   3.770   3.667  0.6247  0.7464 -0.6999
11430TIP3    H255706   3.159   3.633   3.728 -0.8347  0.9074  0.0186
11431TIP3   OH255707   5.040   5.908   2.717 -0.0004 -0.8822  0.2536
11431TIP3    H155708   4.950   5.929   2.693  0.3693  1.0070  0.4863
11431TIP3    H255709   5.040   5.906   2.813 -0.0669 -2.1812  0.2406
11432TIP3   OH255710   5.369   0.372  14.722 -0.3139  0.6904  0.0868
11432TIP3    H155711   5.373   0.374  14.817  2.1063  0.0484  0.0251
11432TIP3    H255712   5.293   0.318  14.702 -0.6128  0.5176  1.6455
11433TIP3   OH255713   0.855   2.410   1.745  0.5381  0.2185  0.2146
11433TIP3    H155714   0.939   2.455   1.735  0.9238 -0.9834 -2.6436
11433TIP3    H255715   0.875   2.333   1.798  1.2610 -0.0706 -0.4625
11434TIP3   OH255716   3.165   2.565   1.797  0.2413 -0.3093  0.0490
11434TIP3    H155717   3.132   2.638   1.746  0.9585 -0.9160 -1.3242
11434TIP3    H255718   3.143   2.586   1.887 -1.0840  0.7673 -0.5119
11435TIP3   OH255719   4.697   4.381  12.360  0.2679 -0.2214 -0.4550
11435TIP3    H155720   4.613   4.357  12.322  0.1952  0.5156 -0.7590
11435TIP3    H255721   4.689   4.475  12.379  0.7321 -0.3213  0.2522
11436TIP3   OH255722   2.388   5.131  15.556  0.4508  0.2959 -0.0442
11436TIP3    H155723   2.355   5.054  15.510  2.8643  0.2473 -1.7597
11436TIP3    H255724   2.415   5.098  15.641  0.2616 -0.4924 -0.2867
11437TIP3   OH255725   0.535   0.493  14.678  0.3051  0.1268 -0.4590
11437TIP3    H155726   0.536   0.462  14.769  0.7312 -0.0908 -0.5412
11437TIP3    H255727   0.487   0.577  14.682 -1.6067 -0.9361 -0.3668
11438TIP3   OH255728   5.723   3.686  14.454  0.1859  0.4211  0.5590
11438TIP3    H155729   5.780   3.736  14.396  0.8484 -1.8897 -0.8214
11438TIP3    H255730   5.666   3.752  14.494  1.2447  2.3055 -0.9597
11439TIP3   OH255731   5.471   0.196   0.440 -0.0550  0.3416 -0.2309
11439TIP3    H155732   5.500   0.190   0.349 -0.7948  1.4498 -0.5553
11439TIP3    H255733   5.528   0.136   0.488  0.8790  0.3627 -1.3034
11440TIP3   OH255734   2.894   2.056   2.281  0.5020  0.3824  0.1194
11440TIP3    H155735   2.890   2.062   2.377  0.2724 -1.2175  0.2319
11440TIP3    H255736   2.986   2.072   2.260  0.9917 -1.3400  0.8079
11441TIP3   OH255737   2.560   1.258  14.987  0.2166  0.4064  0.2983
11441TIP3    H155738   2.596   1.347  14.978 -0.1749  0.4130 -1.3311
11441TIP3    H255739   2.631   1.201  14.956  0.2899  0.1645  0.8956
11442TIP3   OH255740   1.297   1.764  12.806 -0.1549  0.4896  0.1692
11442TIP3    H155741   1.274   1.849  12.842 -0.8510  0.5877 -0.5098
11442TIP3    H255742   1.261   1.764  12.718  3.0565  0.9340 -1.2257
11443TIP3   OH255743   0.454   3.553   5.732  0.8358 -0.6036  0.0161
11443TIP3    H155744   0.465   3.648   5.735 -1.4503 -0.3205  1.0792
11443TIP3    H255745   0.513   3.520   5.799  3.1572 -0.1282 -1.7484
11444TIP3   OH255746   6.318   2.762   5.073  0.6942  0.4035 -0.0022
11444TIP3    H155747   6.376   2.835   5.051  1.0201 -0.6083 -2.6804
11444TIP3    H255748   6.376   2.686   5.083  0.2236  0.2084  1.4489
11445TIP3   OH255749   1.034   1.518   0.228  0.0377 -0.4639 -0.1129
11445TIP3    H155750   0.948   1.538   0.265  0.2410  0.5333 -0.1693
11445TIP3    H255751   1.083   1.478   0.300 -0.0644  0.0934  0.2625
11446TIP3   OH255752   5.079   0.416   2.728 -0.0914 -0.1230 -0.0300
11446TIP3    H155753   5.156   0.359   2.725 -1.0882 -1.6588  2.0835
11446TIP3    H255754   5.005   0.359   2.705 -0.9890  0.5473  1.1354
11447TIP3   OH255755   1.905   2.119   2.048  0.3528  0.0455 -0.0360
11447TIP3    H155756   1.865   2.202   2.076 -1.4370 -0.2367 -1.6543
11447TIP3    H255757   1.962   2.144   1.975  0.5478 -0.0428  0.0837
11448TIP3   OH255758   1.308   2.923  12.974  0.0543  0.3907  0.5225
11448TIP3    H155759   1.368   2.987  12.936  2.9897 -2.5255  0.0919
11448TIP3    H255760   1.279   2.870  12.900 -1.6348  0.5852  1.0144
11449TIP3   OH255761   0.811   1.625  10.415  0.2088 -0.2511 -0.1852
11449TIP3    H155762   0.871   1.595  10.346  0.2683  1.8076 -1.0796
11449TIP3    H255763   0.869   1.661  10.483  0.0482  1.6720 -1.0176
11450TIP3   OH255764   0.119   1.172   0.479 -0.1610  0.2295  0.6544
11450TIP3    H155765   0.126   1.115   0.403  0.7324  0.0531  0.8587
11450TIP3    H255766   0.180   1.243   0.461  0.3178  0.0010  1.3616
11451TIP3   OH255767   1.837   2.770   1.203 -0.4145 -0.2227 -0.3545
11451TIP3    H155768   1.898   2.817   1.259  0.5064 -1.1387 -0.5886
11451TIP3    H255769   1.759   2.826   1.200 -0.6194 -0.3261  2.1379
11452TIP3   OH255770   5.615   3.999  15.088 -0.0932 -0.8763  0.1643
11452TIP3    H155771   5.551   3.972  15.023  0.4642 -2.5951  0.2969
11452TIP3    H255772   5.637   3.919  15.135  1.5821 -0.1772  0.6294
11453TIP3   OH255773   0.795   4.015  11.662  0.0988 -0.0470 -0.3209
11453TIP3    H155774   0.846   3.936  11.675 -0.7813 -0.2073  2.4596
11453TIP3    H255775   0.704   3.988  11.677 -0.4774  0.9372 -1.9136
11454TIP3   OH255776   2.053   4.409  16.669  0.0271 -0.2899  0.3220
11454TIP3    H155777   2.041   4.380  16.578  3.1310 -0.5683 -0.0398
11454TIP3    H255778   2.028   4.501  16.667 -1.1252 -0.5934 -0.5099
11455TIP3   OH255779   0.883   2.564  15.373  0.0596 -0.1519 -0.1424
11455TIP3    H155780   0.949   2.496  15.385  0.0071 -0.1754  0.0076
11455TIP3    H255781   0.840   2.542  15.290 -1.3562 -1.4566  0.9269
11456TIP3   OH255782   2.438   5.682   6.275 -0.3049  0.2413  0.0705
11456TIP3    H155783   2.432   5.627   6.353  0.0932 -1.6188 -1.1835
11456TIP3    H255784   2.374   5.646   6.214  0.5320  0.6565 -1.0806
11457TIP3   OH255785   0.549   1.943   4.804 -0.4802  0.0023  0.1565
11457TIP3    H155786   0.635   1.982   4.816 -0.2956 -0.0110 -1.0753
11457TIP3    H255787   0.513   1.987   4.728 -0.2461 -2.2388 -1.3034
11458TIP3   OH255788   0.098   4.136   0.123 -0.4742 -0.6692 -0.3777
11458TIP3    H155789   0.171   4.169   0.175 -0.5397  0.7463 -1.1707
11458TIP3    H255790   0.139   4.086   0.052 -0.3108 -0.6120 -0.3221
11459TIP3   OH255791   1.308   1.528   4.468  1.0271  0.5473  0.5713
11459TIP3    H155792   1.331   1.576   4.389 -0.1543  1.3110  0.6907
11459TIP3    H255793   1.277   1.443   4.436 -1.3464  1.5638  0.0710
11460TIP3   OH255794   0.290   6.131  10.239 -0.0648  0.7483  0.6464
11460TIP3    H155795   0.312   6.078  10.316  0.9495  0.7508  0.3553
11460TIP3    H255796   0.311   6.220  10.265  0.3247  0.7435  0.3518
11461TIP3   OH255797   5.124   4.839   5.738 -0.0438 -0.6780  0.0624
11461TIP3    H155798   5.120   4.844   5.643 -0.6473  2.3127  0.2164
11461TIP3    H255799   5.176   4.914   5.765 -2.1045  0.0507  2.2343
11462TIP3   OH255800   4.204   2.076  15.555 -0.2005 -0.0296  0.3435
11462TIP3    H155801   4.138   2.067  15.623  0.7329 -1.6301  1.0716
11462TIP3    H255802   4.159   2.053  15.474 -1.0757  0.9909  0.5316
11463TIP3   OH255803   5.689   6.338  11.470 -0.1800  0.1078  0.0787
11463TIP3    H155804   5.651   6.262  11.427 -0.6485 -0.8534  2.1257
11463TIP3    H255805   5.783   6.332  11.452 -0.3938 -0.1431 -0.9694
11464TIP3   OH255806   5.489   4.475   4.945  0.1029  0.2533 -0.3311
11464TIP3    H155807   5.470   4.485   5.038 -1.6186  3.5848 -0.9424
11464TIP3    H255808   5.478   4.381   4.928 -0.5138 -0.2573  2.6073
11465TIP3   OH255809   3.949   5.440  13.694  0.3070  0.4947  0.1780
11465TIP3    H155810   4.021   5.394  13.737 -1.0794 -0.8222  1.1599
11465TIP3    H255811   3.913   5.496  13.763  0.5861  1.3933 -0.3997
11466TIP3   OH255812   1.858   6.002  11.472  0.2188  0.1770 -0.5764
11466TIP3    H155813   1.786   6.029  11.415 -0.8523 -1.1091  0.1460
11466TIP3    H255814   1.937   6.036  11.429 -0.8191  1.6283 -1.3480
11467TIP3   OH255815   1.077   0.627  15.161  0.5120 -0.9163 -0.2306
11467TIP3    H155816   1.044   0.698  15.216  1.5284 -0.5559 -0.0761
11467TIP3    H255817   1.131   0.574  15.220  0.5205 -1.2814 -0.5656
11468TIP3   OH255818   6.377   6.343   2.736  0.3223 -0.0719 -0.4449
11468TIP3    H155819   6.421   6.270   2.780 -0.3312 -1.5342 -2.1615
11468TIP3    H255820   6.312   6.373   2.800  0.5965 -1.0058  0.2958
11469TIP3   OH255821   6.761   2.238  10.830  0.6460  0.0325 -0.0937
11469TIP3    H155822   6.690   2.237  10.894  1.1132  1.6979  0.4865
11469TIP3    H255823   6.831   2.189  10.871 -0.0682 -1.4238 -0.5749
11470TIP3   OH255824   4.585   3.403  12.290 -0.8043 -0.3045 -0.4993
11470TIP3    H155825   4.578   3.482  12.238 -0.1143 -0.1991 -0.4368
11470TIP3    H255826   4.499   3.360  12.281 -0.8830  0.0082 -1.2297
11471TIP3   OH255827   2.326   4.276   2.674  0.6135 -0.5188  0.5232
11471TIP3    H155828   2.289   4.362   2.689  0.5917 -0.7972  2.1101
11471TIP3    H255829   2.264   4.233   2.615  0.7528  0.6095 -0.4734
11472TIP3   OH255830   5.999   4.740   6.341  0.6761 -0.3403 -0.3619
11472TIP3    H155831   5.945   4.742   6.420  0.2474 -0.3916 -0.6540
11472TIP3    H255832   5.961   4.807   6.284  0.6580 -0.6708 -0.7387
11473TIP3   OH255833   1.866   2.964   6.249 -0.3490 -0.3048 -0.1250
11473TIP3    H155834   1.815   2.883   6.252 -0.4225 -0.5061 -4.4158
11473TIP3    H255835   1.950   2.941   6.290 -1.9315 -1.2323  2.7600
11474TIP3   OH255836   0.216   4.337   0.986 -0.0695 -0.0676  0.3813
11474TIP3    H155837   0.169   4.255   0.999 -0.7207  0.3374  0.6323
11474TIP3    H255838   0.155   4.405   1.017 -0.3655  0.6694 -1.7130
11475TIP3   OH255839   3.780   6.083   4.705  0.0625 -0.1322 -0.8466
11475TIP3    H155840   3.815   6.008   4.657 -0.6973 -2.0535  1.5269
11475TIP3    H255841   3.850   6.109   4.764 -0.3718 -0.2242 -0.2854
11476TIP3   OH255842   1.725   2.690   6.123 -0.4159 -0.0209  0.1515
11476TIP3    H155843   1.695   2.708   6.212 -0.9368  1.0288 -0.2363
11476TIP3    H255844   1.672   2.614   6.096 -0.3862 -0.2291  0.6582
11477TIP3   OH255845   0.235   5.456  15.656 -0.3385  0.1264 -0.2677
11477TIP3    H155846   0.281   5.445  15.573  1.0907  0.6768  0.4368
11477TIP3    H255847   0.160   5.513  15.635  1.0681  1.8120 -0.8184
11478TIP3   OH255848   1.506   2.906   3.201  0.6481  0.3543  0.3593
11478TIP3    H155849   1.533   2.814   3.196 -0.4024  0.0251  0.5312
11478TIP3    H255850   1.496   2.923   3.295  0.1517  0.4403  0.2906
11479TIP3   OH255851   3.216   4.943  12.701 -0.9195 -0.5658 -0.4306
11479TIP3    H155852   3.289   5.005  12.706  0.8417 -2.6275  0.6398
11479TIP3    H255853   3.155   4.973  12.769 -0.6348  0.6394 -0.6917
11480TIP3   OH255854   6.445   0.491   5.032 -0.4568 -0.0942 -0.5495
11480TIP3    H155855   6.362   0.442   5.039  0.2387 -1.3996 -1.1864
11480TIP3    H255856   6.507   0.427   4.996  1.3405  0.3054  1.7777
11481TIP3   OH255857   2.239   1.484   0.615  0.2188  0.2142  0.1071
11481TIP3    H155858   2.172   1.455   0.677 -0.0947 -1.2573 -0.9022
11481TIP3    H255859   2.322   1.476   0.664 -0.0739 -0.4601  0.5037
11482TIP3   OH255860   6.516   4.864   3.976  0.2925  0.2700 -0.0197
11482TIP3    H155861   6.454   4.793   3.957  1.2543 -1.1231  1.8781
11482TIP3    H255862   6.469   4.920   4.038  1.0515 -1.0708  1.8336
11483TIP3   OH255863   6.312   2.352  13.974  0.1552 -0.6033 -0.5128
11483TIP3    H155864   6.351   2.266  13.990  0.0010 -0.9731 -2.0182
11483TIP3    H255865   6.218   2.338  13.987  0.0539 -0.8530 -1.4083
11484TIP3   OH255866   5.019   2.103  16.668 -0.4788  0.3464  0.2063
11484TIP3    H155867   4.948   2.167  16.677 -0.9760 -0.0630 -0.7347
11484TIP3    H255868   5.051   2.116  16.578 -0.2916 -0.4190  0.1629
11485TIP3   OH255869   0.300   2.653   3.276 -0.4729 -0.0198 -0.4437
11485TIP3    H155870   0.278   2.675   3.186 -0.3252  1.0336 -0.2318
11485TIP3    H255871   0.218   2.665   3.325 -0.4421 -0.1477 -0.3589
11486TIP3   OH255872   5.935   4.869  12.169  0.3222 -0.6498  0.1376
11486TIP3    H155873   5.933   4.852  12.075 -1.7924  2.4247 -0.4788
11486TIP3    H255874   6.023   4.903  12.186  0.8857 -1.7209 -0.6091
11487TIP3   OH255875   1.892   1.743  13.358 -0.2451  0.1408 -0.2916
11487TIP3    H155876   1.917   1.790  13.437 -2.8493 -1.5901  1.6383
11487TIP3    H255877   1.830   1.802  13.314  1.6063  1.3325 -1.3790
11488TIP3   OH255878   2.888   5.091   3.375  0.3881 -0.8874  0.0501
11488TIP3    H155879   2.913   5.180   3.401  1.2837 -1.7494  2.2307
11488TIP3    H255880   2.944   5.071   3.300  0.7044  0.1064  0.0085
11489TIP3   OH255881   5.580   4.148   6.706  0.3450 -0.1270  0.0033
11489TIP3    H155882   5.521   4.208   6.751  1.4329 -0.4197  1.8488
11489TIP3    H255883   5.532   4.066   6.702  0.6035 -0.3545  1.4659
11490TIP3   OH255884   2.909   3.820  14.580 -0.6837  0.1437  0.4076
11490TIP3    H155885   2.836   3.818  14.519 -0.3628  1.0805 -0.0141
11490TIP3    H255886   2.984   3.788  14.528 -0.1777  1.9803 -0.0211
11491TIP3   OH255887   6.282   4.025   5.723  0.6390  0.3366 -0.6881
11491TIP3    H155888   6.221   3.994   5.790  0.5045 -0.3896 -1.1533
11491TIP3    H255889   6.227   4.068   5.658  0.8670  2.0023  0.1964
11492TIP3   OH255890   5.201   1.210  16.327 -0.5540 -0.1024 -0.1404
11492TIP3    H155891   5.293   1.184  16.318  0.2798  1.7899  2.3753
11492TIP3    H255892   5.166   1.149  16.392 -0.8172 -0.1751 -0.3507
11493TIP3   OH255893   6.441   5.031  15.704 -0.4050  0.4873 -0.1322
11493TIP3    H155894   6.523   5.008  15.749 -2.0577 -0.2619  2.5940
11493TIP3    H255895   6.395   5.088  15.766 -1.2733  2.1811 -2.2887
11494TIP3   OH255896   3.864   3.111   4.286 -0.1416 -0.5053 -0.2682
11494TIP3    H155897   3.802   3.095   4.357 -0.7916  0.7864 -0.5358
11494TIP3    H255898   3.843   3.044   4.220 -0.3266 -0.9504  0.2382
11495TIP3   OH255899   2.295   0.154  11.692  0.3594  0.3413  0.3868
11495TIP3    H155900   2.218   0.135  11.639  1.0112  0.5603 -0.6481
11495TIP3    H255901   2.362   0.094  11.660 -0.3359 -2.3816  3.6591
11496TIP3   OH255902   0.568   5.665  13.994  0.2690 -0.0542  0.4588
11496TIP3    H155903   0.663   5.667  14.003  0.0687  2.7046  2.9933
11496TIP3    H255904   0.550   5.719  13.918  0.7095  0.0650  0.4362
11497TIP3   OH255905   4.965   5.658  12.199  0.8468  0.5055  0.6823
11497TIP3    H155906   5.027   5.720  12.238  1.5110  0.1960  0.1237
11497TIP3    H255907   4.906   5.634  12.271  0.7264  1.6068  0.9562
11498TIP3   OH255908   2.279   1.945  14.556 -0.3586  0.4358  0.3830
11498TIP3    H155909   2.273   2.010  14.626 -0.7318 -0.5056  1.2356
11498TIP3    H255910   2.238   1.988  14.480 -1.3110  0.9074  1.1477
11499TIP3   OH255911   0.311   3.888   5.036 -0.1710 -0.4164 -0.0120
11499TIP3    H155912   0.342   3.822   4.974  1.6240 -0.2514  0.6758
11499TIP3    H255913   0.381   3.895   5.101 -0.5024  1.9057  0.1362
11500TIP3   OH255914   0.233   0.697  16.213  0.0267 -0.5009 -0.2236
11500TIP3    H155915   0.195   0.647  16.286 -0.2173 -1.6166 -1.1076
11500TIP3    H255916   0.217   0.788  16.236 -0.3370 -0.8546  0.9731
11501TIP3   OH255917   0.893   4.357   3.272 -0.1848  0.1381  0.6085
11501TIP3    H155918   0.859   4.444   3.252 -0.7263 -0.1468  0.2834
11501TIP3    H255919   0.946   4.334   3.195 -0.4706 -0.0392  0.4644
11502TIP3   OH255920   6.302   3.012   0.565  0.0274  0.3130  0.2510
11502TIP3    H155921   6.341   3.080   0.619  0.2427  1.5069 -1.3617
11502TIP3    H255922   6.231   2.976   0.618  1.0884  0.5256  1.8381
11503TIP3   OH255923   1.141   0.851   4.098  0.2226 -0.1889 -0.0201
11503TIP3    H155924   1.069   0.822   4.153 -1.9097  0.7887 -2.1841
11503TIP3    H255925   1.216   0.856   4.156 -2.5691  3.6890  3.5405
11504TIP3   OH255926   3.141   2.269   0.778  0.6749  0.3442  0.1760
11504TIP3    H155927   3.086   2.323   0.721 -0.5592 -0.4021  0.6454
11504TIP3    H255928   3.097   2.184   0.781  2.2249 -0.4822  0.0058
11505TIP3   OH255929   0.041   2.205  15.728 -0.3298 -0.2317 -0.1014
11505TIP3    H155930   0.125   2.248  15.717  0.4277 -1.4189  0.7882
11505TIP3    H255931   0.006   2.240  15.810 -0.3935 -0.2074 -0.1387
11506TIP3   OH255932   6.220   1.809   6.377 -0.4464  0.0937 -0.4573
11506TIP3    H155933   6.128   1.791   6.397  0.0113 -0.2866  1.4008
11506TIP3    H255934   6.224   1.903   6.365 -0.9960  0.1869  0.0369
11507TIP3   OH255935   3.022   4.456  12.031 -0.2277 -0.3833  0.0674
11507TIP3    H155936   3.020   4.408  11.948 -2.5422 -1.9162  0.9438
11507TIP3    H255937   3.080   4.404  12.087  0.6920  0.2143 -0.3152
11508TIP3   OH255938   5.147   2.796   0.027 -0.5713 -0.0482 -0.0976
11508TIP3    H155939   5.236   2.811  -0.004 -1.1401  1.6142 -1.0414
11508TIP3    H255940   5.092   2.824  -0.046 -1.8726  0.1280  0.9369
11509TIP3   OH255941   1.327   2.702  16.804  0.2707  0.0836  0.1276
11509TIP3    H155942   1.390   2.769  16.778  1.2310 -1.0404 -0.4984
11509TIP3    H255943   1.311   2.652  16.724 -1.4204  0.3319  0.2811
11510TIP3   OH255944   1.574   3.363  16.701 -0.3258  0.4761 -0.1601
11510TIP3    H155945   1.541   3.386  16.788  0.4328 -1.6472  0.7212
11510TIP3    H255946   1.620   3.281  16.714  0.9545  0.8145 -2.3398
11511TIP3   OH255947   4.984   0.351  16.483 -0.2013 -0.6624 -0.0185
11511TIP3    H155948   5.001   0.301  16.404  0.1953 -1.5675  0.6282
11511TIP3    H255949   4.965   0.440  16.452 -1.0645 -1.2407 -1.1768
11512TIP3   OH255950   5.812   0.303  15.185  0.4440 -0.7151  0.2628
11512TIP3    H155951   5.903   0.276  15.193  0.2699 -1.3108  0.2429
11512TIP3    H255952   5.793   0.348  15.267  1.2753  0.9910 -0.4424
11513TIP3   OH255953   5.952   5.403  17.058 -0.2562 -0.2832  0.1745
11513TIP3    H155954   5.863   5.397  17.024 -0.3884 -0.7463  0.5952
11513TIP3    H255955   6.006   5.358  16.993 -0.1063  1.4116 -0.8827
11514TIP3   OH255956   1.887   3.361  12.295  0.1075  0.0431  0.6282
11514TIP3    H155957   1.900   3.422  12.368  0.6710  0.1989  0.4010
11514TIP3    H255958   1.953   3.292  12.309  2.4248  1.7404 -1.4897
11515TIP3   OH255959   5.766   5.277  12.701 -0.7369 -0.7551 -0.5653
11515TIP3    H155960   5.698   5.212  12.687 -0.8644 -0.6090 -0.6268
11515TIP3    H255961   5.845   5.239  12.662 -0.4001 -1.6348  0.9193
11516TIP3   OH255962   3.326   6.629   1.953  0.2315  0.2874 -0.2877
11516TIP3    H155963   3.421   6.630   1.944  0.2054 -2.0377 -1.2236
11516TIP3    H255964   3.310   6.591   2.039  0.1340 -3.3698 -1.8530
11517TIP3   OH255965   3.966   0.085   0.081  0.1212 -0.3669  0.0836
11517TIP3    H155966   4.004   0.129   0.005 -1.4149  0.2732 -0.3496
11517TIP3    H255967   4.039   0.041   0.123  1.4949  1.5269 -0.2344
11518TIP3   OH255968   4.555   3.391   1.772 -0.1049 -0.0490  0.2547
11518TIP3    H155969   4.610   3.378   1.695  1.3401 -1.5878  1.5255
11518TIP3    H255970   4.476   3.339   1.754 -0.7008  1.2822 -1.0821
11519TIP3   OH255971   6.775   3.936  10.771  0.2880 -0.6283 -0.2534
11519TIP3    H155972   6.747   3.946  10.680 -0.7964 -1.5404 -0.0171
11519TIP3    H255973   6.826   4.015  10.788  1.4037 -0.9327 -1.9836
11520TIP3   OH255974   2.867   2.362  15.184 -0.6004 -0.0662  0.0843
11520TIP3    H155975   2.952   2.405  15.173  0.1363 -2.1142 -2.6591
11520TIP3    H255976   2.812   2.401  15.116 -0.4807 -2.0404 -1.1667
11521TIP3   OH255977   4.341   6.313  15.379  0.5897  0.0287  0.0416
11521TIP3    H155978   4.277   6.334  15.312  0.7006  0.1295 -0.0307
11521TIP3    H255979   4.411   6.267  15.332  0.2117 -0.7625  0.2436
11522TIP3   OH255980   5.258   3.924  17.217  0.6754  0.0516 -0.4988
11522TIP3    H155981   5.353   3.931  17.229  0.7777 -2.1302  0.2553
11522TIP3    H255982   5.249   3.886  17.129  0.5565 -0.7720 -0.1378
11523TIP3   OH255983   6.611   5.628  14.924  0.2192  0.1883 -0.5807
11523TIP3    H155984   6.706   5.626  14.937  0.3241  0.7396 -1.2405
11523TIP3    H255985   6.601   5.624  14.829 -0.3448  3.0313 -0.6607
11524TIP3   OH255986   6.564   1.198  11.216 -0.3721 -0.3182 -0.4921
11524TIP3    H155987   6.643   1.151  11.241  2.1140  2.9651 -1.7047
11524TIP3    H255988   6.565   1.200  11.120  0.0343  2.7640 -0.4807
11525TIP3   OH255989   4.609   6.340   1.478 -0.5942 -0.4385 -0.3841
11525TIP3    H155990   4.527   6.309   1.441 -1.1488 -0.0960  0.5525
11525TIP3    H255991   4.602   6.436   1.476 -0.2841 -0.4087 -0.1490
11526TIP3   OH255992   4.060   3.672  13.173 -0.1813 -0.4405 -0.2849
11526TIP3    H155993   4.055   3.642  13.264 -3.3758  0.2195 -0.1870
11526TIP3    H255994   4.118   3.608  13.130  0.2873 -1.5300  1.8903
11527TIP3   OH255995   1.388   5.643   4.719  0.7090  0.3213 -0.2642
11527TIP3    H155996   1.376   5.552   4.690 -0.5105  0.0544  1.0103
11527TIP3    H255997   1.373   5.695   4.640  0.2730 -0.5267 -0.7597
11528TIP3   OH255998   5.540   3.743   4.785 -0.0600 -0.5584 -0.3585
11528TIP3    H155999   5.551   3.682   4.858  2.2178  1.2262  0.8417
11528TIP3    H256000   5.606   3.716   4.721  1.0107  0.6617  0.2112
11529TIP3   OH256001   3.433   1.016   0.923  0.1062  0.1217 -0.3161
11529TIP3    H156002   3.475   1.065   0.852  1.1204 -0.1338  0.0987
11529TIP3    H256003   3.492   0.943   0.940  0.7209  1.0835  1.8976
11530TIP3   OH256004   3.487   1.012  16.638  0.1306 -0.0218  0.1867
11530TIP3    H156005   3.435   0.992  16.560 -0.8274 -0.5505  0.9481
11530TIP3    H256006   3.501   0.926  16.680 -0.3518  0.3807  1.1992
11531TIP3   OH256007   6.113   5.599  13.396 -0.4359  0.2087  0.4812
11531TIP3    H156008   6.170   5.527  13.423 -1.8157 -0.9138  0.4660
11531TIP3    H256009   6.119   5.600  13.301 -1.1710 -0.5550  0.4123
11532TIP3   OH256010   6.102   5.686   2.999 -0.1598  0.4447  0.4340
11532TIP3    H156011   6.096   5.594   2.976  0.3371  0.7693 -1.0339
11532TIP3    H256012   6.013   5.719   2.989 -0.2263  0.2611  0.4148
11533TIP3   OH256013   4.322   5.273  13.366  0.2553 -0.1257 -0.5584
11533TIP3    H156014   4.270   5.224  13.430  2.4449 -1.4247  0.2703
11533TIP3    H256015   4.296   5.238  13.281  1.9146 -2.9129  0.0382
11534TIP3   OH256016   2.592   1.044  15.958  0.2175 -0.4521  0.3010
11534TIP3    H156017   2.549   1.093  15.888  0.3072  0.6539  0.9998
11534TIP3    H256018   2.655   1.106  15.995 -1.7535 -0.0349  3.1673
11535TIP3   OH256019   5.792   4.136  13.001  0.1761 -0.0851  0.4423
11535TIP3    H156020   5.796   4.061  12.943 -2.5312 -1.9925  2.5771
11535TIP3    H256021   5.830   4.105  13.084  1.1477  1.6246  0.6774
11536TIP3   OH256022   0.902   5.898  12.880  0.2817  0.5099 -0.3535
11536TIP3    H156023   0.883   5.900  12.786  0.2477 -0.5209 -0.3702
11536TIP3    H256024   0.879   5.986  12.910  1.0389  1.0914 -1.4489
11537TIP3   OH256025   5.125   6.538  12.736 -0.0363  0.2777  0.0973
11537TIP3    H156026   5.115   6.453  12.779 -0.5425 -0.2467 -1.0310
11537TIP3    H256027   5.215   6.539  12.704 -0.2868 -0.1812 -0.6204
11538TIP3   OH256028   4.077   0.396   0.062 -0.7066  0.6137 -0.0109
11538TIP3    H156029   4.012   0.463   0.086 -0.8588  0.3059  0.4359
11538TIP3    H256030   4.056   0.321   0.118  0.6184  0.8329  0.7986
11539TIP3   OH256031   5.045   2.958  14.718  0.3363  0.1794 -0.0862
11539TIP3    H156032   5.058   2.866  14.741 -0.9445  0.4936  2.0616
11539TIP3    H256033   5.102   3.006  14.777  1.8199  0.7500 -1.9315
11540TIP3   OH256034   0.062   3.171   5.945  0.5764 -0.0217  0.2935
11540TIP3    H156035   0.039   3.144   6.034  0.0669 -0.3484  0.0624
11540TIP3    H256036   0.046   3.093   5.892 -2.0600  1.0550 -0.5731
11541TIP3   OH256037   2.557   6.436  14.722  0.0477  0.2334  0.0918
11541TIP3    H156038   2.553   6.373  14.793  0.7980  0.4699  0.3508
11541TIP3    H256039   2.472   6.480  14.724  0.4135  0.9040  1.4609
11542TIP3   OH256040   4.418   4.009   3.638 -0.4087 -0.4908 -0.0759
11542TIP3    H156041   4.470   4.051   3.706  1.4357 -0.5460 -1.4260
11542TIP3    H256042   4.391   3.925   3.676 -1.4673  0.5236  1.4650
11543TIP3   OH256043   4.770   6.096   1.218  0.4800 -0.4299 -0.1794
11543TIP3    H156044   4.819   6.120   1.298  0.6852  0.8741 -0.6806
11543TIP3    H256045   4.731   6.178   1.189  0.0657 -0.9873 -1.2069
11544TIP3   OH256046   3.101   4.414  12.678 -0.1037 -0.4584 -0.2926
11544TIP3    H156047   3.195   4.393  12.676 -0.0037 -0.2587  1.4554
11544TIP3    H256048   3.096   4.501  12.638  0.2966 -1.0240 -1.5737
11545TIP3   OH256049   3.289   0.232   1.430  0.0241 -0.0529  0.7853
11545TIP3    H156050   3.275   0.321   1.464  3.8602 -0.3352  3.4206
11545TIP3    H256051   3.368   0.240   1.376 -0.0071 -1.7163  0.4867
11546TIP3   OH256052   3.895   2.975  10.755 -0.3839 -0.1077 -0.3553
11546TIP3    H156053   3.952   3.052  10.756 -0.0184 -0.3755 -0.5453
11546TIP3    H256054   3.807   3.011  10.769 -0.1921  0.3234 -0.2367
11547TIP3   OH256055   2.327   4.966  16.940 -0.2898  0.4025  0.1118
11547TIP3    H156056   2.302   4.880  16.905  1.4827  0.5172 -1.5091
11547TIP3    H256057   2.250   4.995  16.989 -1.5857 -1.2996 -0.8494
11548TIP3   OH256058   6.203   1.326  13.993  0.1148 -0.4188  0.1642
11548TIP3    H156059   6.173   1.256  14.050 -1.2850 -0.2529 -0.3617
11548TIP3    H256060   6.136   1.393  13.999  0.4360  0.0176 -0.9144
11549TIP3   OH256061   0.532   1.174  13.165  0.3499 -0.0715 -1.0157
11549TIP3    H156062   0.578   1.258  13.172  0.0575 -0.0886  1.5644
11549TIP3    H256063   0.476   1.171  13.243  0.9069 -2.9691 -0.6999
11550TIP3   OH256064   6.683   2.570  17.047 -0.0639 -0.2491 -0.0988
11550TIP3    H156065   6.691   2.616  16.963  0.6061 -1.8190 -0.9062
11550TIP3    H256066   6.701   2.479  17.026 -0.2845 -0.7104  1.6946
11551TIP3   OH256067   3.531   4.459  11.851  0.7809  0.1699  0.1894
11551TIP3    H156068   3.515   4.394  11.919  2.4039 -1.0446 -0.5481
11551TIP3    H256069   3.446   4.472  11.810 -0.1214  0.5557  2.1124
11552TIP3   OH256070   2.981   5.034   1.994  0.7482  0.5693 -0.3125
11552TIP3    H156071   2.982   5.103   1.928  2.2845  1.7563  0.8898
11552TIP3    H256072   2.925   5.069   2.064  1.2476  0.4833  0.1409
11553TIP3   OH256073   4.404   4.575  15.639  0.4545 -0.1513  0.2642
11553TIP3    H156074   4.337   4.508  15.623  0.7173 -0.1809 -0.7835
11553TIP3    H256075   4.355   4.652  15.667 -0.0372 -0.1123 -0.6905
11554TIP3   OH256076   2.936   3.989  12.558  0.4135 -0.0822  0.2885
11554TIP3    H156077   2.841   3.978  12.553  0.3695 -0.4232  1.6700
11554TIP3    H256078   2.948   4.084  12.567  0.2147 -0.0249 -0.0354
11555TIP3   OH256079   6.251   4.095   1.343 -0.0280 -0.3499 -0.4043
11555TIP3    H156080   6.190   4.168   1.351  1.2200  0.7694 -0.9632
11555TIP3    H256081   6.337   4.134   1.354  0.7089 -1.6011 -1.6145
11556TIP3   OH256082   2.476   4.752  15.306  0.1664  0.2473  0.5860
11556TIP3    H156083   2.525   4.684  15.351  1.3147  0.5675 -0.1727
11556TIP3    H256084   2.456   4.715  15.220 -0.2740  0.3954  0.6258
11557TIP3   OH256085   3.358   3.965   0.655  0.2050 -0.3746  0.2607
11557TIP3    H156086   3.310   3.979   0.573 -2.1466 -0.1472  1.6322
11557TIP3    H256087   3.422   3.897   0.634  1.3441  1.4285 -2.4094
11558TIP3   OH256088   1.317   5.547   3.305 -0.3383 -1.1665  0.0087
11558TIP3    H156089   1.358   5.556   3.219 -1.5526 -2.2513 -0.7097
11558TIP3    H256090   1.277   5.460   3.303 -0.8247 -0.9865  1.4845
11559TIP3   OH256091   2.082   6.375  11.481  0.4973  0.4465 -0.1439
11559TIP3    H156092   2.133   6.453  11.505 -0.1618  1.0054 -0.5234
11559TIP3    H256093   2.148   6.312  11.452  1.0804  0.6846  0.6407
11560TIP3   OH256094   0.837   6.039   5.668 -0.1583 -0.1192 -0.2354
11560TIP3    H156095   0.828   6.091   5.748 -0.2017 -1.0935  0.3927
11560TIP3    H256096   0.890   6.094   5.610  2.4066 -0.6377  1.5411
11561TIP3   OH256097   2.662   6.469  13.721 -0.6319 -0.0435 -0.1885
11561TIP3    H156098   2.742   6.470  13.668 -0.1941  2.6319  0.4641
11561TIP3    H256099   2.607   6.537  13.682 -1.3919  0.1163  1.1423
11562TIP3   OH256100   2.723   5.169   0.570 -0.0197  0.0059  0.4551
11562TIP3    H156101   2.642   5.118   0.572 -0.0849  0.0942  0.0195
11562TIP3    H256102   2.694   5.260   0.563  0.1014  0.0893  1.0122
11563TIP3   OH256103   6.385   0.863   6.630 -0.2255  0.1062 -0.2990
11563TIP3    H156104   6.471   0.824   6.616  0.0493  0.5443  0.1597
11563TIP3    H256105   6.399   0.929   6.698 -0.6886  0.9980 -1.0533
11564TIP3   OH256106   4.785   5.062  14.879 -0.4608 -0.1464 -0.2257
11564TIP3    H156107   4.715   5.037  14.818 -1.5981  2.6411 -0.1532
11564TIP3    H256108   4.763   5.016  14.960 -0.7432 -1.3240 -0.9520
11565TIP3   OH256109   4.472   0.151  16.056 -0.6080 -0.0336  0.2923
11565TIP3    H156110   4.453   0.230  16.005 -1.5591 -1.3515 -1.4730
11565TIP3    H256111   4.564   0.161  16.082  1.1947 -0.9526 -4.9355
11566TIP3   OH256112   2.034   5.754  12.601 -0.2684 -0.2340 -0.0241
11566TIP3    H156113   1.972   5.682  12.588 -0.3522  0.2385 -2.3604
11566TIP3    H256114   1.995   5.806  12.672 -1.7360 -0.8221 -0.3884
11567TIP3   OH256115   2.190   4.977  16.313  0.5948  0.0699 -0.6653
11567TIP3    H156116   2.174   4.894  16.358  0.4533  0.1056 -0.6470
11567TIP3    H256117   2.275   4.966  16.271  1.4586  0.6005  0.9018
11568TIP3   OH256118   1.983   5.356   3.713 -0.0337  0.0043 -0.0561
11568TIP3    H156119   1.906   5.341   3.768  1.2925 -2.4685  1.2167
11568TIP3    H256120   2.052   5.381   3.774  2.1527 -5.2556 -0.0883
11569TIP3   OH256121   5.159   0.741  14.021 -0.3785 -0.3062 -0.2580
11569TIP3    H156122   5.157   0.704  13.932 -1.5276 -0.1030 -0.3140
11569TIP3    H256123   5.138   0.833  14.009 -3.7806 -0.9137  0.5500
11570TIP3   OH256124   5.119   4.337   5.053 -0.0046  0.0659  0.5330
11570TIP3    H156125   5.164   4.346   5.137 -1.3290 -0.6687  1.3415
11570TIP3    H256126   5.113   4.427   5.019  1.6510  0.2111  0.6277
11571TIP3   OH256127   0.565   0.134   0.579 -0.0831 -0.5844  0.4590
11571TIP3    H156128   0.533   0.213   0.535 -1.8334 -1.1010  0.7546
11571TIP3    H256129   0.658   0.149   0.590 -0.0187  0.5663 -1.3316
11572TIP3   OH256130   3.023   1.648  14.905 -0.2760 -0.1925 -0.0906
11572TIP3    H156131   3.086   1.642  14.834  0.7062 -0.1057  0.7608
11572TIP3    H256132   3.028   1.740  14.934 -0.6876 -0.2189  0.0720
11573TIP3   OH256133   4.962   1.095   5.778 -0.5273 -1.0889  0.0553
11573TIP3    H156134   5.012   1.085   5.859 -0.4842  3.0348  0.6696
11573TIP3    H256135   4.875   1.123   5.807 -0.4971  0.4572 -1.2583
11574TIP3   OH256136   3.691   0.516  11.284 -0.3413 -0.1843 -0.2007
11574TIP3    H156137   3.671   0.459  11.358  1.5295 -1.9945 -1.0298
11574TIP3    H256138   3.605   0.543  11.251 -1.3208 -2.9306 -0.0532
11575TIP3   OH256139   3.445   2.179   2.460 -0.6103  0.3593 -0.4121
11575TIP3    H156140   3.477   2.214   2.543 -1.0063  1.2598 -0.6315
11575TIP3    H256141   3.495   2.226   2.393 -1.5467  0.9383 -0.7253
11576TIP3   OH256142   5.029   5.667  12.684  0.3640  0.5549  0.2639
11576TIP3    H156143   5.018   5.622  12.767  0.1019  0.8627  0.3989
11576TIP3    H256144   5.015   5.599  12.618  0.2194  0.3867  0.4677
11577TIP3   OH256145   1.925   2.606  11.091 -0.0046  0.0122 -0.1610
11577TIP3    H156146   1.846   2.606  11.037 -0.5848  0.0553  0.6867
11577TIP3    H256147   1.978   2.678  11.055 -0.0723 -0.4067 -1.1132
11578TIP3   OH256148   5.541   6.239  15.029 -0.1366  0.2472 -0.0582
11578TIP3    H156149   5.568   6.320  14.987 -1.3056  0.8450  0.3108
11578TIP3    H256150   5.471   6.205  14.973 -0.1222 -0.1399  0.1595
11579TIP3   OH256151   6.088   1.607  13.245 -1.0870  0.0240  0.0231
11579TIP3    H156152   6.170   1.559  13.257 -0.8165  0.3205 -0.6025
11579TIP3    H256153   6.034   1.581  13.319  0.1115  0.9470  1.2391
11580TIP3   OH256154   2.453   5.306   3.599  0.0976 -0.4005 -0.4565
11580TIP3    H156155   2.396   5.247   3.649 -1.3659  1.1380 -0.2521
11580TIP3    H256156   2.463   5.263   3.514  0.2688 -1.6516  0.1752
11581TIP3   OH256157   6.597   3.586  16.934  0.0552  0.3198 -0.7505
11581TIP3    H156158   6.593   3.565  16.841  1.8883  0.5316 -0.9010
11581TIP3    H256159   6.506   3.598  16.960 -0.5865 -1.4557 -2.1067
11582TIP3   OH256160   0.568   3.120  17.131 -0.1185 -0.2696 -0.5374
11582TIP3    H156161   0.654   3.159  17.114  0.2724 -0.5382  0.7184
11582TIP3    H256162   0.506   3.180  17.091  0.5378  1.0667  0.3950
11583TIP3   OH256163   6.329   5.549  14.054  0.3015  0.0167  0.3759
11583TIP3    H156164   6.241   5.513  14.065  0.5688 -0.2645  1.6393
11583TIP3    H256165   6.373   5.531  14.136  1.3699  0.6661 -0.0396
11584TIP3   OH256166   1.940   3.483  13.236  0.2207 -0.2301  0.2825
11584TIP3    H156167   1.971   3.476  13.326  3.4497 -1.9044 -0.8936
11584TIP3    H256168   1.859   3.534  13.243  0.1974 -0.6232  4.1401
11585TIP3   OH256169   5.636   3.492   2.291  0.2498  0.0008  0.3565
11585TIP3    H156170   5.574   3.564   2.283 -1.4572 -1.7146 -3.0271
11585TIP3    H256171   5.717   3.532   2.322 -1.0550  3.1330 -0.1936
11586TIP3   OH256172   2.775   2.431  13.582 -0.3406 -0.1959  0.6902
11586TIP3    H156173   2.743   2.409  13.670  0.7957 -1.4563  0.8092
11586TIP3    H256174   2.845   2.368  13.566 -0.9892 -0.4249 -1.4115
11587TIP3   OH256175   3.236   6.414   5.667  0.3860  0.1596 -0.5405
11587TIP3    H156176   3.218   6.321   5.652  0.2041  0.2790 -1.0862
11587TIP3    H256177   3.150   6.454   5.679  0.4949  0.1788  0.1675
11588TIP3   OH256178   3.063   3.823   1.457 -0.0610  0.0162 -0.3440
11588TIP3    H156179   3.145   3.862   1.425 -0.6763  0.7216 -1.1072
11588TIP3    H256180   3.017   3.896   1.499 -0.4173 -0.3096 -0.1697
11589TIP3   OH256181   5.606   0.674   1.662  0.2094  0.2612  0.3631
11589TIP3    H156182   5.635   0.673   1.571  1.4998 -0.0892  0.7635
11589TIP3    H256183   5.687   0.685   1.713 -0.3195 -1.0957  1.5371
11590TIP3   OH256184   3.780   1.027   2.436  0.0711 -0.0234 -0.2171
11590TIP3    H156185   3.729   1.080   2.497 -1.0254  0.5858 -1.6316
11590TIP3    H256186   3.787   0.942   2.478 -0.5964  0.4171  0.8030
11591TIP3   OH256187   5.654   6.303   3.989  0.3272 -0.8095  0.2034
11591TIP3    H156188   5.580   6.344   4.034  0.3508 -2.7237  2.0618
11591TIP3    H256189   5.728   6.361   4.006  0.3852 -1.6148  2.8694
11592TIP3   OH256190   0.007   0.362   0.558 -0.0438 -0.0143  0.3069
11592TIP3    H156191  -0.026   0.422   0.491 -0.0305  0.4210  0.6918
11592TIP3    H256192  -0.067   0.304   0.576 -0.0773 -0.0743 -0.0152
11593TIP3   OH256193   1.097   6.467   3.570  0.1469 -0.0594  0.1415
11593TIP3    H156194   1.172   6.418   3.601  2.2696  3.1563  0.3133
11593TIP3    H256195   1.062   6.509   3.649  0.1732  1.0672 -0.4455
11594TIP3   OH256196   2.813   5.848  14.835  0.2857 -0.4964  0.2168
11594TIP3    H156197   2.725   5.863  14.801 -0.3879  0.9882  2.4942
11594TIP3    H256198   2.862   5.813  14.761 -1.7519  0.3111 -1.5563
11595TIP3   OH256199   2.358   0.913   5.590 -0.1947  0.2344 -0.0244
11595TIP3    H156200   2.408   0.940   5.513 -1.0711 -0.1404 -0.7248
11595TIP3    H256201   2.296   0.985   5.604 -1.2285 -0.5095 -0.7367
11596TIP3   OH256202   6.645   5.941  16.844  0.1296 -0.1484 -0.1723
11596TIP3    H156203   6.671   5.964  16.933  1.2094  1.3548 -0.8428
11596TIP3    H256204   6.560   5.900  16.854 -0.8963  2.2148  1.3419
11597TIP3   OH256205   2.185   3.466   2.298 -0.4638 -0.0632  0.0831
11597TIP3    H156206   2.129   3.518   2.240 -0.1455  0.5669  0.3336
11597TIP3    H256207   2.146   3.379   2.298 -0.6070 -0.0022 -0.8910
11598TIP3   OH256208   2.637   5.697  15.511 -0.1328  0.4098  0.4057
11598TIP3    H156209   2.603   5.658  15.431 -1.2002  0.2911  0.9161
11598TIP3    H256210   2.701   5.633  15.543  1.2084  1.0204 -1.0017
11599TIP3   OH256211   6.636   1.281  16.135 -0.1455 -0.0086 -0.1205
11599TIP3    H156212   6.569   1.277  16.202 -0.8764 -1.2485 -0.9164
11599TIP3    H256213   6.700   1.344  16.169  1.4957 -3.4400  3.5089
11600TIP3   OH256214   0.503   2.255   6.083  0.4947 -0.0229  0.4392
11600TIP3    H156215   0.567   2.290   6.144  0.9867 -0.6868  0.3186
11600TIP3    H256216   0.449   2.330   6.057  1.3938  0.5865  0.3383
11601TIP3   OH256217   3.111   2.637  13.251 -0.1712  0.2428  0.9672
11601TIP3    H156218   3.079   2.689  13.324 -0.7293  1.9508 -0.4781
11601TIP3    H256219   3.203   2.663  13.241 -0.0991  0.0228  1.0508
11602TIP3   OH256220   3.387   4.839  10.751 -0.3321 -0.6783 -0.0745
11602TIP3    H156221   3.315   4.779  10.770  1.5996 -3.0507 -0.0176
11602TIP3    H256222   3.449   4.787  10.700  1.3353  1.3239 -0.1553
11603TIP3   OH256223   1.666   4.856  11.013  0.2848  0.4140 -0.3166
11603TIP3    H156224   1.711   4.829  10.934 -1.3356  3.1705 -2.2773
11603TIP3    H256225   1.736   4.874  11.076  1.5854 -1.8596 -1.0499
11604TIP3   OH256226   3.103   2.108   1.314 -0.1259 -0.4100  0.1258
11604TIP3    H156227   3.107   2.064   1.399 -0.4957 -2.0459 -0.6733
11604TIP3    H256228   3.120   2.200   1.333 -2.4687 -0.3681  2.2984
11605TIP3   OH256229   4.930   6.634  14.527 -0.0568 -0.1669 -0.5343
11605TIP3    H156230   4.919   6.585  14.609 -2.0323 -0.7553 -1.1182
11605TIP3    H256231   4.857   6.697  14.527  0.3003  0.2578 -1.5519
11606TIP3   OH256232   1.449   6.086  15.606 -0.8303  0.0078  0.5233
11606TIP3    H156233   1.475   6.114  15.694 -1.1301 -0.2311  0.6871
11606TIP3    H256234   1.529   6.093  15.554 -0.5505 -0.2702  0.9156
11607TIP3   OH256235   3.581   2.488   5.298  0.0329  0.3867 -0.2220
11607TIP3    H156236   3.525   2.415   5.271  0.6688  0.3802 -1.5916
11607TIP3    H256237   3.538   2.566   5.263  0.3734  0.4721 -0.4557
11608TIP3   OH256238   6.049   5.558  15.935 -0.0598 -0.0398  0.4266
11608TIP3    H156239   6.067   5.644  15.896  1.5033 -0.3143  0.5106
11608TIP3    H256240   6.016   5.579  16.023  0.3839  0.4768  0.4746
11609TIP3   OH256241   4.659   3.822  11.583 -0.0632 -0.1643  0.0182
11609TIP3    H156242   4.583   3.765  11.584 -0.0526 -0.2627 -2.2871
11609TIP3    H256243   4.635   3.895  11.526  0.8134  0.9066  0.9625
11610TIP3   OH256244   6.382   4.009   0.768 -0.0730  0.2698  0.3916
11610TIP3    H156245   6.466   4.021   0.723 -0.8927 -1.2759 -1.6582
11610TIP3    H256246   6.364   4.094   0.809  1.1065  1.5068 -1.5758
11611TIP3   OH256247   4.191   2.364  17.084 -0.0088  0.5349  0.0946
11611TIP3    H156248   4.178   2.375  17.178  0.2204 -3.2872  0.6202
11611TIP3    H256249   4.170   2.273  17.067 -0.6069  1.2880 -3.6969
11612TIP3   OH256250   3.553   0.455  12.181 -0.2348 -0.0826 -0.1394
11612TIP3    H156251   3.593   0.370  12.160  1.2591  0.5632  0.0065
11612TIP3    H256252   3.497   0.474  12.106  0.3684 -0.6342 -0.7423
11613TIP3   OH256253   1.054   3.055  16.821  0.2682 -0.1672 -0.3868
11613TIP3    H156254   1.027   2.963  16.823  1.1248 -0.4050  1.7459
11613TIP3    H256255   1.149   3.052  16.826  0.1964  0.8510  2.8967
11614TIP3   OH256256   5.999   0.138   1.740 -0.2633 -0.1564  0.5925
11614TIP3    H156257   6.079   0.104   1.779 -0.9519 -2.1907  0.2518
11614TIP3    H256258   5.938   0.145   1.813  0.2761  1.6103  0.8934
11615TIP3   OH256259   0.095   6.690   5.116 -0.2714  0.1259  0.0148
11615TIP3    H156260   0.058   6.618   5.166  0.7659  0.4176  1.2110
11615TIP3    H256261   0.190   6.681   5.126 -0.1451  2.2861  1.1406
11616TIP3   OH256262   6.313   0.876  16.191 -0.3584 -0.3289 -0.1552
11616TIP3    H156263   6.357   0.952  16.153 -1.2867 -0.8202 -2.2423
11616TIP3    H256264   6.374   0.804  16.180 -0.7473 -0.5320 -0.9673
11617TIP3   OH256265   1.809   4.780   1.507  0.1133 -0.5734  0.2117
11617TIP3    H156266   1.794   4.827   1.588 -0.1171 -0.5905  0.1780
11617TIP3    H256267   1.722   4.751   1.479  0.3522 -1.9148  0.7795
11618TIP3   OH256268   2.447   5.906   3.092 -0.6115  0.0393 -0.1928
11618TIP3    H156269   2.482   5.839   3.150  0.4038 -0.6809 -1.6021
11618TIP3    H256270   2.513   5.975   3.094 -1.3547  0.7406  0.7630
11619TIP3   OH256271   0.223   1.753   0.904  0.2214  0.2017  0.0428
11619TIP3    H156272   0.137   1.726   0.937 -0.0169  0.5991 -0.2562
11619TIP3    H256273   0.282   1.738   0.978  0.0038 -0.6496  0.0532
11620TIP3   OH256274   2.697   4.775   1.118 -0.2102  0.1302 -0.0544
11620TIP3    H156275   2.612   4.765   1.076  0.2171 -0.0821 -0.8950
11620TIP3    H256276   2.754   4.715   1.070 -0.0047 -1.0815  1.7052
11621TIP3   OH256277   3.644   3.118  16.150  0.4841  0.1594 -0.1428
11621TIP3    H156278   3.677   3.029  16.149 -3.4106 -1.3615 -0.3386
11621TIP3    H256279   3.639   3.143  16.058 -1.2824 -0.5843 -0.2708
11622TIP3   OH256280   2.747   1.306   6.131  0.6494 -0.3267 -0.3103
11622TIP3    H156281   2.700   1.363   6.069  2.9739  0.9726 -0.9196
11622TIP3    H256282   2.707   1.325   6.216 -2.6018 -2.1514 -1.3567
11623TIP3   OH256283   2.388   0.953   4.378  0.1818 -0.3696 -0.6535
11623TIP3    H156284   2.381   0.916   4.466  0.6405  1.8162  0.3323
11623TIP3    H256285   2.480   0.982   4.372 -0.2064  0.7374 -1.3202
11624TIP3   OH256286   0.327   0.484   1.673 -0.0185 -0.2088  0.1628
11624TIP3    H156287   0.262   0.539   1.717  0.7189  0.0178  0.9885
11624TIP3    H256288   0.410   0.505   1.718  0.9488  0.8237 -2.0401
11625TIP3   OH256289   4.215   5.582   0.741 -0.2510 -0.8221 -0.2587
11625TIP3    H156290   4.150   5.519   0.710  0.8132 -1.5516 -1.0586
11625TIP3    H256291   4.298   5.549   0.706  0.7857 -0.8466  2.1608
11626TIP3   OH256292   5.560   2.556   2.101  0.2501  0.9460 -0.9304
11626TIP3    H156293   5.594   2.532   2.015  0.8839  1.2017 -0.7543
11626TIP3    H256294   5.483   2.500   2.113  2.4412 -2.0432  0.0425
11627TIP3   OH256295   5.173   4.909   1.942  0.0119 -0.8283  0.4245
11627TIP3    H156296   5.129   4.828   1.967  0.8524 -0.6483  2.6725
11627TIP3    H256297   5.224   4.933   2.020  2.1409  0.2512 -1.2367
11628TIP3   OH256298   2.714   6.728   4.812 -0.1347 -0.1744  0.1977
11628TIP3    H156299   2.749   6.803   4.860 -0.2797 -0.1610  0.2817
11628TIP3    H256300   2.771   6.720   4.736 -1.1550  1.0681 -0.7023
11629TIP3   OH256301   0.925   0.028  15.242 -0.3335 -0.4966 -0.8755
11629TIP3    H156302   0.962   0.102  15.290 -0.1778 -0.0552 -1.6789
11629TIP3    H256303   0.964   0.034  15.155 -0.3018 -1.5331 -0.9377
11630TIP3   OH256304   0.715   2.423  16.846 -0.5047  0.2845  0.1922
11630TIP3    H156305   0.726   2.502  16.793  1.4900  0.3340  0.6398
11630TIP3    H256306   0.737   2.451  16.935  0.4095 -0.7980  0.3235
11631TIP3   OH256307   0.441   5.777  11.096 -0.4520  0.0881 -0.3242
11631TIP3    H156308   0.446   5.745  11.006 -0.3110  1.4398 -0.8114
11631TIP3    H256309   0.504   5.724  11.144 -0.9233 -1.0054 -0.9090
11632TIP3   OH256310   2.025   3.068   4.074 -0.2425 -0.0607 -0.1252
11632TIP3    H156311   2.036   3.158   4.042 -2.7759  0.1701 -0.4924
11632TIP3    H256312   1.985   3.079   4.160  0.4237 -0.8112  0.2752
11633TIP3   OH256313   3.351   0.599   2.134 -0.0925 -0.2591 -0.4382
11633TIP3    H156314   3.327   0.583   2.042 -0.4554 -0.0910 -0.3728
11633TIP3    H256315   3.446   0.584   2.136 -0.2192 -1.1637 -0.6489
11634TIP3   OH256316   1.833   6.276   3.627  0.1021  0.4380  0.1975
11634TIP3    H156317   1.862   6.289   3.537  1.9736  0.2657  0.7395
11634TIP3    H256318   1.830   6.365   3.664  1.5338  0.3499  0.5803
11635TIP3   OH256319   4.403   3.297   3.600 -0.0623 -0.1839 -0.2935
11635TIP3    H156320   4.347   3.254   3.665  0.0525  2.0422  1.3270
11635TIP3    H256321   4.471   3.233   3.582 -1.6270 -1.8929 -0.2770
11636TIP3   OH256322   0.288   6.044  12.481 -0.0437 -0.7943  0.5335
11636TIP3    H156323   0.295   6.120  12.424 -1.2127 -0.3957  0.9060
11636TIP3    H256324   0.202   6.054  12.523  0.3303 -1.6665  1.5072
11637TIP3   OH256325   0.192   3.788   0.443 -0.4437  0.2661  0.4884
11637TIP3    H156326   0.271   3.836   0.469  0.0580  0.6181 -1.5609
11637TIP3    H256327   0.122   3.826   0.496  0.2821  1.9016  0.3215
11638TIP3   OH256328   0.117   3.907   6.237 -0.0314 -0.0468 -0.2975
11638TIP3    H156329   0.189   3.891   6.297 -0.9866  0.9442  1.1406
11638TIP3    H256330   0.084   3.994   6.261 -2.3252 -0.8832 -0.2640
11639TIP3   OH256331   4.466   4.762  12.751  0.0712 -0.3442 -0.8746
11639TIP3    H156332   4.389   4.801  12.793 -0.5182  0.4881 -2.6836
11639TIP3    H256333   4.431   4.689  12.699  0.4607  0.1983 -1.9079
11640TIP3   OH256334   2.257   2.765   0.641  0.3504  0.7110 -0.8204
11640TIP3    H156335   2.346   2.729   0.642 -0.0475 -0.2761  0.4192
11640TIP3    H256336   2.265   2.850   0.685  0.9943  1.4201 -2.2866
11641TIP3   OH256337   0.517   3.585  10.993 -0.5265 -0.0258  0.3405
11641TIP3    H156338   0.539   3.499  10.958 -1.7176  0.3648 -1.4193
11641TIP3    H256339   0.424   3.580  11.014 -0.4463  0.6145  0.8923
11642TIP3   OH256340   2.467   2.556   0.603 -0.2482  0.0602 -0.0898
11642TIP3    H156341   2.527   2.497   0.648 -0.2074  1.6883  2.0635
11642TIP3    H256342   2.409   2.498   0.554  2.0748 -1.5898 -0.9563
11643TIP3   OH256343   3.080   2.177   4.760  0.5118 -0.4798 -0.2042
11643TIP3    H156344   3.065   2.153   4.669 -0.6904  0.8022 -0.3589
11643TIP3    H256345   3.167   2.143   4.780  0.2609 -1.8843 -1.4368
11644TIP3   OH256346   2.149   1.769   5.252 -0.0277 -0.1511 -0.5561
11644TIP3    H156347   2.122   1.795   5.340  1.7462 -1.9701  0.5550
11644TIP3    H256348   2.073   1.724   5.216 -0.6346  0.2812  0.1646
11645TIP3   OH256349   4.816   3.548   2.605 -0.1580 -0.8178 -0.6709
11645TIP3    H156350   4.741   3.503   2.645  0.4281 -2.2973 -1.2083
11645TIP3    H256351   4.886   3.483   2.605  1.5415  0.9394  0.9783
11646TIP3   OH256352   5.053   0.731  13.274  0.2049  0.3416 -0.4171
11646TIP3    H156353   5.130   0.775  13.311  0.8161 -0.8719 -0.2345
11646TIP3    H256354   5.001   0.802  13.237  0.4903  1.3880  1.1343
11647TIP3   OH256355   0.980   3.531   0.384  0.2931 -0.3462 -0.2421
11647TIP3    H156356   0.902   3.580   0.357  0.2517  0.3200  1.0434
11647TIP3    H256357   0.948   3.468   0.448  0.7679 -0.2316  0.1136
11648TIP3   OH256358   3.686   3.788  17.206 -0.1396 -0.0851 -0.2484
11648TIP3    H156359   3.676   3.845  17.130 -1.0261 -0.1521 -0.1880
11648TIP3    H256360   3.730   3.842  17.271  1.7787 -0.4142 -1.2441
11649TIP3   OH256361   1.936   4.542  12.341  0.4575  0.5146  0.3259
11649TIP3    H156362   1.860   4.487  12.361 -0.0413  1.0736 -0.0382
11649TIP3    H256363   1.944   4.538  12.246  1.0214  0.2851  0.3760
11650TIP3   OH256364   4.809   5.363   0.018  0.2452 -0.6317 -0.4502
11650TIP3    H156365   4.758   5.282   0.015  1.8379 -1.6216 -2.2620
11650TIP3    H256366   4.759   5.422   0.074 -1.6197 -2.4184 -0.2100
11651TIP3   OH256367   5.111   0.556  15.201  0.2894  0.1820 -0.4777
11651TIP3    H156368   5.204   0.544  15.216  0.3015 -0.3421 -0.9907
11651TIP3    H256369   5.071   0.475  15.232 -0.0419  0.5644  0.1220
11652TIP3   OH256370   4.212   0.303   2.571 -0.0163 -0.7377  0.0963
11652TIP3    H156371   4.137   0.257   2.536  0.2987 -1.2630  0.1062
11652TIP3    H256372   4.181   0.343   2.652 -0.5168 -0.2234 -0.3507
11653TIP3   OH256373   5.964   0.430   0.154 -0.3537 -0.0072 -0.2604
11653TIP3    H156374   5.883   0.453   0.108 -0.4022  0.4929  0.0811
11653TIP3    H256375   5.935   0.381   0.231 -0.2088 -2.2425 -1.5558
11654TIP3   OH256376   0.238   2.956  14.464 -0.1665  0.0564  0.4208
11654TIP3    H156377   0.152   2.992  14.443 -0.2543 -0.8012 -0.7840
11654TIP3    H256378   0.219   2.879  14.518 -0.2338 -0.7652 -0.7479
11655TIP3   OH256379   4.620   2.401   2.699  0.0256 -0.5951 -0.3471
11655TIP3    H156380   4.574   2.319   2.681 -0.2546 -0.7017  0.8128
11655TIP3    H256381   4.587   2.462   2.633 -1.4022 -0.8209  0.1381
11656TIP3   OH256382   6.432   5.318   2.095 -0.4006 -0.3830 -0.1044
11656TIP3    H156383   6.337   5.317   2.087 -0.3199 -0.6880 -1.0514
11656TIP3    H256384   6.450   5.268   2.175 -1.0902  0.7276  0.7726
11657TIP3   OH256385   0.094   3.706  14.524  0.3766  0.0956  0.2212
11657TIP3    H156386   0.047   3.787  14.544 -0.6988 -0.3529 -0.4191
11657TIP3    H256387   0.043   3.637  14.568 -0.4991 -0.5801 -1.7539
11658TIP3   OH256388   3.897   2.615   1.271  0.2873 -0.1761  0.5922
11658TIP3    H156389   3.937   2.645   1.188  0.8889 -1.0559  0.5596
11658TIP3    H256390   3.836   2.685   1.294 -0.7158 -0.4203 -1.1773
11659TIP3   OH256391   6.168   4.638   2.948 -0.6796  0.1084 -0.6562
11659TIP3    H156392   6.103   4.630   2.878  0.0025  0.8241 -1.3776
11659TIP3    H256393   6.130   4.588   3.020 -1.0170 -1.3367 -1.7990
11660TIP3   OH256394   6.646   5.164  17.025  0.8175  0.8524 -0.3209
11660TIP3    H156395   6.687   5.081  17.049  0.9541  0.5841 -1.4504
11660TIP3    H256396   6.640   5.161  16.930 -1.4665  1.0491 -0.2116
11661TIP3   OH256397   4.700   5.171  11.843  0.3856  0.1852  0.1295
11661TIP3    H156398   4.636   5.123  11.790  0.0752  0.3636  0.3365
11661TIP3    H256399   4.708   5.256  11.801  1.6566 -0.3692 -0.7920
11662TIP3   OH256400   3.739   2.202  14.440  0.4163 -0.5561 -0.2256
11662TIP3    H156401   3.756   2.142  14.367 -1.8855  0.4787 -1.6834
11662TIP3    H256402   3.654   2.175  14.474 -0.2897  1.3365 -0.4007
11663TIP3   OH256403   3.216   5.780   2.117  0.0776  0.3226  0.4866
11663TIP3    H156404   3.153   5.782   2.045 -1.7539 -2.3610  1.9609
11663TIP3    H256405   3.167   5.747   2.192  2.4674  1.1159  2.4714
11664TIP3   OH256406   4.428   2.790   5.653  0.0517 -0.2859 -0.1325
11664TIP3    H156407   4.443   2.751   5.739 -0.0584 -0.3153 -0.1270
11664TIP3    H256408   4.492   2.861   5.648 -0.5926  0.3418  0.3728
11665TIP3   OH256409   5.858   3.192   4.828  0.2795 -0.3273  0.3421
11665TIP3    H156410   5.836   3.105   4.861  1.2447 -0.9549 -0.6540
11665TIP3    H256411   5.775   3.230   4.802 -0.1057 -1.0786  0.4689
11666TIP3   OH256412   3.797   3.147  14.924  0.1203  0.1848  0.0252
11666TIP3    H156413   3.786   3.179  14.834 -1.3104  1.2112  0.5519
11666TIP3    H256414   3.821   3.055  14.914  1.3637  0.6357 -1.4398
11667TIP3   OH256415   2.880   4.829   5.587  0.9111 -0.2749  0.5592
11667TIP3    H156416   2.885   4.917   5.550  0.8459 -0.8958 -0.9656
11667TIP3    H256417   2.969   4.796   5.581  1.1149  0.0022  1.9495
11668TIP3   OH256418   1.846   6.669  13.774 -0.5326 -0.2685  0.3946
11668TIP3    H156419   1.886   6.635  13.854  0.3662 -0.9168 -0.3162
11668TIP3    H256420   1.888   6.619  13.704 -2.5663 -0.9330 -0.3798
11669TIP3   OH256421   4.309   0.741   4.131  0.2462  0.3932 -0.0904
11669TIP3    H156422   4.216   0.721   4.118 -0.5795  2.3376  2.5043
11669TIP3    H256423   4.348   0.727   4.044 -2.6604  0.5937 -1.5107
11670TIP3   OH256424   0.421   4.888   1.565  0.4741  0.0481  0.5369
11670TIP3    H156425   0.410   4.962   1.506  2.0741 -0.6603 -0.7117
11670TIP3    H256426   0.427   4.927   1.652  1.8140  1.4393 -0.1628
11671TIP3   OH256427   4.177   5.699  13.154 -0.1351  0.3523  0.4476
11671TIP3    H156428   4.181   5.615  13.199 -1.1037 -1.0148 -1.9080
11671TIP3    H256429   4.261   5.708  13.109 -1.0477 -0.7238 -1.5580
11672TIP3   OH256430   2.955   1.175  11.684  0.0637  0.1821  0.2023
11672TIP3    H156431   2.897   1.221  11.623 -1.5910 -0.8878  0.9349
11672TIP3    H256432   2.938   1.215  11.769 -0.9984 -1.3788  0.7545
11673TIP3   OH256433   3.425   1.859   3.889  0.3021  0.3278  0.4751
11673TIP3    H156434   3.336   1.860   3.854  0.4164  0.2334  0.1779
11673TIP3    H256435   3.477   1.904   3.823  0.8568 -1.5536 -0.4040
11674TIP3   OH256436   2.956   5.002  15.853  0.4655  0.1660 -0.3881
11674TIP3    H156437   3.026   5.065  15.870  1.9475 -1.5061 -0.0926
11674TIP3    H256438   2.947   5.003  15.758 -1.7323  3.0995 -0.2093
11675TIP3   OH256439   5.138   3.352   1.668 -0.4177  0.1085 -0.4344
11675TIP3    H156440   5.120   3.421   1.732  0.1606 -0.5744  0.4722
11675TIP3    H256441   5.129   3.396   1.583  0.5247  1.4603  0.1348
11676TIP3   OH256442   4.595   4.339   4.856 -0.1001  0.0641  0.1483
11676TIP3    H156443   4.633   4.251   4.852  0.6743  0.3953  0.0271
11676TIP3    H256444   4.653   4.386   4.916 -0.3490  0.5653 -0.0109
11677TIP3   OH256445   6.387   2.460   0.569 -0.3346 -0.0438 -0.3848
11677TIP3    H156446   6.432   2.435   0.488  1.4933 -1.2988  0.9726
11677TIP3    H256447   6.298   2.482   0.541  0.8338  1.5406 -2.9927
11678TIP3   OH256448   1.846   3.887  15.053 -0.0126  0.6176 -0.6539
11678TIP3    H156449   1.853   3.792  15.068 -1.3787  0.6720  0.4271
11678TIP3    H256450   1.889   3.901  14.969  0.8175 -0.8647 -0.5114
11679TIP3   OH256451   3.685   6.670   6.052 -0.2454  0.4148 -0.2273
11679TIP3    H156452   3.680   6.583   6.012  0.0294  0.5393 -0.5406
11679TIP3    H256453   3.686   6.653   6.146  0.1083  0.0576 -0.2915
11680TIP3   OH256454   2.548   3.870   0.577  0.3055 -0.2957 -0.1638
11680TIP3    H156455   2.603   3.829   0.644 -1.1787  1.4920  2.2377
11680TIP3    H256456   2.477   3.807   0.563  1.6297 -1.5313 -1.5153
11681TIP3   OH256457   5.480   0.073   2.695  0.1290 -0.3216 -0.1908
11681TIP3    H156458   5.487   0.115   2.610 -2.4275  0.1817 -0.1860
11681TIP3    H256459   5.486  -0.021   2.676 -1.1273 -0.2429 -1.0102
11682TIP3   OH256460   3.742   6.257  16.588 -0.0281 -0.8217 -0.4641
11682TIP3    H156461   3.751   6.338  16.639 -0.4373 -1.0552 -0.0235
11682TIP3    H256462   3.653   6.227  16.605 -0.4572 -0.4418 -1.9956
11683TIP3   OH256463   5.137   6.179   5.348 -0.4508  0.5731 -0.4391
11683TIP3    H156464   5.142   6.253   5.287 -2.0831 -0.3281 -1.7208
11683TIP3    H256465   5.061   6.198   5.403  0.6158  1.0512  0.8911
11684TIP3   OH256466   2.827   4.606  11.293 -0.3964  0.1713 -0.0872
11684TIP3    H156467   2.887   4.659  11.345 -0.1053 -1.0128  0.8193
11684TIP3    H256468   2.820   4.651  11.209  0.1595  1.4027  0.5257
11685TIP3   OH256469   0.635   6.238  11.597 -0.5030 -0.4289 -0.3993
11685TIP3    H156470   0.702   6.184  11.555 -0.0508  0.5790 -0.9971
11685TIP3    H256471   0.662   6.242  11.689 -0.5860 -1.2771 -0.3312
11686TIP3   OH256472   3.847   4.403   4.354 -0.2855  0.1207 -0.1314
11686TIP3    H156473   3.792   4.456   4.296  0.1320 -0.2366 -0.8633
11686TIP3    H256474   3.784   4.354   4.408 -0.6624  1.6783  0.8538
11687TIP3   OH256475   0.950   6.039  16.016  0.8167  0.4287  0.3397
11687TIP3    H156476   0.928   5.998  15.933  1.4711  1.2635 -0.2563
11687TIP3    H256477   1.027   6.093  15.997  0.7187  0.9621  1.3868
11688TIP3   OH256478   2.835   5.596   2.605  0.1671  0.2206 -0.0627
11688TIP3    H156479   2.828   5.549   2.522  0.8526 -3.3034  1.7436
11688TIP3    H256480   2.851   5.687   2.581  0.2334 -0.7053 -3.7652
11689TIP3   OH256481   4.782   1.245  13.288 -0.0566 -0.2569  0.3719
11689TIP3    H156482   4.699   1.198  13.298 -0.0925 -0.1988  0.3480
11689TIP3    H256483   4.813   1.257  13.377 -0.7284  0.8910  0.4551
11690TIP3   OH256484   6.409   4.539   4.530 -0.4278  0.0868  0.3032
11690TIP3    H156485   6.449   4.625   4.516 -3.1618  1.2466 -0.7025
11690TIP3    H256486   6.354   4.550   4.607 -0.1230 -1.0180  0.6906
11691TIP3   OH256487   0.460   5.035   0.413  0.5438 -0.1857  0.3780
11691TIP3    H156488   0.414   5.075   0.339  0.0332 -1.3055  0.0824
11691TIP3    H256489   0.441   5.092   0.487  2.5768  2.0078 -0.7068
11692TIP3   OH256490   6.099   3.428   4.344 -0.3370 -0.3522 -0.0041
11692TIP3    H156491   6.032   3.378   4.297  0.8709 -0.8992 -1.1710
11692TIP3    H256492   6.049   3.487   4.401 -1.8247 -0.5584 -1.0597
11693TIP3   OH256493   5.676   4.543  11.249  0.1354  0.1851 -0.4121
11693TIP3    H156494   5.686   4.466  11.193  1.1158 -0.4804  0.6518
11693TIP3    H256495   5.710   4.615  11.196  2.3676 -0.6574 -0.1715
11694TIP3   OH256496   5.503   5.021  16.756 -0.2905 -0.0115  0.3064
11694TIP3    H156497   5.506   5.082  16.829 -0.0271 -0.1027  0.3718
11694TIP3    H256498   5.443   5.061  16.694  0.4514  0.6747  0.0263
11695TIP3   OH256499   5.893   2.979   1.086  0.5015  0.5398  0.1492
11695TIP3    H156500   5.981   2.943   1.100  0.8877  1.4506  0.1516
11695TIP3    H256501   5.892   3.004   0.994  0.7878  1.9089  0.4983
11696TIP3   OH256502   5.159   4.149   4.869  0.1962  0.3983 -0.3607
11696TIP3    H156503   5.216   4.089   4.917 -3.8495 -2.2858  1.3365
11696TIP3    H256504   5.134   4.214   4.935  0.0759  0.7072 -0.7125
11697TIP3   OH256505   2.782   6.109  11.794 -0.1550 -0.0090  0.1654
11697TIP3    H156506   2.848   6.146  11.736  1.6939 -3.5585 -0.0985
11697TIP3    H256507   2.743   6.185  11.837  1.1642  2.4212 -2.7799
11698TIP3   OH256508   3.970   5.483  11.649  0.6712  0.3041 -0.1765
11698TIP3    H156509   3.958   5.520  11.561  0.2412  1.1124  0.2237
11698TIP3    H256510   4.018   5.550  11.697  1.5322 -0.4331  0.0075
11699TIP3   OH256511   0.734   3.565  13.632  0.7565  0.0140  0.0419
11699TIP3    H156512   0.762   3.622  13.560  1.1437  0.1199  0.2719
11699TIP3    H256513   0.643   3.590  13.649  1.9449  3.1216  2.5166
11700TIP3   OH256514   6.751   3.867   3.665  0.3727  0.0607  0.0203
11700TIP3    H156515   6.656   3.867   3.651  0.2166  0.9715  1.0429
11700TIP3    H256516   6.785   3.918   3.591  0.0162  0.2327 -0.0298
11701TIP3   OH256517   4.244   4.894   5.075  0.6734 -0.2310 -0.3298
11701TIP3    H156518   4.226   4.838   5.000  0.4744 -1.2978  0.4966
11701TIP3    H256519   4.202   4.849   5.149 -1.6488  2.2680 -0.0588
11702TIP3   OH256520   2.341   2.075  15.008 -0.0118  0.5450 -0.0844
11702TIP3    H156521   2.348   2.103  15.099  2.3949 -1.0936  0.2767
11702TIP3    H256522   2.428   2.043  14.986 -0.6644  0.5358 -2.8551
11703TIP3   OH256523   0.467   6.320  15.512  0.3526  0.4339  0.1346
11703TIP3    H156524   0.401   6.360  15.457 -0.2072  0.5639  0.8870
11703TIP3    H256525   0.550   6.355  15.481  0.0465  0.4767 -0.6364
11704TIP3   OH256526   3.776   4.580   0.662  0.8213 -0.0341  0.2379
11704TIP3    H156527   3.694   4.612   0.623  0.5442  0.0911  0.9187
11704TIP3    H256528   3.751   4.498   0.705  1.0568  0.0033  0.4418
11705TIP3   OH256529   5.047   2.658   6.329  0.4779  0.4267 -0.5943
11705TIP3    H156530   4.961   2.683   6.294  0.9962  1.3338 -1.2352
11705TIP3    H256531   5.072   2.732   6.385  0.1123 -0.5616  0.9252
11706TIP3   OH256532   6.125   5.905  14.366  0.5855 -0.0333  0.1161
11706TIP3    H156533   6.071   5.923  14.444 -0.4013  1.8387 -0.9589
11706TIP3    H256534   6.143   5.992  14.330  1.6468 -0.8513 -1.3568
11707TIP3   OH256535   0.619   2.562  11.913  0.4065 -0.0274  0.2556
11707TIP3    H156536   0.689   2.504  11.940  0.0452 -1.0002 -0.8692
11707TIP3    H256537   0.663   2.630  11.861  0.5104 -0.6874 -0.5293
11708TIP3   OH256538   1.192   0.272  12.420 -0.1570 -0.1645  0.5200
11708TIP3    H156539   1.112   0.219  12.424 -0.0736 -0.1810  2.3098
11708TIP3    H256540   1.194   0.320  12.503  1.2292  0.5337  0.1103
11709TIP3   OH256541   3.222   0.559   0.769 -0.0516 -0.1324  0.0909
11709TIP3    H156542   3.252   0.592   0.685 -0.2194  0.4862  0.2709
11709TIP3    H256543   3.132   0.530   0.753 -0.2792  0.5058  0.1844
11710TIP3   OH256544   4.509   2.748  14.939  0.1940  0.4104  0.3944
11710TIP3    H156545   4.488   2.842  14.939 -1.6576  0.0258 -0.5356
11710TIP3    H256546   4.524   2.727  15.031 -0.7541  1.3573  0.7828
11711TIP3   OH256547   2.767   1.660   5.748 -0.3246  0.2219  0.0613
11711TIP3    H156548   2.801   1.706   5.825 -0.8248  2.0726 -0.7983
11711TIP3    H256549   2.692   1.713   5.720  0.2422 -0.0746 -2.0774
11712TIP3   OH256550   3.575   1.514  14.193  0.3655  0.0234  0.5072
11712TIP3    H156551   3.567   1.429  14.150 -0.9466  1.4473 -2.2331
11712TIP3    H256552   3.631   1.498  14.269  0.9621 -3.0604 -0.5124
11713TIP3   OH256553   1.129   5.838  13.632 -0.1402 -0.7968 -0.0335
11713TIP3    H156554   1.207   5.784  13.620 -0.2769 -1.1855  0.7738
11713TIP3    H256555   1.163   5.923  13.658  0.0567 -0.6408 -0.7904
11714TIP3   OH256556   4.207   5.595  10.671 -0.2028 -0.0887 -0.0611
11714TIP3    H156557   4.148   5.607  10.745  0.3323 -0.0742  0.3679
11714TIP3    H256558   4.151   5.560  10.601 -0.5844 -0.7321  0.5507
11715TIP3   OH256559   0.990   6.260   1.015  0.1001  0.3731 -0.4213
11715TIP3    H156560   1.042   6.188   1.049 -0.2460  0.7325  0.9208
11715TIP3    H256561   1.054   6.328   0.992  0.2716  0.6011  0.6962
11716TIP3   OH256562   5.465   1.999  16.719  0.2018 -0.2395  0.1517
11716TIP3    H156563   5.394   2.052  16.755  1.7583  1.5222  0.7006
11716TIP3    H256564   5.525   2.062  16.680  0.8654 -1.7939 -1.4259
11717TIP3   OH256565   2.428   5.069  16.574  0.0752 -0.1453  0.0316
11717TIP3    H156566   2.447   5.118  16.493  0.7779 -0.0346  0.2614
11717TIP3    H256567   2.336   5.090  16.593  1.0859  3.1824  1.5397
11718TIP3   OH256568   2.804   2.090   6.007 -0.3239  0.3736  0.1804
11718TIP3    H156569   2.846   2.159   6.059 -0.3280  0.5724 -0.0825
11718TIP3    H256570   2.821   2.114   5.916  0.3139 -0.3740  0.1001
11719TIP3   OH256571   3.100   4.528  15.782  0.0307  0.2157 -0.2170
11719TIP3    H156572   3.073   4.591  15.849  1.0731  0.3305  0.1095
11719TIP3    H256573   3.061   4.445  15.810  1.8307 -0.1069  1.4817
11720TIP3   OH256574   6.017   1.789  15.084 -0.2623 -0.0512  0.1220
11720TIP3    H156575   5.942   1.832  15.040  0.4497 -1.1190 -2.2216
11720TIP3    H256576   6.033   1.711  15.032  2.5408  0.1909  0.5683
11721TIP3   OH256577   0.985   0.683   1.114 -0.1936 -0.4901 -0.3065
11721TIP3    H156578   0.957   0.748   1.179  0.2718 -1.0051  0.4258
11721TIP3    H256579   1.080   0.689   1.114 -0.1100 -1.6281  0.2695
11722TIP3   OH256580   6.402   1.111  14.343 -0.4879 -0.2744  0.0456
11722TIP3    H156581   6.471   1.115  14.409 -1.1284  0.3504  0.6886
11722TIP3    H256582   6.344   1.184  14.364  0.0595  0.8139 -2.0646
11723TIP3   OH256583   6.019   1.072   2.586 -0.2603  0.7960  0.1449
11723TIP3    H156584   6.032   1.033   2.673 -0.5662  0.7952  0.1924
11723TIP3    H256585   5.924   1.084   2.580 -0.4315 -0.9407 -0.9546
11724TIP3   OH256586   2.904   5.401  16.641 -0.2222  0.3656 -0.0124
11724TIP3    H156587   2.956   5.349  16.702 -0.4263  0.7967  0.5426
11724TIP3    H256588   2.895   5.346  16.563 -1.1616 -0.7943  0.8846
11725TIP3   OH256589   4.665   4.430  17.219  0.4451  0.4440 -0.2078
11725TIP3    H156590   4.712   4.512  17.235 -0.1273  1.0839 -1.7349
11725TIP3    H256591   4.574   4.450  17.242  0.5034 -0.0993  0.4971
11726TIP3   OH256592   3.841   0.783  13.224  0.5436 -0.0660 -0.2396
11726TIP3    H156593   3.858   0.823  13.309 -2.5457  1.0042 -0.0607
11726TIP3    H256594   3.921   0.796  13.174  0.8117  3.3210  0.9912
11727TIP3   OH256595   0.706   5.699  13.509 -0.0229 -0.7023  0.3562
11727TIP3    H156596   0.680   5.610  13.486  0.7926 -1.0258  0.6627
11727TIP3    H256597   0.745   5.734  13.429 -1.0831 -0.3329 -0.0033
11728TIP3   OH256598   0.131   3.259   3.642 -0.4563 -0.4422  0.0005
11728TIP3    H156599   0.194   3.295   3.580  0.1557 -2.4874 -0.5972
11728TIP3    H256600   0.181   3.194   3.692 -1.7853 -1.2499  0.3038
11729TIP3   OH256601   1.569   4.234  15.862 -0.0360 -0.1541  0.9787
11729TIP3    H156602   1.474   4.227  15.875  0.1013  0.3356  2.3037
11729TIP3    H256603   1.587   4.327  15.874  0.0675  0.4758 -3.1744
11730TIP3   OH256604   1.852   1.229   1.493 -0.0278 -0.1215  0.3205
11730TIP3    H156605   1.824   1.303   1.546  0.3943  1.2029 -1.2541
11730TIP3    H256606   1.803   1.238   1.411  1.6519 -0.3146 -0.7413
11731TIP3   OH256607   2.735   3.118  12.680 -0.6450  0.5217  0.0619
11731TIP3    H156608   2.672   3.050  12.703 -0.3295  0.8508  1.9785
11731TIP3    H256609   2.814   3.071  12.655 -1.1957  0.1419 -0.9970
11732TIP3   OH256610   4.408   6.519   5.912 -0.3015 -0.0266 -0.1136
11732TIP3    H156611   4.320   6.508   5.876 -0.3447  0.0211 -0.0209
11732TIP3    H256612   4.394   6.553   6.001 -0.2116 -0.6112  0.1292
11733TIP3   OH256613   2.199   5.942   3.784  0.2282  0.2665  0.2344
11733TIP3    H156614   2.156   5.955   3.699 -1.6768  1.1686  1.3129
11733TIP3    H256615   2.154   5.867   3.823  0.7323  0.1992  0.7046
11734TIP3   OH256616   3.407   1.889   2.511 -0.3675 -0.7037 -0.4226
11734TIP3    H156617   3.483   1.836   2.486 -0.3237 -0.5307 -0.6518
11734TIP3    H256618   3.425   1.976   2.475  0.2969 -0.1168  1.2769
11735TIP3   OH256619   5.959   0.709   1.347  0.0309 -0.3749 -0.0828
11735TIP3    H156620   6.042   0.754   1.360 -1.0401  1.4997  0.3472
11735TIP3    H256621   5.982   0.630   1.298  1.7513  1.2614 -1.9488
11736TIP3   OH256622   2.124   0.998   5.876 -0.3900 -0.4563  0.1564
11736TIP3    H156623   2.032   1.023   5.881 -0.2932 -0.1775  0.5635
11736TIP3    H256624   2.172   1.080   5.885 -0.0811 -0.7402  1.1464
11737TIP3   OH256625   0.504   5.184   2.389  0.0709 -0.5031  0.6073
11737TIP3    H156626   0.562   5.219   2.457  0.2727 -0.2335  0.2983
11737TIP3    H256627   0.417   5.212   2.416  0.1800 -0.1723  0.6193
11738TIP3   OH256628   0.794   3.458   4.084 -0.3127 -0.2104 -0.9322
11738TIP3    H156629   0.844   3.459   4.165 -1.0933  2.6326 -0.4522
11738TIP3    H256630   0.852   3.498   4.019 -0.1815 -1.2888 -1.4962
11739TIP3   OH256631   3.457   2.131   4.995 -0.0647 -0.2845 -0.3525
11739TIP3    H156632   3.400   2.103   5.067 -1.6428  1.2303 -0.9671
11739TIP3    H256633   3.530   2.175   5.037 -0.3707 -0.4582  0.3684
11740TIP3   OH256634   4.316   3.667   4.478  0.1212 -0.1584 -0.3738
11740TIP3    H156635   4.268   3.608   4.419 -0.2705 -1.0221  0.7922
11740TIP3    H256636   4.291   3.639   4.566  2.5409 -0.4343  0.2652
11741TIP3   OH256637   1.395   3.587  14.459  0.2425 -0.0455  0.1910
11741TIP3    H156638   1.362   3.508  14.417  1.0691 -1.6412  2.4253
11741TIP3    H256639   1.481   3.602  14.419 -0.3060  0.2752 -0.8909
11742TIP3   OH256640   3.142   4.163  16.921 -0.5219 -0.4599  0.0139
11742TIP3    H156641   3.218   4.126  16.876 -0.1856 -0.9978  1.0064
11742TIP3    H256642   3.124   4.244  16.875  1.1189  0.0532  0.2332
11743TIP3   OH256643   5.453   1.668   0.871 -0.0873 -0.0011 -0.5846
11743TIP3    H156644   5.400   1.603   0.826 -1.0030  0.4551 -0.1753
11743TIP3    H256645   5.392   1.712   0.931  0.6143  0.9296 -0.5380
11744TIP3   OH256646   2.606   6.644  12.593  0.3618 -0.2568  0.6328
11744TIP3    H156647   2.661   6.696  12.651 -0.5013  0.5098  0.7707
11744TIP3    H256648   2.519   6.682  12.602  0.1379 -0.3874 -0.8482
11745TIP3   OH256649   5.989   0.495  11.464 -0.0580  0.1287 -0.2586
11745TIP3    H156650   6.050   0.500  11.538  0.7241 -1.2532 -0.7784
11745TIP3    H256651   6.046   0.493  11.387 -0.8106  0.0492 -0.8132
11746TIP3   OH256652   5.882   4.868   3.912 -0.1612  0.0805  0.1716
11746TIP3    H156653   5.892   4.893   4.003  0.8269  1.0092 -0.1798
11746TIP3    H256654   5.900   4.948   3.863 -2.9196  0.1613 -0.7646
11747TIP3   OH256655   0.470   0.941  15.531  0.2303  0.0781  0.1509
11747TIP3    H156656   0.451   0.857  15.572 -1.5725 -0.2840 -1.3697
11747TIP3    H256657   0.434   0.933  15.443 -1.0604  2.8641  0.3663
11748TIP3   OH256658   3.824   0.108   4.268 -0.7113  0.6757 -0.0930
11748TIP3    H156659   3.858   0.148   4.188  2.1344  0.6858  1.0640
11748TIP3    H256660   3.884   0.036   4.286 -3.4230 -1.6269  0.0780
11749TIP3   OH256661   5.510   5.565   0.423  0.0663 -0.3178 -0.8832
11749TIP3    H156662   5.476   5.532   0.506 -0.3831 -0.2654 -1.0464
11749TIP3    H256663   5.489   5.658   0.423  0.1783 -0.2915 -1.0003
11750TIP3   OH256664   5.687   4.930  13.686 -0.5453  0.6230  0.3399
11750TIP3    H156665   5.633   4.853  13.701 -1.3934  1.2220  0.4137
11750TIP3    H256666   5.687   4.941  13.591 -1.3807  1.1942  0.3975
11751TIP3   OH256667   3.882   1.359  16.464 -0.4888 -0.2117 -0.0796
11751TIP3    H156668   3.802   1.317  16.497  0.0841 -2.3210 -1.3165
11751TIP3    H256669   3.950   1.292  16.473  0.9829  1.2818  0.1531
11752TIP3   OH256670   1.927   4.229  16.826 -0.3766 -0.4590  0.4728
11752TIP3    H156671   1.958   4.274  16.904  0.0673 -0.9587  0.5843
11752TIP3    H256672   1.951   4.287  16.753 -2.0340  0.6921  0.7897
11753TIP3   OH256673   5.973   1.022  10.840  0.3449 -0.3602 -0.2958
11753TIP3    H156674   5.950   1.024  10.933 -0.9864  0.3723 -0.6238
11753TIP3    H256675   5.898   1.063  10.796 -0.2869 -3.1544 -1.9426
11754TIP3   OH256676   1.222   0.489  16.917 -0.3092 -0.2148  0.2386
11754TIP3    H156677   1.153   0.543  16.877 -0.0372 -1.4359 -1.9760
11754TIP3    H256678   1.176   0.409  16.943 -0.1721 -0.0858  0.8600
11755TIP3   OH256679   6.508   6.092   2.821 -0.7998 -0.2607  0.7192
11755TIP3    H156680   6.593   6.051   2.808  0.2334  2.0028 -0.0691
11755TIP3    H256681   6.454   6.060   2.749  0.9500  2.1019 -1.7552
11756TIP3   OH256682   5.699   6.717  15.090  0.1552  0.4619  0.2509
11756TIP3    H156683   5.656   6.688  15.010  0.6006  0.4052  0.0323
11756TIP3    H256684   5.756   6.789  15.062  2.2365 -1.1975  0.0619
11757TIP3   OH256685   1.056   0.694  16.824  0.0601  0.0834  0.0158
11757TIP3    H156686   1.081   0.783  16.851 -1.7555  0.5823  0.0915
11757TIP3    H256687   1.017   0.706  16.737 -2.6309 -0.2732  1.1459
11758TIP3   OH256688   2.717   2.414  14.633  0.2464  0.0008 -0.3353
11758TIP3    H156689   2.772   2.443  14.560  0.3091  1.8828  0.4233
11758TIP3    H256690   2.678   2.495  14.666  3.2051 -0.2720  4.1685
11759TIP3   OH256691   1.654   4.490  15.861  0.3407 -0.0662  0.1463
11759TIP3    H156692   1.640   4.500  15.767 -0.4879  2.0659  0.4704
11759TIP3    H256693   1.730   4.545  15.880 -0.7576  1.1616  1.0525
11760TIP3   OH256694   5.626   0.744   2.006 -0.2835 -0.1561 -0.0033
11760TIP3    H156695   5.710   0.714   2.042 -0.0800  0.2427 -0.1421
11760TIP3    H256696   5.644   0.833   1.976 -0.2015 -0.7907 -1.8977
11761TIP3   OH256697   1.816   5.417   2.610 -0.0906 -0.2472  0.3859
11761TIP3    H156698   1.855   5.455   2.531  0.2219 -2.3044 -0.4762
11761TIP3    H256699   1.786   5.492   2.660 -0.8490  1.0696 -1.9781
11762TIP3   OH256700   2.386   0.073  15.744 -0.3746 -0.1082 -0.0124
11762TIP3    H156701   2.318   0.079  15.678 -0.5278  0.8951  0.2309
11762TIP3    H256702   2.340   0.045  15.823 -0.8668  2.5077  0.6695
11763TIP3   OH256703   2.751   2.503  14.969 -0.3260 -0.5520  0.4252
11763TIP3    H156704   2.730   2.594  14.989  1.5368  0.0867 -0.4486
11763TIP3    H256705   2.666   2.460  14.958 -1.3150  0.3988  3.7531
11764TIP3   OH256706   2.151   6.298   3.360 -0.0333 -0.1367 -0.2247
11764TIP3    H156707   2.108   6.382   3.345 -2.3550 -1.5094 -1.6775
11764TIP3    H256708   2.210   6.287   3.285 -0.6400 -0.3511 -0.6720
11765TIP3   OH256709   2.032   2.068   0.843 -0.2176 -0.2433 -0.3639
11765TIP3    H156710   2.019   2.122   0.921  1.9876  0.0353 -0.1458
11765TIP3    H256711   2.038   2.130   0.771  1.3388 -0.2324 -0.2453
11766TIP3   OH256712   1.703   3.679   3.247 -0.2640  0.9377 -0.4121
11766TIP3    H156713   1.703   3.761   3.199 -1.3153  0.2784 -1.5878
11766TIP3    H256714   1.796   3.657   3.258  0.0037  1.3039 -1.8164
11767TIP3   OH256715   3.004   1.303  11.930  0.3007 -0.0876  0.2039
11767TIP3    H156716   3.090   1.313  11.970 -0.0854 -1.8492  1.5257
11767TIP3    H256717   2.982   1.211  11.943 -0.5379 -0.3309 -2.7078
11768TIP3   OH256718   0.349   6.174  15.703 -0.0058  0.7443  0.2063
11768TIP3    H156719   0.390   6.231  15.638 -0.2291  0.7735  0.0925
11768TIP3    H256720   0.414   6.167  15.773  0.6791 -0.1811 -0.5178
11769TIP3   OH256721   0.097   2.775  11.378  0.0637 -0.5221 -0.6066
11769TIP3    H156722   0.020   2.726  11.349  0.7342 -0.5708 -2.3388
11769TIP3    H256723   0.163   2.708  11.394 -0.4399 -0.5393  1.5526
11770TIP3   OH256724   4.977   0.242  14.838 -0.4361  0.2609 -0.0547
11770TIP3    H156725   5.036   0.213  14.907 -0.3438  0.8262  0.1031
11770TIP3    H256726   4.907   0.289  14.884  0.2957  1.7591 -0.4401
11771TIP3   OH256727   6.579   6.563   5.415  0.1575  0.5640 -0.4881
11771TIP3    H156728   6.511   6.629   5.401 -0.4115 -0.1264 -1.0103
11771TIP3    H256729   6.660   6.613   5.422 -0.4226  1.4000  0.2439
11772TIP3   OH256730   2.346   5.239   4.067  0.5096 -0.2194  0.2039
11772TIP3    H156731   2.426   5.189   4.085 -0.2242 -0.7062  2.3028
11772TIP3    H256732   2.300   5.189   4.000  1.5379 -0.4018 -0.3660
11773TIP3   OH256733   0.534   4.936  11.154 -0.4072 -0.4787 -0.1415
11773TIP3    H156734   0.613   4.989  11.165 -0.2464 -0.9379  0.9364
11773TIP3    H256735   0.565   4.855  11.114 -0.7422  0.4639 -2.4159
11774TIP3   OH256736   1.043   0.774  14.162  0.1121 -0.0526  0.6139
11774TIP3    H156737   0.981   0.837  14.125  0.8171  0.8360  0.9512
11774TIP3    H256738   0.998   0.689  14.154 -1.0020  0.5366  0.5329
11775TIP3   OH256739   0.383   4.295  17.042 -0.5224 -0.1344 -0.3840
11775TIP3    H156740   0.299   4.312  16.999 -0.3885 -0.7697 -0.9049
11775TIP3    H256741   0.440   4.266  16.971  0.5110  1.5561 -0.2573
11776TIP3   OH256742   6.351   1.635   0.942 -0.5372 -0.4027  0.4297
11776TIP3    H156743   6.282   1.695   0.914 -1.0328 -0.4017  1.6166
11776TIP3    H256744   6.408   1.688   0.998  0.9820 -0.1563 -1.3228
11777TIP3   OH256745   1.149   6.006   4.666 -0.1787 -0.3476  0.1002
11777TIP3    H156746   1.114   5.917   4.657  1.5523 -1.0447  0.1081
11777TIP3    H256747   1.194   6.006   4.751 -0.1497  0.5276  0.0913
11778TIP3   OH256748   4.246   0.956  13.649 -0.3368  0.4888 -0.4496
11778TIP3    H156749   4.248   0.861  13.650  0.8629  0.5199  0.9935
11778TIP3    H256750   4.338   0.982  13.642 -0.5962  1.5384 -0.0556
11779TIP3   OH256751   4.789   0.619   1.580  0.7540  0.1886 -0.2108
11779TIP3    H156752   4.742   0.540   1.553  1.7422  0.1113 -1.8133
11779TIP3    H256753   4.749   0.689   1.529  1.4314  0.3348 -0.5516
11780TIP3   OH256754   0.416   0.179  13.161 -0.0437 -0.0211 -0.2500
11780TIP3    H156755   0.346   0.130  13.118  0.8866  1.1327 -3.1874
11780TIP3    H256756   0.487   0.116  13.172 -0.2511 -0.2975 -0.4995
11781TIP3   OH256757   5.338   5.099   0.250  0.2254  0.2589 -0.2599
11781TIP3    H156758   5.371   5.187   0.266  0.8603 -0.1316  0.5884
11781TIP3    H256759   5.266   5.089   0.313 -1.5859  1.1159 -2.1080
11782TIP3   OH256760   2.274   2.960  11.656  0.1379 -0.3162 -0.0934
11782TIP3    H156761   2.278   2.904  11.579 -1.4850 -0.2099 -0.2856
11782TIP3    H256762   2.235   3.042  11.624  0.6915  0.2106  0.5661
11783TIP3   OH256763   6.545   6.441   3.988 -0.2159  0.2461 -0.5820
11783TIP3    H156764   6.617   6.494   3.954 -0.1628  1.7361  1.7637
11783TIP3    H256765   6.502   6.497   4.052 -1.9901 -1.5002 -0.2043
11784TIP3   OH256766   3.507   4.000   3.706 -0.0533 -0.1163 -0.3998
11784TIP3    H156767   3.427   4.042   3.675  0.4769  1.1085 -0.1524
11784TIP3    H256768   3.478   3.917   3.743 -0.8946 -0.8327 -2.6037
11785TIP3   OH256769   4.601   6.323  12.958 -0.2872 -0.2377  0.4233
11785TIP3    H156770   4.675   6.328  12.898  0.4514 -0.0219  1.3438
11785TIP3    H256771   4.528   6.293  12.903  0.6824 -1.3354 -0.2974
11786TIP3   OH256772   2.003   0.797  12.547 -0.1058 -0.2924  0.3010
11786TIP3    H156773   1.918   0.759  12.571 -0.7405  0.8404 -0.0993
11786TIP3    H256774   2.053   0.798  12.629 -0.5920 -0.6640  0.6084
11787TIP3   OH256775   5.922   3.248   2.613 -0.1679 -0.1267 -0.0618
11787TIP3    H156776   5.885   3.187   2.676  0.2775 -0.2749  0.0537
11787TIP3    H256777   5.887   3.220   2.528 -1.8642  0.8862  0.2630
11788TIP3   OH256778   5.835   6.108   4.703 -0.2158  0.3773 -0.3324
11788TIP3    H156779   5.754   6.078   4.743  0.0501  0.4481  0.2616
11788TIP3    H256780   5.898   6.038   4.720  0.1652  0.8651  0.2660
11789TIP3   OH256781   3.816   3.541   2.649  0.8294 -0.4170  0.2612
11789TIP3    H156782   3.815   3.613   2.712  2.2163  0.4787 -0.7236
11789TIP3    H256783   3.726   3.538   2.615  0.7541  0.8428  0.3174
11790TIP3   OH256784   0.218   1.060   3.632  0.5050  0.2584 -0.0068
11790TIP3    H156785   0.251   0.983   3.680  0.7883  0.2187 -0.2654
11790TIP3    H256786   0.267   1.134   3.669  0.2489  0.3118  0.2263
11791TIP3   OH256787   4.261   4.765   2.714 -0.5569  0.1027 -0.1020
11791TIP3    H156788   4.232   4.819   2.787  0.8444 -0.2845  0.7503
11791TIP3    H256789   4.233   4.677   2.737 -1.5293  0.2187 -0.7980
11792TIP3   OH256790   0.560   0.340   2.509  1.0619 -0.1260  0.1907
11792TIP3    H156791   0.508   0.300   2.578  1.7689 -0.0541  0.7660
11792TIP3    H256792   0.501   0.342   2.433  0.4226 -0.5750  0.6694
11793TIP3   OH256793   5.626   4.101   3.085 -0.0367  0.1236 -0.4102
11793TIP3    H156794   5.652   4.082   3.175  0.5089  0.1020 -0.5670
11793TIP3    H256795   5.549   4.047   3.069 -1.5293  1.8394  0.8028
11794TIP3   OH256796   3.775   4.331  17.118  0.3158  0.1714  0.1085
11794TIP3    H156797   3.790   4.386  17.195 -1.4351 -0.9755  1.3244
11794TIP3    H256798   3.785   4.241  17.151 -0.5911 -0.3356 -0.9591
11795TIP3   OH256799   4.672   4.409   5.282  0.1740 -0.3929  0.3454
11795TIP3    H156800   4.711   4.485   5.323 -0.8757  0.3069  0.0762
11795TIP3    H256801   4.595   4.390   5.337  0.3298 -1.1439  0.3077
11796TIP3   OH256802   1.895   1.090  11.338  0.1718  0.2329 -0.1131
11796TIP3    H156803   1.845   1.170  11.359 -1.6460 -1.5966  2.8663
11796TIP3    H256804   1.829   1.029  11.305  1.1218 -0.9671  0.1925
11797TIP3   OH256805   6.270   3.559   6.281  0.4338 -0.5249 -0.1330
11797TIP3    H156806   6.279   3.572   6.376  0.0700 -1.1876 -0.0045
11797TIP3    H256807   6.214   3.631   6.252  1.5138  0.3707 -0.0398
11798TIP3   OH256808   3.768   1.896   1.550  0.4455 -0.5500 -0.6651
11798TIP3    H156809   3.725   1.969   1.504 -0.9399 -0.9631 -0.0510
11798TIP3    H256810   3.780   1.928   1.639 -1.6422 -1.6142  0.0463
11799TIP3   OH256811   5.799   0.519  14.638  0.1890 -0.0369 -0.2024
11799TIP3    H156812   5.714   0.494  14.674  0.7467 -1.7767 -0.0424
11799TIP3    H256813   5.839   0.436  14.611  1.6366  0.8084 -0.7135
11800TIP3   OH256814   0.554   5.631  11.857 -0.3426 -0.5739  0.4721
11800TIP3    H156815   0.559   5.709  11.801  1.3473 -0.0306  1.3239
11800TIP3    H256816   0.513   5.662  11.938  0.1530 -0.6024  0.7387
11801TIP3   OH256817   6.267   6.275   0.450 -0.0042 -0.4139 -0.2835
11801TIP3    H156818   6.357   6.309   0.450 -0.8079  1.7819  0.7265
11801TIP3    H256819   6.217   6.342   0.404 -1.4883 -0.6175  1.0271
11802TIP3   OH256820   6.171   4.063  14.074 -0.0875  0.2330  0.3777
11802TIP3    H156821   6.246   4.020  14.115  0.7338  0.2867 -1.0746
11802TIP3    H256822   6.206   4.142  14.034 -0.6600 -0.4017 -1.4265
11803TIP3   OH256823   5.586   0.519  14.886  0.2194  0.3194  0.8284
11803TIP3    H156824   5.653   0.509  14.954  1.4684  0.1048 -0.4011
11803TIP3    H256825   5.517   0.458  14.911  1.4092 -0.9818  1.0235
11804TIP3   OH256826   4.103   1.196  16.858 -0.3636  0.0495  0.6927
11804TIP3    H156827   4.160   1.191  16.934  0.2285  0.4866  0.2849
11804TIP3    H256828   4.117   1.285  16.824 -1.5838  0.3036  0.8255
11805TIP3   OH256829   3.740   1.496  12.919  0.5346 -0.0471  0.6744
11805TIP3    H156830   3.708   1.413  12.884 -0.3260  0.1508  0.9798
11805TIP3    H256831   3.803   1.471  12.986  0.8902 -0.4427  0.1997
11806TIP3   OH256832   4.974   6.227  11.035 -0.4517 -0.5015 -0.0995
11806TIP3    H156833   5.020   6.198  10.957  1.5359 -2.4728  1.7254
11806TIP3    H256834   5.033   6.291  11.075 -1.0634 -0.1449  0.2442
11807TIP3   OH256835   2.647   0.254   1.142  0.3293 -0.0637  0.0422
11807TIP3    H156836   2.708   0.227   1.073 -0.0072 -2.8718  0.7710
11807TIP3    H256837   2.657   0.349   1.147  2.4652 -0.1390 -1.8776
11808TIP3   OH256838   1.553   6.778   4.167  0.3096  0.3304 -0.2376
11808TIP3    H156839   1.472   6.828   4.159  0.2828  0.3052 -0.1327
11808TIP3    H256840   1.621   6.836   4.131  0.5528  1.1761  1.5086
11809TIP3   OH256841   6.147   1.119   0.838  0.4656  0.4508  0.4514
11809TIP3    H156842   6.165   1.194   0.895 -0.3519  0.9215  0.0936
11809TIP3    H256843   6.233   1.096   0.802  0.6051  1.6717 -0.0027
11810TIP3   OH256844   2.488   3.198   3.234 -0.4340 -0.4372 -0.2072
11810TIP3    H156845   2.426   3.176   3.303 -0.6543  0.3420 -0.1599
11810TIP3    H256846   2.486   3.293   3.229 -0.7525 -0.5122 -1.5966
11811TIP3   OH256847   4.190   1.648   5.672 -0.3857  0.2447 -0.2152
11811TIP3    H156848   4.121   1.698   5.628  0.0043  1.7050  0.7962
11811TIP3    H256849   4.172   1.659   5.765  0.7038 -0.1011  0.0401
11812TIP3   OH256850   5.673   1.232   4.210  0.2560 -0.0513 -0.1934
11812TIP3    H156851   5.696   1.166   4.275 -1.3672 -0.3613  0.0939
11812TIP3    H256852   5.603   1.283   4.251 -0.5876 -0.0685 -1.5821
11813TIP3   OH256853   4.360   5.980   2.470 -0.2337 -0.6387  0.3491
11813TIP3    H156854   4.381   6.005   2.560  0.5743 -1.2567  0.3375
11813TIP3    H256855   4.412   5.901   2.454 -2.6943 -2.2966  0.3579
11814TIP3   OH256856   0.112   3.563   3.749  0.0067 -0.4390 -0.1108
11814TIP3    H156857   0.057   3.489   3.774 -0.2404 -1.6119 -3.8493
11814TIP3    H256858   0.071   3.599   3.670  2.2048  1.3225 -0.5285
11815TIP3   OH256859   3.713   2.951  16.650 -0.0451  0.5317  0.1898
11815TIP3    H156860   3.673   3.007  16.717  0.5057  0.7245  0.3558
11815TIP3    H256861   3.803   2.981  16.644  0.4102 -0.7073  0.6648
11816TIP3   OH256862   4.109   0.601  13.071 -0.2696 -0.5078 -0.0581
11816TIP3    H156863   4.017   0.603  13.047 -0.0446  0.1977 -0.8814
11816TIP3    H256864   4.143   0.520  13.033 -0.4690 -0.5969 -0.0460
11817TIP3   OH256865   2.352   5.466   6.098  0.0092  0.5105  0.2303
11817TIP3    H156866   2.441   5.433   6.110  0.3728  1.7945  1.2019
11817TIP3    H256867   2.309   5.450   6.182 -0.3270  0.9262  0.1422
11818TIP3   OH256868   6.029   1.367   3.860 -0.0796 -0.3058 -0.1779
11818TIP3    H156869   6.049   1.455   3.827  1.7356 -0.1141  1.3704
11818TIP3    H256870   5.935   1.357   3.845 -0.1116  1.4881 -1.3143
11819TIP3   OH256871   6.535   6.541   1.173 -0.0910 -0.0097 -0.0681
11819TIP3    H156872   6.618   6.575   1.207 -0.3620  0.7810 -0.2026
11819TIP3    H256873   6.558   6.457   1.133  0.9936  1.1617 -1.9389
11820TIP3   OH256874   5.344   1.222   5.408  0.1861  0.1330 -0.0990
11820TIP3    H156875   5.360   1.268   5.326  0.2453 -0.1796 -0.2659
11820TIP3    H256876   5.431   1.206   5.444  0.1577  0.3167  0.0524
11821TIP3   OH256877   5.705   2.105  11.885  0.4867 -0.0164  0.1165
11821TIP3    H156878   5.670   2.017  11.869  1.8740 -0.7856  1.2393
11821TIP3    H256879   5.789   2.090  11.928  0.0813  1.8727  1.6504
11822TIP3   OH256880   3.500   1.689  14.843 -0.0689 -0.0769 -0.7420
11822TIP3    H156881   3.544   1.753  14.787  0.8530  0.8252  0.9733
11822TIP3    H256882   3.450   1.742  14.905  1.1198 -0.9894  1.0395
11823TIP3   OH256883   6.625   6.484   2.712  0.6522  0.5282  0.3623
11823TIP3    H156884   6.585   6.565   2.743 -0.6329  1.6437 -3.8001
11823TIP3    H256885   6.551   6.425   2.696  1.1592  0.2494 -1.1048
11824TIP3   OH256886   6.262   2.876  13.497  0.8816 -0.2164 -0.6685
11824TIP3    H156887   6.209   2.925  13.560  0.4460 -1.2180 -0.2280
11824TIP3    H256888   6.269   2.789  13.536  1.5160 -0.5381 -1.4988
11825TIP3   OH256889   5.570   2.871  12.790 -0.2409 -0.4941  0.1369
11825TIP3    H156890   5.579   2.817  12.868  0.1090  0.2658  0.6194
11825TIP3    H256891   5.647   2.849  12.737  0.2764  0.0594  0.6551
11826TIP3   OH256892   6.003   1.996  11.926 -0.4112 -0.2633  0.3906
11826TIP3    H156893   6.055   2.076  11.911  0.2126 -0.4742  1.3648
11826TIP3    H256894   6.023   1.940  11.851 -1.4977  0.8292 -0.7211
11827TIP3   OH256895   2.429   5.969  14.225  0.2824  0.2759 -0.8188
11827TIP3    H156896   2.476   6.027  14.164  0.5832  0.2259 -0.6375
11827TIP3    H256897   2.458   5.997  14.311 -0.4521  0.6082 -0.6845
11828TIP3   OH256898   6.331   1.204  11.963 -0.0300  0.1953 -0.3054
11828TIP3    H156899   6.375   1.129  11.923  1.4257  0.5847  0.5491
11828TIP3    H256900   6.382   1.223  12.041 -1.3385  1.0805  0.3469
11829TIP3   OH256901   4.076   4.622  17.159 -0.4351 -0.1936 -0.2402
11829TIP3    H156902   4.168   4.610  17.136 -0.2858 -0.0697  0.2831
11829TIP3    H256903   4.071   4.596  17.251 -0.7892  0.4779 -0.0693
11830TIP3   OH256904   5.539   4.172   5.501  0.0375 -0.3156  0.1033
11830TIP3    H156905   5.579   4.215   5.577 -0.7050  1.3680 -0.4488
11830TIP3    H256906   5.452   4.211   5.494 -1.7475 -3.8439  1.2249
11831TIP3   OH256907   4.637   5.710   3.579 -0.0511 -0.5534 -0.7226
11831TIP3    H156908   4.591   5.645   3.526  0.2000 -0.7586 -0.6911
11831TIP3    H256909   4.569   5.749   3.633 -0.4020  0.0257 -1.5716
11832TIP3   OH256910   6.037   0.054  13.317 -0.0968 -0.2166 -0.2005
11832TIP3    H156911   5.959   0.010  13.348 -0.9442  0.3902 -1.4331
11832TIP3    H256912   6.027   0.145  13.346 -0.6708  0.2461 -1.7917
11833TIP3   OH256913   1.130   4.581  12.129  0.3515 -0.3938 -0.2571
11833TIP3    H156914   1.103   4.585  12.221 -1.3752  1.8323 -0.8216
11833TIP3    H256915   1.061   4.529  12.087 -0.5901  1.3239 -0.8600
11834TIP3   OH256916   0.755   4.227   2.475 -0.1844 -0.1887 -0.0095
11834TIP3    H156917   0.660   4.218   2.484 -0.1867  0.9861  1.2892
11834TIP3    H256918   0.766   4.281   2.397 -0.5851 -0.1679 -0.0566
11835TIP3   OH256919   1.819   2.714  15.628 -0.1939 -0.2825 -0.9793
11835TIP3    H156920   1.726   2.722  15.652  0.0163  0.6613 -0.4432
11835TIP3    H256921   1.821   2.729  15.534 -0.5213  0.2306 -0.9060
11836TIP3   OH256922   1.819   4.572  14.277 -0.3447  0.0879  0.1955
11836TIP3    H156923   1.799   4.660  14.246 -0.4415  0.4967  1.4161
11836TIP3    H256924   1.906   4.554  14.243 -0.3087  0.6699 -0.0265
11837TIP3   OH256925   4.847   4.798  14.601 -0.0052 -0.3317  0.4642
11837TIP3    H156926   4.832   4.726  14.540  2.1530 -1.5363  1.3232
11837TIP3    H256927   4.762   4.812  14.642 -1.1322 -0.4862 -1.7135
11838TIP3   OH256928   2.188   2.865   3.422  0.6179  0.2670  0.1975
11838TIP3    H156929   2.242   2.788   3.408  1.0602  0.9162 -1.6955
11838TIP3    H256930   2.099   2.835   3.404  0.5745 -0.2381  1.1939
11839TIP3   OH256931   4.952   5.824   1.097 -0.4134  0.3818  0.2192
11839TIP3    H156932   4.918   5.884   1.031  0.6875  2.4166  1.4334
11839TIP3    H256933   4.922   5.860   1.181  0.4995 -0.5883  0.9853
11840TIP3   OH256934   5.253   0.432   1.406  0.2811  0.4849 -0.1777
11840TIP3    H156935   5.173   0.474   1.438  0.5045  0.1191  0.8834
11840TIP3    H256936   5.324   0.485   1.441  0.5242  0.1721 -0.1912
11841TIP3   OH256937   2.058   1.470  13.308  0.3924 -0.3545 -0.0711
11841TIP3    H156938   2.043   1.540  13.371 -1.0628  0.8478 -1.7119
11841TIP3    H256939   2.126   1.503  13.249 -0.1253 -0.4074 -0.7070
11842TIP3   OH256940   2.272   0.377   3.170 -0.0418 -0.2434  0.5271
11842TIP3    H156941   2.220   0.400   3.093 -0.5299  1.8029  1.4159
11842TIP3    H256942   2.360   0.407   3.150 -0.1106  0.0433  0.6468
11843TIP3   OH256943   6.031   1.528  11.704 -0.0534  0.1652  0.2866
11843TIP3    H156944   6.110   1.481  11.733  1.0495  2.1415  0.6233
11843TIP3    H256945   6.007   1.487  11.621  0.1545 -1.7807  1.1701
11844TIP3   OH256946   2.042   5.788  16.021 -0.1735  0.1412  0.3494
11844TIP3    H156947   2.025   5.850  16.092 -1.6295 -0.5781  0.6454
11844TIP3    H256948   2.005   5.705  16.051 -0.2218 -0.3359 -0.9609
11845TIP3   OH256949   1.757   5.842  15.703 -0.0254  0.0347 -1.1459
11845TIP3    H156950   1.851   5.839  15.716 -0.0778 -1.3893 -1.0008
11845TIP3    H256951   1.720   5.855  15.791  0.0566  1.5933 -1.3211
11846TIP3   OH256952   1.509   0.173   2.960 -0.3109 -0.0266 -0.0563
11846TIP3    H156953   1.588   0.179   3.014  0.5574  1.4517 -1.4601
11846TIP3    H256954   1.455   0.247   2.989 -0.3404  0.1010 -0.4402
11847TIP3   OH256955   0.315   1.613  12.689  0.2240  0.1369 -0.0857
11847TIP3    H156956   0.334   1.587  12.779 -0.4843 -1.3750 -0.3580
11847TIP3    H256957   0.232   1.659  12.694  0.4071  0.4483  0.0951
11848TIP3   OH256958   0.604   0.161   5.003 -0.4635 -0.2762  0.0246
11848TIP3    H156959   0.643   0.073   5.007  0.5421  0.0868 -1.1923
11848TIP3    H256960   0.588   0.185   5.094  2.1682 -0.4650  0.5928
11849TIP3   OH256961   3.695   4.436  12.944  0.3882 -0.6310 -0.2117
11849TIP3    H156962   3.661   4.483  13.020  1.2797 -2.1290  1.1470
11849TIP3    H256963   3.747   4.501  12.896  1.6726 -0.2139  1.6760
11850TIP3   OH256964   1.478   0.342   5.544 -0.5727  0.9629 -0.0821
11850TIP3    H156965   1.409   0.323   5.607  0.3134  0.8733  0.8808
11850TIP3    H256966   1.439   0.322   5.459 -0.3906 -3.1832  0.7072
11851TIP3   OH256967   4.788   3.181   2.098 -0.1146 -0.1517  0.1710
11851TIP3    H156968   4.714   3.136   2.140  0.1652 -0.9230 -0.1481
11851TIP3    H256969   4.812   3.123   2.026 -0.6902  1.2261 -1.1604
11852TIP3   OH256970   0.447   1.150   2.882  0.0384 -0.4413 -0.6026
11852TIP3    H156971   0.388   1.122   2.952  0.0158  1.7643  0.3118
11852TIP3    H256972   0.524   1.094   2.892 -0.3523 -0.7949  0.6068
11853TIP3   OH256973   2.225   1.563  13.884 -0.2414 -0.2330 -0.0384
11853TIP3    H156974   2.312   1.524  13.872 -0.0091  0.6610 -1.4350
11853TIP3    H256975   2.234   1.618  13.962  0.1258 -0.9924  0.4694
11854TIP3   OH256976   0.427   0.648  13.142  0.4154 -0.0875  0.1413
11854TIP3    H156977   0.519   0.648  13.116  0.2883 -0.7251 -0.3271
11854TIP3    H256978   0.428   0.663  13.237  1.0328 -0.8553  0.2553
11855TIP3   OH256979   3.422   2.532  17.082 -0.0339  0.0909  0.0504
11855TIP3    H156980   3.369   2.605  17.047 -3.8596 -2.0618  1.0657
11855TIP3    H256981   3.473   2.572  17.152 -2.6523  1.7205  1.1311
11856TIP3   OH256982   2.523   2.381   3.745  0.4866  0.2331  0.3134
11856TIP3    H156983   2.472   2.458   3.719  0.9329  1.4282  2.8593
11856TIP3    H256984   2.511   2.374   3.839  2.6056 -1.2423  0.5189
11857TIP3   OH256985   0.938   0.778  12.534 -0.3704 -0.1890 -0.2437
11857TIP3    H156986   0.919   0.769  12.441 -0.5588 -1.1795 -0.1221
11857TIP3    H256987   0.972   0.692  12.559 -0.3540  0.0628  0.6081
11858TIP3   OH256988   2.449   2.208  12.794 -0.6314 -0.0517 -0.1074
11858TIP3    H156989   2.507   2.164  12.732  1.0947  2.3148 -0.2135
11858TIP3    H256990   2.414   2.283  12.745 -0.8790  0.6443  1.1303
11859TIP3   OH256991   5.378   2.729  12.087 -0.3220 -0.0220  0.0852
11859TIP3    H156992   5.308   2.734  12.021  0.2296  1.3779 -0.4201
11859TIP3    H256993   5.401   2.820  12.104 -0.5735 -0.3640  2.3652
11860TIP3   OH256994   6.638   1.446   4.215  0.2315 -0.5891  0.2333
11860TIP3    H156995   6.712   1.390   4.237 -0.4750 -1.4738  0.3851
11860TIP3    H256996   6.563   1.403   4.256 -0.3741  0.2556  0.0084
11861TIP3   OH256997   0.111   6.244   4.224  0.2074  0.1735 -0.2288
11861TIP3    H156998   0.116   6.258   4.129 -2.5460  1.2127 -0.2602
11861TIP3    H256999   0.075   6.326   4.258 -1.2753 -1.1419  1.4076
11862TIP3   OH257000   6.097   5.228   2.373 -0.1948  0.8495  0.2950
11862TIP3    H157001   6.010   5.257   2.345 -0.8424 -0.5588  0.7894
11862TIP3    H257002   6.134   5.186   2.295 -0.1146  1.0868  0.2038
11863TIP3   OH257003   4.115   2.504   6.089 -0.4487 -0.2114  0.2570
11863TIP3    H157004   4.065   2.558   6.150  0.1762  0.0025  0.5761
11863TIP3    H257005   4.206   2.527   6.104 -0.2539 -0.5208 -0.4081
11864TIP3   OH257006   0.240   1.474  13.168  0.3888  0.0787  0.3218
11864TIP3    H157007   0.303   1.546  13.160  1.8920 -1.4275 -2.1028
11864TIP3    H257008   0.277   1.404  13.114 -1.6039 -2.1268  1.7304
11865TIP3   OH257009   2.238   6.491   4.029  0.1618 -0.2398  0.2722
11865TIP3    H157010   2.207   6.403   4.049 -0.3952 -0.3312 -0.9365
11865TIP3    H257011   2.212   6.505   3.938  0.3402  1.1297  0.4231
11866TIP3   OH257012   6.201   1.218  16.777  0.1643 -0.6767 -0.2562
11866TIP3    H157013   6.106   1.222  16.776  0.2008  0.4877 -1.5403
11866TIP3    H257014   6.222   1.132  16.740 -0.3621  0.1130 -2.4307
11867TIP3   OH257015   2.557   0.730   3.778  0.1783 -0.0769  0.5318
11867TIP3    H157016   2.500   0.724   3.701  0.5221  0.7406  0.1984
11867TIP3    H257017   2.501   0.707   3.852 -1.0540  2.3934  0.4097
11868TIP3   OH257018   2.093   4.247   4.349  0.3472  0.0555 -0.3097
11868TIP3    H157019   2.052   4.190   4.414  0.9495 -2.1234 -1.7757
11868TIP3    H257020   2.020   4.294   4.308 -0.3752 -1.1902 -0.4837
11869TIP3   OH257021   6.224   2.727  12.976  0.3123  0.0544  0.5335
11869TIP3    H157022   6.228   2.636  13.006 -0.6431  0.7754  3.0035
11869TIP3    H257023   6.237   2.722  12.882 -0.4138 -2.7198  0.5367
11870TIP3   OH257024   2.538   5.484  10.466  0.2001  0.0504  0.5361
11870TIP3    H157025   2.622   5.479  10.422  0.1534 -0.1089  0.4685
11870TIP3    H257026   2.522   5.578  10.477  1.5424  0.0411  2.7472
11871TIP3   OH257027   4.118   2.667   5.308 -0.0512  0.2410  0.2220
11871TIP3    H157028   4.119   2.696   5.399  0.3158 -3.3714  1.4464
11871TIP3    H257029   4.033   2.626   5.296 -0.0715  0.6062 -1.0614
11872TIP3   OH257030   4.195   5.414  12.533  0.2144 -0.4447 -0.2385
11872TIP3    H157031   4.140   5.451  12.603 -1.2731  0.1897 -1.7177
11872TIP3    H257032   4.282   5.450  12.550 -0.1216 -0.2798  1.2701
11873TIP3   OH257033   0.077   1.170   4.520 -0.6767  0.3176  0.0138
11873TIP3    H157034   0.080   1.266   4.513 -2.8235  0.4331  0.1759
11873TIP3    H257035   0.082   1.153   4.614 -1.5574  0.3563  0.0750
11874TIP3   OH257036   3.138   5.096   1.370  0.5292  0.0728  0.3327
11874TIP3    H157037   3.139   5.172   1.311  1.7139  1.0877  1.6016
11874TIP3    H257038   3.057   5.106   1.420  0.2244 -0.0102 -0.1393
11875TIP3   OH257039   5.747   4.532  14.225 -0.1178  0.6455 -0.2108
11875TIP3    H157040   5.712   4.531  14.136 -1.2350  1.2957  0.2146
11875TIP3    H257041   5.809   4.605  14.226  0.5307  0.1150 -0.6771
11876TIP3   OH257042   3.701   5.358  14.778 -0.2499  0.4015 -0.0945
11876TIP3    H157043   3.616   5.392  14.752 -0.1237 -1.3869 -3.1093
11876TIP3    H257044   3.759   5.434  14.775 -0.8245  0.7972 -2.6364
11877TIP3   OH257045   5.813   3.478  16.858 -0.4460  0.2027 -0.2029
11877TIP3    H157046   5.765   3.553  16.823  1.9044  1.8987  0.1260
11877TIP3    H257047   5.847   3.433  16.781  0.8556  1.3180 -0.2836
11878TIP3   OH257048   3.771   1.926   5.837 -0.2982 -0.0297 -0.2093
11878TIP3    H157049   3.857   1.942   5.799 -0.7076  0.5690 -0.9094
11878TIP3    H257050   3.763   1.993   5.906 -1.0469  1.2929 -1.5522
11879TIP3   OH257051   3.256   5.243   3.497 -0.0397  0.0151  0.2901
11879TIP3    H157052   3.293   5.256   3.410 -1.7069  0.5033 -0.3696
11879TIP3    H257053   3.213   5.326   3.517 -0.4919 -0.4229  1.1593
11880TIP3   OH257054   5.024   3.285   2.190 -0.2196 -0.2782 -0.0528
11880TIP3    H157055   4.946   3.237   2.165  0.0160 -1.9194  2.2245
11880TIP3    H257056   4.995   3.377   2.192 -2.7982 -1.0693  3.1455
11881TIP3   OH257057   0.291   2.646  16.664  0.0257  0.0379  0.8368
11881TIP3    H157058   0.229   2.590  16.710 -0.6806 -0.1057 -0.2565
11881TIP3    H257059   0.236   2.711  16.620  0.7145  0.4908  0.6458
11882TIP3   OH257060   4.249   0.837  11.536 -0.6040  0.3398  0.0573
11882TIP3    H157061   4.267   0.823  11.629 -3.5424  0.8736  0.7578
11882TIP3    H257062   4.315   0.900  11.508 -1.3161  2.2310  2.4571
11883TIP3   OH257063   6.601   6.367  11.834 -0.2538  0.0734  0.0225
11883TIP3    H157064   6.598   6.345  11.927 -1.3993  1.9960  0.4716
11883TIP3    H257065   6.693   6.385  11.816 -0.0295 -0.2923  0.7831
11884TIP3   OH257066   6.070   0.452  15.293  0.1685 -0.0036 -0.6097
11884TIP3    H157067   6.009   0.506  15.342  0.7566 -0.0166  0.1551
11884TIP3    H257068   6.124   0.514  15.244  1.5442  0.1998  1.0885
11885TIP3   OH257069   3.292   2.386  16.019 -0.1242 -0.7089 -0.0415
11885TIP3    H157070   3.232   2.376  16.093  0.4989  0.5866  0.6595
11885TIP3    H257071   3.239   2.422  15.949 -0.5449 -1.2007  0.0241
11886TIP3   OH257072   0.440   6.029   1.876 -0.8482  0.3636  0.7579
11886TIP3    H157073   0.397   5.996   1.955  1.2821  0.2579  1.8944
11886TIP3    H257074   0.404   6.117   1.865 -3.4924 -0.7605  0.0403
11887TIP3   OH257075   5.636   6.368  12.743 -0.8072 -0.6841  0.3113
11887TIP3    H157076   5.623   6.459  12.716  1.5092  0.2207  2.0542
11887TIP3    H257077   5.640   6.319  12.661 -1.2045  0.9192 -0.6869
11888TIP3   OH257078   5.631   1.838   0.757 -0.1149 -0.3116  0.1037
11888TIP3    H157079   5.621   1.929   0.785  1.3053 -0.4663  1.1383
11888TIP3    H257080   5.573   1.788   0.814 -0.0421 -0.1925  0.2797
11889TIP3   OH257081   4.371   5.037  16.190  0.2333  0.7700  0.3269
11889TIP3    H157082   4.347   5.124  16.157  0.6075  0.2545 -1.3442
11889TIP3    H257083   4.340   5.037  16.280 -1.7258  1.8799 -0.2985
11890TIP3   OH257084   0.482   3.857   2.826 -0.2438 -0.3729  0.1017
11890TIP3    H157085   0.452   3.820   2.743 -2.3460 -1.2195  1.1878
11890TIP3    H257086   0.440   3.943   2.831  1.9311  0.7782 -0.8607
11891TIP3   OH257087   0.986   3.820   4.253 -0.5057  0.6471  0.1371
11891TIP3    H157088   0.940   3.887   4.305  0.1188  1.3371 -0.1888
11891TIP3    H257089   0.959   3.837   4.163 -1.3039 -0.3244  0.1812
11892TIP3   OH257090   2.275   1.597   4.718 -0.2181 -0.6103 -0.0917
11892TIP3    H157091   2.365   1.607   4.686 -0.6006  1.2034 -0.6499
11892TIP3    H257092   2.285   1.573   4.810  0.8313  1.2267  0.2993
11893TIP3   OH257093   3.557   6.200   3.498  0.6584 -0.0763 -0.2889
11893TIP3    H157094   3.593   6.289   3.492  3.7287 -1.1139  1.3001
11893TIP3    H257095   3.480   6.209   3.554  2.2575  1.3134  1.8031
11894TIP3   OH257096   6.115   3.959   2.072  0.0705 -0.0750  0.3193
11894TIP3    H157097   6.167   3.967   2.152  0.8636 -3.5977  0.2392
11894TIP3    H257098   6.178   3.940   2.003 -0.8927 -0.1019 -0.5764
11895TIP3   OH257099   4.924   2.505   3.497 -0.3357  0.6055 -0.5273
11895TIP3    H157100   4.965   2.535   3.415  0.6325  1.0757  0.1225
11895TIP3    H257101   4.864   2.576   3.521  0.7585  1.3139  0.1492
11896TIP3   OH257102   3.474   4.214  15.371 -0.5699  0.3858  0.1676
11896TIP3    H157103   3.507   4.155  15.440 -0.8553 -0.5133 -0.4604
11896TIP3    H257104   3.380   4.217  15.384 -0.6072  0.3409 -0.0888
11897TIP3   OH257105   2.924   5.056  14.944 -0.3097 -0.3423  0.1204
11897TIP3    H157106   2.860   5.088  14.880  1.9757  0.5621 -1.7929
11897TIP3    H257107   2.975   4.991  14.896 -0.4505 -1.8426  1.9514
11898TIP3   OH257108   3.317   0.601  16.640 -0.1792  0.1745 -0.1353
11898TIP3    H157109   3.339   0.587  16.732 -1.5879 -2.5555 -0.1519
11898TIP3    H257110   3.400   0.623  16.598  0.7536 -0.1255  1.5093
11899TIP3   OH257111   4.420   6.154  12.789  0.2279  0.2400 -0.3720
11899TIP3    H157112   4.353   6.165  12.722  1.1263 -1.8946 -1.6880
11899TIP3    H257113   4.382   6.092  12.851  0.1518  0.6988  0.0410
11900TIP3   OH257114   5.011   5.081  16.976 -0.3506  0.1460  0.0228
11900TIP3    H157115   4.954   5.043  16.910  1.9783 -1.0249 -1.4084
11900TIP3    H257116   5.076   5.012  16.994 -0.8219  0.5076  3.4035
11901TIP3   OH257117   6.078   6.113  12.191  0.1032  0.4273 -0.3415
11901TIP3    H157118   5.999   6.060  12.199  0.1387  0.3577 -0.4407
11901TIP3    H257119   6.107   6.097  12.101  0.2476  0.4255 -0.2938
11902TIP3   OH257120   1.515   4.100   5.346  0.2962  0.6051 -0.0322
11902TIP3    H157121   1.466   4.064   5.271 -0.3806  0.3319  0.5276
11902TIP3    H257122   1.607   4.093   5.320  0.0807  0.2621 -0.7324
11903TIP3   OH257123   4.721   1.054  16.009 -0.1932 -0.0631  0.0956
11903TIP3    H157124   4.644   1.059  16.066  0.0316 -1.4089  0.5363
11903TIP3    H257125   4.686   1.065  15.921 -1.0035 -1.5049  0.2310
11904TIP3   OH257126   3.553   5.684   1.040  0.1295  0.3808  0.0267
11904TIP3    H157127   3.502   5.719   0.967 -0.7181  0.2187  0.5256
11904TIP3    H257128   3.642   5.677   1.007 -0.3260 -0.0670 -1.1216
11905TIP3   OH257129   0.240   5.350   0.984  0.6736 -0.1757  0.0554
11905TIP3    H157130   0.336   5.347   0.980  0.6903 -0.0867  0.3939
11905TIP3    H257131   0.213   5.264   0.951  0.8629 -0.1082 -0.2757
11906TIP3   OH257132   1.582   5.104  13.852  0.0041  0.6110 -0.0347
11906TIP3    H157133   1.567   5.143  13.766  1.3390 -1.2666 -1.1767
11906TIP3    H257134   1.665   5.057  13.842 -0.5984 -0.8898  1.8072
11907TIP3   OH257135   0.339   5.503  13.303 -0.1363  0.4137 -0.2634
11907TIP3    H157136   0.251   5.515  13.267  0.0142 -1.4447 -1.2628
11907TIP3    H257137   0.398   5.524  13.231  0.2941  2.7366  0.7169
11908TIP3   OH257138   6.650   0.916   0.211 -0.1284  0.0171 -0.2143
11908TIP3    H157139   6.619   1.007   0.216  1.6123  0.6010  0.1937
11908TIP3    H257140   6.697   0.911   0.128  0.8411 -0.1788  0.3473
11909TIP3   OH257141   5.893   4.280   0.109  0.0083 -0.2235 -0.3138
11909TIP3    H157142   5.922   4.366   0.140  0.6920  0.1572 -1.9174
11909TIP3    H257143   5.967   4.248   0.057 -1.0970 -0.8239 -1.5349
11910TIP3   OH257144   2.553   0.216  16.296  0.0097 -0.2464 -0.1403
11910TIP3    H157145   2.601   0.133  16.293  0.8390  0.2506 -1.1541
11910TIP3    H257146   2.618   0.280  16.325 -0.7579 -0.0221  1.1335
11911TIP3   OH257147   2.062   1.534   5.072 -0.2233  0.3669  0.4021
11911TIP3    H157148   2.030   1.515   4.984  1.7863 -0.7532 -0.1338
11911TIP3    H257149   2.128   1.466   5.088  1.6038  2.3576  1.5681
11912TIP3   OH257150   3.473   3.848   1.405 -0.2112 -0.0031  0.4880
11912TIP3    H157151   3.511   3.912   1.345  1.6018 -0.8684  0.6705
11912TIP3    H257152   3.402   3.895   1.449  1.1226  1.9021  0.6689
11913TIP3   OH257153   2.698   6.392  15.568  0.2881  0.1151  0.3031
11913TIP3    H157154   2.658   6.343  15.497 -1.7867 -2.2659  2.9826
11913TIP3    H257155   2.706   6.329  15.639  1.3746  2.6429  2.5214
11914TIP3   OH257156   5.134   5.768   0.523 -0.7249  0.0115  0.4994
11914TIP3    H157157   5.166   5.687   0.562  0.1409  0.7052  1.2599
11914TIP3    H257158   5.106   5.743   0.435  2.1542 -0.5923 -0.3074
11915TIP3   OH257159   6.016   3.171  16.922  0.1302 -0.2795  0.2627
11915TIP3    H157160   5.936   3.201  16.965 -0.2085  1.0239 -1.2380
11915TIP3    H257161   6.057   3.250  16.889  1.2752 -1.0920 -0.3070
11916TIP3   OH257162   1.432   3.343  13.508  0.1680 -0.3210 -0.7536
11916TIP3    H157163   1.471   3.289  13.439 -0.7326 -0.4504 -1.1614
11916TIP3    H257164   1.506   3.367  13.564  0.3610 -3.5194  0.4744
11917TIP3   OH257165   2.687   1.804  10.406  0.0240  0.4012 -0.1531
11917TIP3    H157166   2.728   1.867  10.347 -1.0839 -0.2450 -1.6435
11917TIP3    H257167   2.612   1.850  10.443  1.2702  1.1219  1.4992
11918TIP3   OH257168   2.654   1.681   3.956 -0.3642  0.1645  0.2476
11918TIP3    H157169   2.659   1.745   3.885 -0.7105 -0.9513 -0.8072
11918TIP3    H257170   2.654   1.596   3.911 -0.6467 -0.5524  1.5838
11919TIP3   OH257171   4.850   5.132   0.296 -0.9046 -0.4278  0.2912
11919TIP3    H157172   4.905   5.202   0.263 -0.1135 -2.0479 -1.9767
11919TIP3    H257173   4.760   5.162   0.282 -0.5675 -0.0081 -0.9550
11920TIP3   OH257174   4.681   5.805  13.461  0.5019 -0.2095 -0.2343
11920TIP3    H157175   4.656   5.716  13.483 -2.3318  0.4973 -0.4179
11920TIP3    H257176   4.629   5.860  13.520  1.3806  1.3609 -0.8800
11921TIP3   OH257177   5.695   2.430  15.010 -0.1326 -0.0114 -0.4589
11921TIP3    H157178   5.723   2.341  15.031  1.1456  0.4735 -0.0710
11921TIP3    H257179   5.602   2.432  15.033  0.1577 -0.8507  0.8311
11922TIP3   OH257180   3.220   1.688  12.232  0.0295  0.2035  0.2727
11922TIP3    H157181   3.248   1.778  12.211 -0.4275  0.6686  1.6549
11922TIP3    H257182   3.278   1.633  12.179  0.1385  1.3159 -0.7970
11923TIP3   OH257183   2.766   0.756  17.195  0.7280  0.2027 -0.0927
11923TIP3    H157184   2.673   0.769  17.173  0.1956 -1.2807  1.1972
11923TIP3    H257185   2.813   0.781  17.115 -0.8025  0.5004 -0.9239
11924TIP3   OH257186   3.235   6.431   0.228 -0.3908  0.2390 -0.1564
11924TIP3    H157187   3.282   6.432   0.312  1.0229 -0.9033 -0.9144
11924TIP3    H257188   3.215   6.523   0.212  1.3632  0.7341  0.3403
11925TIP3   OH257189   2.600   3.167  11.837  0.2792 -0.7101 -0.0180
11925TIP3    H157190   2.627   3.126  11.920  1.1073 -0.9338 -0.3973
11925TIP3    H257191   2.531   3.228  11.863  0.7632 -0.5360  0.8868
11926TIP3   OH257192   1.117   0.762  11.681 -0.2073  0.0347 -0.2381
11926TIP3    H157193   1.143   0.744  11.590  2.4513  1.9080  0.1060
11926TIP3    H257194   1.171   0.702  11.733  0.9170  1.4732  0.2799
11927TIP3   OH257195   4.106   1.690  16.769 -0.5402  0.4094  0.1106
11927TIP3    H157196   4.144   1.772  16.802  1.5381 -0.4077 -0.1299
11927TIP3    H257197   4.028   1.717  16.721 -0.0553  2.2250  0.2921
11928TIP3   OH257198   0.510   0.055  14.809 -0.0195  0.1971 -0.7493
11928TIP3    H157199   0.419   0.070  14.833  0.4858  1.9018  0.2280
11928TIP3    H257200   0.557   0.054  14.893  0.9536  0.0276 -1.2852
11929TIP3   OH257201   6.060   0.311  13.400  0.1793 -0.2483 -0.0896
11929TIP3    H157202   5.999   0.309  13.474  0.7311  1.7139  0.4576
11929TIP3    H257203   6.059   0.402  13.371  2.2680 -0.3427 -0.5441
11930TIP3   OH257204   6.694   0.529   0.346 -0.0358  0.5305 -0.4791
11930TIP3    H157205   6.623   0.561   0.292  0.7399 -1.0111 -2.4904
11930TIP3    H257206   6.768   0.585   0.324 -0.4419  1.7027  1.1067
11931TIP3   OH257207   4.658   3.236   6.146  0.2435  0.2190  0.2847
11931TIP3    H157208   4.568   3.255   6.172 -0.3550 -0.7509 -1.0401
11931TIP3    H257209   4.699   3.322   6.138 -0.3696  0.6400  1.5416
11932TIP3   OH257210   2.165   6.519   2.595  0.2976 -0.0636  0.2143
11932TIP3    H157211   2.124   6.577   2.530  0.4641 -0.7047 -0.4613
11932TIP3    H257212   2.140   6.431   2.569  0.9993 -0.3776  0.5850
11933TIP3   OH257213   5.589   0.533  16.702 -0.7834  0.0525  0.0740
11933TIP3    H157214   5.576   0.446  16.664  1.0365 -0.4764  0.6100
11933TIP3    H257215   5.677   0.530  16.738 -0.4634  2.3549 -0.4773
11934TIP3   OH257216   0.954   0.154  14.306 -0.2832 -0.3951 -0.1973
11934TIP3    H157217   0.928   0.072  14.348 -0.0289 -0.5856 -0.4083
11934TIP3    H257218   0.872   0.193  14.276 -0.3202 -1.0573 -0.9739
11935TIP3   OH257219   0.651   1.587   2.146  0.4327  0.5255 -0.6750
11935TIP3    H157220   0.574   1.551   2.190 -0.6339  0.9852 -2.1223
11935TIP3    H257221   0.693   1.642   2.212 -0.6028  0.4415  0.0681
11936TIP3   OH257222   6.299   3.273  16.136 -0.7138  0.1446 -0.1219
11936TIP3    H157223   6.214   3.235  16.112 -0.4604  0.5953 -1.7541
11936TIP3    H257224   6.330   3.315  16.056  0.3081  1.3896  0.9086
11937TIP3   OH257225   6.604   0.438  15.682 -0.2326 -0.5798 -0.6487
11937TIP3    H157226   6.583   0.360  15.632 -0.2817 -0.3670 -0.9605
11937TIP3    H257227   6.529   0.451  15.741 -1.6623  1.0139 -2.7663
11938TIP3   OH257228   4.456   5.234  14.437  0.3199  0.1462 -0.5119
11938TIP3    H157229   4.548   5.259  14.448  0.1558  0.6452 -0.2954
11938TIP3    H257230   4.459   5.139  14.425  0.7362 -0.0558  1.0426
11939TIP3   OH257231   4.996   2.288  14.810  0.7617  0.2544  0.3660
11939TIP3    H157232   5.027   2.214  14.862 -0.1888 -0.4679 -0.0848
11939TIP3    H257233   4.916   2.256  14.769  0.7052  1.3210 -0.3538
11940TIP3   OH257234   3.354   0.116   5.617 -0.0357 -0.0949 -0.1812
11940TIP3    H157235   3.357   0.211   5.626 -0.5534 -0.0212 -0.7327
11940TIP3    H257236   3.289   0.100   5.548  1.2009 -0.7569 -1.2449
11941TIP3   OH257237   6.143   3.612   2.640  0.2929 -0.1277 -0.3098
11941TIP3    H157238   6.159   3.587   2.731  0.8309  0.1369 -0.3341
11941TIP3    H257239   6.153   3.707   2.638  0.2326 -0.1260 -0.6391
11942TIP3   OH257240   4.224   2.889  14.686 -0.3071 -0.6135  0.1240
11942TIP3    H157241   4.196   2.972  14.649 -0.7944 -1.2077 -0.8562
11942TIP3    H257242   4.319   2.897  14.695 -0.2378 -0.3043 -0.8466
11943TIP3   OH257243   6.059   0.928   1.100  0.2508 -0.0530 -0.7275
11943TIP3    H157244   6.034   0.870   1.028 -0.4977  1.1649 -1.4610
11943TIP3    H257245   6.038   1.016   1.068  0.9370  0.5838  0.5563
11944TIP3   OH257246   5.112   1.812  13.393  0.0400 -0.6290  0.2964
11944TIP3    H157247   5.023   1.787  13.369  0.6087 -2.2115 -0.2404
11944TIP3    H257248   5.167   1.772  13.326  1.3122 -1.3347  1.7219
11945TIP3   OH257249   3.956   1.246  11.165  0.4705 -0.0072  0.0476
11945TIP3    H157250   3.926   1.300  11.091 -1.1135 -2.0861 -0.8923
11945TIP3    H257251   3.931   1.296  11.243  0.3714  1.2954 -0.7999
11946TIP3   OH257252   3.719   5.202   1.064  0.3246 -0.2808 -0.1441
11946TIP3    H157253   3.763   5.206   1.149 -0.1123  1.3917  0.0257
11946TIP3    H257254   3.642   5.259   1.074  0.9765  0.9928 -2.0446
11947TIP3   OH257255   3.526   3.993   1.712  0.2390  0.2662 -0.2374
11947TIP3    H157256   3.516   3.903   1.742 -0.8427  1.3480  2.8117
11947TIP3    H257257   3.462   4.001   1.641  0.6363 -1.4756 -0.8165
11948TIP3   OH257258   6.516   6.077   1.749  0.0143 -0.1888  0.1644
11948TIP3    H157259   6.553   5.988   1.754 -1.2675 -0.6007  3.1617
11948TIP3    H257260   6.422   6.063   1.748 -0.1634  1.1005 -1.0304
11949TIP3   OH257261   5.229   0.635   3.869 -0.1673 -0.2688 -0.7581
11949TIP3    H157262   5.275   0.556   3.840  0.5319 -0.1797  0.0599
11949TIP3    H257263   5.292   0.705   3.855 -0.3232 -0.0390 -0.3087
11950TIP3   OH257264   2.271   1.063   1.844 -0.0211 -0.1645 -0.0964
11950TIP3    H157265   2.206   0.997   1.821 -0.0245  1.2177 -4.5723
11950TIP3    H257266   2.220   1.141   1.864  0.1150 -0.2328  0.5074
11951TIP3   OH257267   6.445   5.942   5.583  0.0713 -0.0431 -0.3626
11951TIP3    H157268   6.471   5.971   5.671  0.1689 -1.1005 -0.0336
11951TIP3    H257269   6.374   5.880   5.598  0.1170 -0.2628 -1.0292
11952TIP3   OH257270   0.508   2.484   4.734  0.2895  0.5061  0.2699
11952TIP3    H157271   0.592   2.441   4.744  0.1372  0.3010  0.6734
11952TIP3    H257272   0.476   2.456   4.648  1.1752  1.5310 -0.4002
11953TIP3   OH257273   2.194   0.365  15.457 -0.2651  0.3052  0.2666
11953TIP3    H157274   2.157   0.453  15.466 -2.6682 -0.8797  2.7563
11953TIP3    H257275   2.154   0.331  15.377 -0.7807  0.8019  0.3074
11954TIP3   OH257276   5.606   2.260   4.423 -0.2613 -0.3377 -0.3320
11954TIP3    H157277   5.640   2.307   4.346  1.5331 -0.5757  0.2843
11954TIP3    H257278   5.537   2.204   4.388 -0.6717  0.8633 -1.4892
11955TIP3   OH257279   4.073   2.105   1.719 -0.1980 -0.2059 -0.2165
11955TIP3    H157280   4.070   2.118   1.624  1.3404 -0.2371 -0.2811
11955TIP3    H257281   4.093   2.012   1.729  0.3058 -0.0622  0.1234
11956TIP3   OH257282   3.251   2.636   1.415  0.3100  0.0735  0.4501
11956TIP3    H157283   3.254   2.712   1.473  0.6141  0.6589 -0.3314
11956TIP3    H257284   3.342   2.621   1.389  0.1335  0.0378 -0.1641
11957TIP3   OH257285   6.180   5.093   6.559 -0.1176  0.0592  0.0564
11957TIP3    H157286   6.173   5.100   6.654  0.9125 -1.4313  0.2551
11957TIP3    H257287   6.091   5.106   6.527 -0.9718 -2.2569  1.4197
11958TIP3   OH257288   4.224   5.126   1.392  0.3706  0.0037  0.7637
11958TIP3    H157289   4.219   5.218   1.417 -2.2224  0.1672 -0.2464
11958TIP3    H257290   4.166   5.080   1.452 -1.3664 -0.3944 -1.1440
11959TIP3   OH257291   3.200   6.253   5.356 -0.2405  0.6438 -1.0354
11959TIP3    H157292   3.237   6.165   5.363 -0.2377  0.5428 -2.2336
11959TIP3    H257293   3.276   6.310   5.348 -0.2144  0.8390  0.4441
11960TIP3   OH257294   2.698   4.200  12.610 -0.4251 -0.3400 -0.7472
11960TIP3    H157295   2.632   4.230  12.548  0.3770 -1.3086 -2.0710
11960TIP3    H257296   2.684   4.106  12.617  1.2137 -0.6596 -1.5315
11961TIP3   OH257297   4.704   6.012  14.247 -0.1533  0.0771 -0.1420
11961TIP3    H157298   4.742   6.010  14.160  0.4638  2.4910  0.0574
11961TIP3    H257299   4.612   6.034  14.232 -0.3087 -0.6336 -0.2535
11962TIP3   OH257300   2.927   4.843  10.722  0.4614  0.0754  0.3976
11962TIP3    H157301   2.945   4.937  10.725  2.6183 -0.2751 -0.4522
11962TIP3    H257302   2.831   4.836  10.726  0.1895  2.3976 -1.1777
11963TIP3   OH257303   3.724   4.236   2.079  0.3250  0.2426 -0.1054
11963TIP3    H157304   3.667   4.208   2.007 -0.6474 -0.9000  1.0855
11963TIP3    H257305   3.813   4.227   2.044 -0.0460 -2.6241 -0.3684
11964TIP3   OH257306   5.797   5.411   3.694  0.2267  0.0709 -0.2067
11964TIP3    H157307   5.824   5.498   3.665 -0.3333  0.1797 -0.4084
11964TIP3    H257308   5.794   5.359   3.613 -3.5411  0.9561 -0.7121
11965TIP3   OH257309   1.152   1.146  10.236  0.0810 -0.2188  0.3491
11965TIP3    H157310   1.142   1.069  10.291 -1.3384 -0.0112  0.4117
11965TIP3    H257311   1.077   1.201  10.258 -0.1285  0.1932 -1.2709
11966TIP3   OH257312   0.688   5.918  14.092 -0.1356 -0.2708  0.3688
11966TIP3    H157313   0.639   5.836  14.086 -1.0921  0.3790 -1.1796
11966TIP3    H257314   0.632   5.976  14.143 -1.7587  0.9492 -2.6396
11967TIP3   OH257315   1.240   1.804  11.455  0.2947 -0.0413 -0.3684
11967TIP3    H157316   1.286   1.868  11.509  0.6336 -0.2520 -0.4022
11967TIP3    H257317   1.158   1.846  11.431 -0.3263 -0.3641  1.1861
11968TIP3   OH257318   4.960   0.504  12.317 -0.3159 -0.0393  0.2529
11968TIP3    H157319   5.035   0.558  12.343 -0.7648  0.3289  0.7876
11968TIP3    H257320   5.000   0.426  12.278  0.3361  1.3721 -2.0125
11969TIP3   OH257321   1.722   4.731  12.718  0.4108 -0.5215  0.4848
11969TIP3    H157322   1.791   4.775  12.668  2.3180 -1.4598  2.2171
11969TIP3    H257323   1.697   4.657  12.663  2.7443 -1.7585  1.0080
11970TIP3   OH257324   1.423   1.827   0.463  0.0097  0.5328  0.1757
11970TIP3    H157325   1.352   1.832   0.400  0.0079  0.4094  0.1670
11970TIP3    H257326   1.498   1.866   0.418 -0.3354  1.6821  0.5941
11971TIP3   OH257327   1.143   5.074   0.312 -0.3221  0.2146  0.0224
11971TIP3    H157328   1.194   5.041   0.386  0.0758 -0.3415 -0.4886
11971TIP3    H257329   1.146   5.169   0.320 -0.6727  0.1466  0.9807
11972TIP3   OH257330   6.644   3.185  16.260 -0.4071 -0.0052  0.0142
11972TIP3    H157331   6.550   3.202  16.254 -0.5888 -1.1336 -0.3565
11972TIP3    H257332   6.654   3.132  16.339  0.0498  0.9413  0.6120
11973TIP3   OH257333   3.888   3.198  14.186  0.2407  0.4585  0.6019
11973TIP3    H157334   3.843   3.213  14.103  0.6922 -0.0886  0.2606
11973TIP3    H257335   3.953   3.269  14.191 -0.3531  0.9911  0.8914
11974TIP3   OH257336   0.745   6.643  15.901 -0.1511  0.6539  0.1025
11974TIP3    H157337   0.756   6.681  15.814 -0.6662 -0.9462 -0.6823
11974TIP3    H257338   0.654   6.662  15.924 -0.5221 -0.3893 -0.4525
11975TIP3   OH257339   0.845   1.960   3.166 -0.0147  0.4048  0.6599
11975TIP3    H157340   0.816   1.975   3.075  1.6086 -2.0597 -0.3140
11975TIP3    H257341   0.912   1.892   3.159 -0.3774 -0.3584  3.8043
11976TIP3   OH257342   2.592   1.122  14.445 -0.2786  0.1142  0.4740
11976TIP3    H157343   2.626   1.172  14.372  0.3914  1.7158  1.8532
11976TIP3    H257344   2.567   1.038  14.407 -0.2854  1.0483 -1.6380
11977TIP3   OH257345   1.445   6.335  11.225  0.3389 -0.7568 -0.3914
11977TIP3    H157346   1.423   6.307  11.313 -0.7189  1.9880  0.2436
11977TIP3    H257347   1.364   6.325  11.175 -0.0568  1.1020 -0.1553
11978TIP3   OH257348   1.945   2.544  16.649 -0.1655  0.6817 -0.3279
11978TIP3    H157349   1.971   2.585  16.731  0.2592  0.7943 -0.5154
11978TIP3    H257350   1.992   2.594  16.582 -0.4299  0.5259 -0.6305
11979TIP3   OH257351   1.634   2.743   4.763 -0.2892 -0.8464 -0.9565
11979TIP3    H157352   1.705   2.688   4.730  1.4822  0.8299 -0.0176
11979TIP3    H257353   1.587   2.687   4.825  1.2157 -1.4657 -0.3568
11980TIP3   OH257354   2.147   5.754   4.320 -0.1040  0.0479 -0.0282
11980TIP3    H157355   2.195   5.692   4.265 -0.6291 -0.4747  0.0973
11980TIP3    H257356   2.186   5.745   4.407  1.3581  1.5508 -0.5075
11981TIP3   OH257357   2.782   1.762  15.692  0.3824  0.2216 -0.0257
11981TIP3    H157358   2.695   1.772  15.652 -0.2328 -0.8588  0.9935
11981TIP3    H257359   2.815   1.851  15.699 -0.1511  0.5570 -1.4864
11982TIP3   OH257360   6.642   3.605  17.212 -0.0560 -0.8558 -0.0473
11982TIP3    H157361   6.648   3.511  17.199  1.3996 -0.7527 -0.1875
11982TIP3    H257362   6.639   3.641  17.123  0.8235 -0.6957 -0.0191
11983TIP3   OH257363   4.826   0.409   3.687  0.0403  0.5012  0.4966
11983TIP3    H157364   4.880   0.447   3.757  0.2490  1.3764 -0.1295
11983TIP3    H257365   4.742   0.454   3.694  0.1904  0.8781 -0.0569
11984TIP3   OH257366   4.981   2.877  17.086 -0.4002 -0.2074  0.2425
11984TIP3    H157367   4.975   2.951  17.026  2.4190 -0.3418 -0.2516
11984TIP3    H257368   4.960   2.801  17.032 -2.8535  0.1184  0.6512
11985TIP3   OH257369   4.398   6.172   4.062 -0.3495  0.4319 -0.1373
11985TIP3    H157370   4.418   6.116   3.987 -0.0813 -0.6357  0.7188
11985TIP3    H257371   4.306   6.196   4.050 -1.2991 -2.4576  0.9095
11986TIP3   OH257372   5.228   4.204   2.106  0.4348 -0.0740 -0.1954
11986TIP3    H157373   5.320   4.226   2.116  0.6370 -0.6531 -0.7290
11986TIP3    H257374   5.223   4.162   2.020 -0.1652 -0.9221  0.2552
11987TIP3   OH257375   2.013   4.284   5.749  0.1179  0.3355 -0.3021
11987TIP3    H157376   2.072   4.332   5.806 -1.0883  2.0190 -0.4530
11987TIP3    H257377   1.992   4.345   5.678 -1.0746 -0.5541 -0.7378
11988TIP3   OH257378   4.400   3.426   5.739 -0.3581 -0.1500 -0.3639
11988TIP3    H157379   4.308   3.439   5.761 -0.2680  3.5676 -1.8564
11988TIP3    H257380   4.449   3.471   5.808  0.2262  1.2239 -1.6527
11989TIP3   OH257381   0.621   4.763   2.983 -0.2455 -0.6564  0.4297
11989TIP3    H157382   0.623   4.725   2.895 -1.5402 -0.3581  0.2620
11989TIP3    H257383   0.695   4.824   2.984 -0.3361 -0.5199 -0.5142
11990TIP3   OH257384   0.323   4.239   0.719 -0.3724  0.0184 -0.1446
11990TIP3    H157385   0.338   4.145   0.726  0.1629 -0.0319 -1.7737
11990TIP3    H257386   0.289   4.265   0.805 -2.3472 -1.9826 -0.2854
11991TIP3   OH257387   2.363   6.773  16.515  0.1645 -0.1483 -0.5271
11991TIP3    H157388   2.322   6.687  16.510 -2.3051  0.9098  0.7413
11991TIP3    H257389   2.333   6.818  16.436 -1.8327  0.8934  0.7847
11992TIP3   OH257390   0.551   0.181   4.323  0.8428  0.0868 -0.1288
11992TIP3    H157391   0.606   0.252   4.290 -0.4095  2.3792  2.5610
11992TIP3    H257392   0.605   0.137   4.389  1.2042 -0.7896 -0.9925
11993TIP3   OH257393   2.659   2.581  17.125  0.2009  0.1770  0.4392
11993TIP3    H157394   2.587   2.616  17.176  0.2624  0.7519  0.1412
11993TIP3    H257395   2.632   2.594  17.034  0.1922 -0.6227  0.3260
11994TIP3   OH257396   0.220   6.130   4.464 -0.0407 -0.2044 -0.4971
11994TIP3    H157397   0.201   6.169   4.379  0.1978 -0.4152 -0.6473
11994TIP3    H257398   0.223   6.205   4.524 -1.8508 -0.2164 -0.3656
11995TIP3   OH257399   0.970   2.360   0.794  0.3536 -0.3363  0.1945
11995TIP3    H157400   0.892   2.408   0.766  1.0054  0.3154 -0.5400
11995TIP3    H257401   0.955   2.270   0.764  0.8940  0.2779 -2.0298
11996TIP3   OH257402   0.319   4.129  16.672  0.2415 -0.5960 -0.0052
11996TIP3    H157403   0.236   4.130  16.626  0.3721  0.9753 -0.2387
11996TIP3    H257404   0.382   4.166  16.610  1.6023 -3.8224 -0.6749
11997TIP3   OH257405   4.559   1.167  12.533 -0.3700 -0.0139  0.3529
11997TIP3    H157406   4.591   1.089  12.579  0.9783  0.9347  1.0486
11997TIP3    H257407   4.469   1.145  12.509 -0.1467 -1.6248  0.9103
11998TIP3   OH257408   5.480   2.563   4.086 -0.1063 -0.1640  0.3468
11998TIP3    H157409   5.419   2.501   4.125  0.2561  0.7619  2.4509
11998TIP3    H257410   5.424   2.630   4.047 -0.4681  0.6900  2.2798
11999TIP3   OH257411   5.497   0.367  14.474  0.5385 -0.2567 -0.2378
11999TIP3    H157412   5.571   0.419  14.505  0.1024  1.1554 -1.5230
11999TIP3    H257413   5.438   0.363  14.549  0.6712  0.9313 -0.0658
12000TIP3   OH257414   3.727   6.099   4.405  0.8037 -0.0331 -0.3664
12000TIP3    H157415   3.765   6.123   4.490 -1.5994 -0.3172  0.8192
12000TIP3    H257416   3.696   6.009   4.417 -2.8900  1.1851 -0.3446
12001TIP3   OH257417   1.189   2.026   0.777  0.0265  0.1625 -0.0012
12001TIP3    H157418   1.098   2.050   0.759  0.3647  2.0948  0.7554
12001TIP3    H257419   1.218   2.089   0.844  1.8101 -0.6535  0.0304
12002TIP3   OH257420   4.021   3.341  12.606 -0.3515  0.1799 -1.0939
12002TIP3    H157421   3.932   3.306  12.615 -0.1698 -0.2409 -0.8933
12002TIP3    H257422   4.028   3.407  12.675 -1.1568  1.5903 -2.3427
12003TIP3   OH257423   4.746   0.309   1.791  0.6616  0.2175 -0.0876
12003TIP3    H157424   4.688   0.341   1.722 -0.7905 -1.5998  0.2656
12003TIP3    H257425   4.835   0.325   1.758 -0.0181  1.5961 -1.2912
12004TIP3   OH257426   1.812   0.561   5.524  0.2701 -0.5580  0.0456
12004TIP3    H157427   1.758   0.579   5.447  0.3987 -1.1547 -0.1892
12004TIP3    H257428   1.752   0.521   5.586  0.0298  0.4799  0.4900
12005TIP3   OH257429   3.929   1.664   1.197  0.1803  0.6154 -0.0499
12005TIP3    H157430   3.841   1.655   1.235  0.6095  0.3942  0.8931
12005TIP3    H257431   3.918   1.731   1.129 -1.1708 -0.8660 -1.3469
12006TIP3   OH257432   5.413   1.099   5.980 -0.4032  0.0170  0.3443
12006TIP3    H157433   5.394   1.192   5.989 -0.4065  0.0264  0.2400
12006TIP3    H257434   5.462   1.092   5.897 -1.9584 -0.3079 -0.5686
12007TIP3   OH257435   3.579   0.722   4.346  0.2154  0.0619  0.1263
12007TIP3    H157436   3.673   0.739   4.341  0.5671 -1.7919  0.2639
12007TIP3    H257437   3.541   0.781   4.280  1.5515  0.1241 -0.6075
12008TIP3   OH257438   4.199   2.290   4.180 -0.5711 -0.0663  0.1323
12008TIP3    H157439   4.159   2.204   4.195 -1.7507  0.6582  1.3113
12008TIP3    H257440   4.200   2.331   4.267 -1.9222  1.8995 -0.7496
12009TIP3   OH257441   3.734   6.303   5.956 -0.3185 -0.6181  0.3317
12009TIP3    H157442   3.650   6.349   5.948  0.4508  1.1400  2.2389
12009TIP3    H257443   3.713   6.225   6.008 -0.6521  0.0866  1.2520
12010TIP3   OH257444   2.665   0.221   2.301  0.2239 -0.1490  0.2639
12010TIP3    H157445   2.744   0.275   2.302  0.1718 -0.0792  1.4929
12010TIP3    H257446   2.693   0.138   2.262  0.6230  0.2931 -0.3839
12011TIP3   OH257447   4.348   6.473  13.440 -0.2782 -0.5318 -0.0170
12011TIP3    H157448   4.373   6.387  13.474  0.3787 -0.9449 -1.5041
12011TIP3    H257449   4.428   6.509  13.403 -0.4813  0.8717  0.8823
12012TIP3   OH257450   5.169   5.928  15.507 -0.1425 -0.5715  0.1377
12012TIP3    H157451   5.147   5.943  15.415 -2.9944  1.0418  1.0117
12012TIP3    H257452   5.252   5.881  15.505 -0.1124 -0.4676 -3.2525
12013TIP3   OH257453   2.207   5.671  13.566  0.1054 -0.0828  0.6830
12013TIP3    H157454   2.224   5.590  13.517  0.4207  0.2649  0.2105
12013TIP3    H257455   2.126   5.706  13.528 -0.0506 -0.1961  0.9117
12014TIP3   OH257456   4.043   0.027  11.007  0.2563  0.0933  0.1760
12014TIP3    H157457   4.113   0.009  10.944  0.2533 -2.5784  0.8908
12014TIP3    H257458   4.087   0.070  11.080  0.8004  0.3125 -0.2774
12015TIP3   OH257459   4.187   3.415  12.406  0.0025 -0.2556 -0.1055
12015TIP3    H157460   4.130   3.479  12.363  0.7080  1.1051  0.9565
12015TIP3    H257461   4.131   3.375  12.473  0.4475  1.5465  1.3808
12016TIP3   OH257462   5.667   3.407   3.989 -0.4321  0.0835 -0.6123
12016TIP3    H157463   5.631   3.451   4.066  2.0055  1.5660 -0.2761
12016TIP3    H257464   5.718   3.334   4.025  1.4141  1.2894 -0.7441
12017TIP3   OH257465   5.491   6.553  16.676 -0.3021  0.4152  0.1814
12017TIP3    H157466   5.506   6.567  16.582  2.2355  0.7099  0.6062
12017TIP3    H257467   5.562   6.495  16.703  0.7420  2.7492  2.5420
12018TIP3   OH257468   4.426   2.639   3.141  0.2941 -0.3168  0.1948
12018TIP3    H157469   4.490   2.604   3.078  0.6939  2.2649 -0.9223
12018TIP3    H257470   4.388   2.714   3.096 -2.2480 -0.7337  1.5858
12019TIP3   OH257471   5.325   3.989  16.141 -0.2433 -0.1833 -0.5232
12019TIP3    H157472   5.387   3.983  16.067 -0.6834 -2.2641 -0.7392
12019TIP3    H257473   5.372   4.041  16.206  1.4515 -1.0698 -0.9918
12020TIP3   OH257474   4.280   0.078  15.443  0.4310 -0.4004 -0.0664
12020TIP3    H157475   4.246   0.127  15.518 -0.9982  0.7112 -1.4065
12020TIP3    H257476   4.373   0.066  15.462  0.3062  0.7869  1.3914
12021TIP3   OH257477   3.555   5.040   4.122 -0.3481 -0.5170 -0.0118
12021TIP3    H157478   3.537   5.099   4.196 -1.4381 -0.8846  0.0238
12021TIP3    H257479   3.500   5.073   4.051 -0.2844 -0.9493 -0.2627
12022TIP3   OH257480   0.579   3.485   0.075  0.2703 -0.0532  0.2138
12022TIP3    H157481   0.607   3.494  -0.016  0.0499 -0.8263  0.0703
12022TIP3    H257482   0.657   3.452   0.120  0.4544  0.5669  0.3564
12023TIP3   OH257483   1.740   3.237  12.097 -0.6656  0.1877 -0.0417
12023TIP3    H157484   1.651   3.267  12.079 -0.4313  1.1060  0.3193
12023TIP3    H257485   1.761   3.272  12.184 -0.9159 -2.2574  1.0296
12024TIP3   OH257486   4.080   1.211  11.654 -0.0345 -0.0998  0.1890
12024TIP3    H157487   4.093   1.203  11.748 -1.7904  2.2016  0.6745
12024TIP3    H257488   4.018   1.142  11.631  2.1030 -2.1007  0.2962
12025TIP3   OH257489   1.605   5.296  15.864 -0.0958  0.0887 -0.5371
12025TIP3    H157490   1.610   5.390  15.850 -1.0138  0.2613  0.2655
12025TIP3    H257491   1.566   5.286  15.951  1.1362 -1.0134 -0.0735
12026TIP3   OH257492   5.423   6.244   3.803  0.4824  0.2092 -0.1889
12026TIP3    H157493   5.438   6.154   3.832  1.7955  0.0920 -1.2245
12026TIP3    H257494   5.501   6.267   3.753  0.3249  2.0569  0.3735
12027TIP3   OH257495   1.820   1.595   5.873  0.1833 -0.2585  0.0601
12027TIP3    H157496   1.904   1.642   5.876  0.2250 -0.3484  0.3104
12027TIP3    H257497   1.844   1.502   5.878 -0.0417 -0.2238  2.3611
12028TIP3   OH257498   1.279   5.061  17.032 -0.4425  0.2630 -0.2826
12028TIP3    H157499   1.336   5.137  17.019  1.5229 -1.1261 -0.0666
12028TIP3    H257500   1.216   5.089  17.098  1.8317  0.9362  1.6979
12029TIP3   OH257501   2.787   5.984  13.080 -0.2885 -0.4844  1.2837
12029TIP3    H157502   2.800   5.939  13.163 -0.0321  0.6015  1.8378
12029TIP3    H257503   2.692   5.987  13.069 -0.2994 -3.1500  0.1306
12030TIP3   OH257504   3.884   5.320   1.863  0.6445  0.5874  0.0720
12030TIP3    H157505   3.942   5.378   1.815 -1.3541  1.5401 -1.2774
12030TIP3    H257506   3.942   5.262   1.913  2.7387  0.8095 -2.0565
12031TIP3   OH257507   6.509   5.867   4.217 -0.0709 -0.6448  0.3553
12031TIP3    H157508   6.589   5.822   4.242  1.1212  0.6188 -1.0572
12031TIP3    H257509   6.484   5.918   4.294 -0.3636 -2.1848  1.3004
12032TIP3   OH257510   1.769   6.308  17.191  0.0355  0.6838  0.2256
12032TIP3    H157511   1.702   6.370  17.164  0.9229  1.6616  0.2164
12032TIP3    H257512   1.810   6.278  17.110  0.5725  1.2026  0.2971
12033TIP3   OH257513   1.568   5.390   5.485 -0.1114  0.9692  0.1362
12033TIP3    H157514   1.567   5.318   5.547 -2.0483  0.9487  0.1082
12033TIP3    H257515   1.637   5.449   5.517  0.6165 -0.2637  0.8572
12034TIP3   OH257516   1.782   5.771   5.786 -0.8781 -0.3714  0.7423
12034TIP3    H157517   1.864   5.813   5.761  0.3954 -2.4053  1.3729
12034TIP3    H257518   1.726   5.780   5.709  0.2177  0.3034  0.0141
12035TIP3   OH257519   5.710   2.950  10.804  0.0515  0.4157 -0.5150
12035TIP3    H157520   5.626   2.937  10.759 -1.3406 -1.8797  2.4973
12035TIP3    H257521   5.776   2.948  10.735 -2.4455  3.7246 -3.1405
12036TIP3   OH257522   2.637   3.892  15.996  0.1817 -0.6946 -1.1618
12036TIP3    H157523   2.677   3.963  15.946  0.0122 -0.6035 -1.1703
12036TIP3    H257524   2.601   3.935  16.074  0.8973 -0.9133 -0.7094
12037TIP3   OH257525   4.731   1.537   1.822 -0.2632  0.0027  0.0413
12037TIP3    H157526   4.791   1.498   1.759  0.8235  1.8548 -0.1042
12037TIP3    H257527   4.774   1.528   1.907  0.2511  1.3919 -0.0712
12038TIP3   OH257528   3.247   0.901  14.413  0.0096 -0.6522  0.5537
12038TIP3    H157529   3.198   0.928  14.491  0.4593  2.2165 -0.0974
12038TIP3    H257530   3.328   0.863  14.447  1.4743  3.1216  1.5264
12039TIP3   OH257531   0.573   0.506  17.067  0.3726 -0.0593  0.3528
12039TIP3    H157532   0.610   0.447  17.132 -1.4943  0.0656  1.5832
12039TIP3    H257533   0.537   0.578  17.118 -1.0591  0.0835 -0.8186
12040TIP3   OH257534   1.710   5.305  14.000 -0.3885 -0.2632  0.2829
12040TIP3    H157535   1.642   5.255  13.954  1.8431 -1.5592 -1.8069
12040TIP3    H257536   1.740   5.369  13.936 -0.6397  1.3022  1.6946
12041TIP3   OH257537   1.431   5.111   1.243 -0.3949 -0.6822  0.0382
12041TIP3    H157538   1.376   5.038   1.216  1.7559 -1.8034 -1.4512
12041TIP3    H257539   1.482   5.077   1.316 -0.0072 -0.4069 -0.0995
12042TIP3   OH257540   4.958   5.586   2.260 -0.3767 -0.0776  0.0021
12042TIP3    H157541   5.038   5.639   2.267  0.2646 -1.2150  1.7356
12042TIP3    H257542   4.986   5.506   2.216 -1.0642  0.4386 -1.4102
12043TIP3   OH257543   6.512   4.761  14.187 -0.1112  0.2287 -0.0285
12043TIP3    H157544   6.529   4.748  14.094  1.0696 -0.0625  0.2090
12043TIP3    H257545   6.567   4.836  14.211  0.0838 -0.0982  0.5604
12044TIP3   OH257546   4.497   4.012  16.232  0.4714 -0.1408  0.1668
12044TIP3    H157547   4.404   4.023  16.215  1.0878  1.4366 -2.5734
12044TIP3    H257548   4.510   3.917  16.236 -1.4462 -0.3383  1.8952
12045TIP3   OH257549   6.456   6.539  12.343 -0.0392 -0.9728 -0.3723
12045TIP3    H157550   6.427   6.448  12.345  0.0783 -0.9863  1.5418
12045TIP3    H257551   6.427   6.572  12.258  2.0274 -3.4865 -2.1484
12046TIP3   OH257552   5.594   5.930   1.683 -0.0087  0.5748  0.0897
12046TIP3    H157553   5.640   6.001   1.639 -1.1020  1.6228  0.6109
12046TIP3    H257554   5.505   5.964   1.697 -0.3913 -0.6976  0.8140
12047TIP3   OH257555   0.058   3.739  16.169  0.0287  0.0871  0.2308
12047TIP3    H157556  -0.014   3.744  16.106 -1.2637 -0.3014  1.6239
12047TIP3    H257557   0.123   3.682  16.128 -0.2870  0.7505 -1.2048
12048TIP3   OH257558   6.730   3.502  14.616  0.0091  0.0806  0.0258
12048TIP3    H157559   6.647   3.473  14.653 -0.3384  0.1982 -0.6609
12048TIP3    H257560   6.779   3.421  14.600  0.5616  0.0749  1.6518
12049TIP3   OH257561   6.646   0.530   3.274 -0.3279 -0.7224  0.5943
12049TIP3    H157562   6.623   0.508   3.364 -1.6003  0.2870  0.5370
12049TIP3    H257563   6.710   0.600   3.282  0.5158 -1.5026  0.7237
12050TIP3   OH257564   0.777   0.079  11.812  0.3435 -0.4614 -0.0694
12050TIP3    H157565   0.846   0.053  11.750  1.5310  2.1664  0.0663
12050TIP3    H257566   0.816   0.150  11.863 -1.8108 -0.2579  1.3709
12051TIP3   OH257567   5.121   3.371   5.237 -0.0350  0.0848 -0.2510
12051TIP3    H157568   5.064   3.376   5.313  0.7970 -0.3057  0.4098
12051TIP3    H257569   5.163   3.457   5.233  0.2002 -0.0202 -0.0459
12052TIP3   OH257570   6.412   3.094  13.653  0.5213 -0.0848 -0.3611
12052TIP3    H157571   6.326   3.054  13.658 -0.4243  2.0623  1.7173
12052TIP3    H257572   6.403   3.163  13.586  0.6475  0.0593 -0.2314
12053TIP3   OH257573   0.357   1.556   5.422  0.1733  0.3853 -0.3928
12053TIP3    H157574   0.335   1.615   5.494 -3.2061 -1.7812  0.4556
12053TIP3    H257575   0.350   1.611   5.343 -2.9723  1.1495  0.3735
12054TIP3   OH257576   5.973   5.926  14.593  0.0293  0.8320 -0.4561
12054TIP3    H157577   6.039   5.912  14.661 -1.5581  0.8673  1.1184
12054TIP3    H257578   5.919   5.846  14.595 -0.5530  1.2050 -1.0704
12055TIP3   OH257579   0.914   5.391   2.883  0.3097 -0.3956  0.4257
12055TIP3    H157580   0.912   5.325   2.952 -1.0477 -0.8232 -0.0073
12055TIP3    H257581   0.972   5.355   2.816 -1.3356 -1.6875 -0.3260
12056TIP3   OH257582   5.663   3.198  15.273 -0.6089  0.6121 -0.1675
12056TIP3    H157583   5.673   3.137  15.200  0.1828  1.7265 -1.0091
12056TIP3    H257584   5.738   3.256  15.266  0.1011  0.0219  2.2469
12057TIP3   OH257585   3.008   3.205   1.723  0.2961  0.1650 -0.0637
12057TIP3    H157586   2.931   3.201   1.780  1.5183  3.3728  1.9995
12057TIP3    H257587   3.078   3.167   1.776  1.2809  2.4673  0.3522
12058TIP3   OH257588   0.613   2.010  10.908 -0.6244 -0.5772 -0.2975
12058TIP3    H157589   0.643   1.983  10.821  2.8105 -0.1854  0.6950
12058TIP3    H257590   0.664   1.957  10.969  1.2053  3.0501  1.5385
12059TIP3   OH257591   1.129   6.472   4.581 -0.0740  0.1312  0.0944
12059TIP3    H157592   1.202   6.410   4.591 -0.5900 -0.7183 -1.2643
12059TIP3    H257593   1.169   6.558   4.592  1.0375 -0.3611 -0.0184
12060TIP3   OH257594   5.593   5.730  15.243 -0.3549  0.0372  0.5374
12060TIP3    H157595   5.535   5.655  15.248 -0.7465  0.0595 -2.6783
12060TIP3    H257596   5.563   5.788  15.313 -1.9864 -1.4505  1.1090
12061TIP3   OH257597   2.788   6.771  11.553 -0.8799 -0.1227  0.4317
12061TIP3    H157598   2.760   6.849  11.506 -0.9535 -0.6535 -0.4111
12061TIP3    H257599   2.744   6.699  11.509 -1.7648 -0.5353  1.9696
12062TIP3   OH257600   4.757   4.252  12.922  0.3298 -0.2284  0.7602
12062TIP3    H157601   4.737   4.315  12.852  0.3953 -0.8492  0.1775
12062TIP3    H257602   4.811   4.185  12.879  1.4379  0.0412  1.6979
12063TIP3   OH257603   5.603   2.304  14.034  0.0685  0.4831 -0.2375
12063TIP3    H157604   5.523   2.349  14.009  0.0745  0.5416 -0.1534
12063TIP3    H257605   5.580   2.211  14.033 -0.9230  0.6336  2.9657
12064TIP3   OH257606   1.474   0.848  12.681  0.2528  0.2338  0.4009
12064TIP3    H157607   1.459   0.759  12.712 -0.5586  0.5291  0.8895
12064TIP3    H257608   1.395   0.869  12.631  0.0037  1.0308  1.1257
12065TIP3   OH257609   3.346   0.854  11.137  0.4156  0.1081 -0.1800
12065TIP3    H157610   3.399   0.776  11.158  1.4927  1.2907  1.6401
12065TIP3    H257611   3.334   0.897  11.221 -1.8208  0.9058 -0.8916
12066TIP3   OH257612   1.617   1.308   4.764 -0.1268  0.0269  0.3533
12066TIP3    H157613   1.661   1.313   4.679  0.5075  0.8272  0.7184
12066TIP3    H257614   1.587   1.397   4.781  0.7119  0.1164  1.4634
12067TIP3   OH257615   1.561   2.086  10.334 -0.5055 -0.3120  0.9135
12067TIP3    H157616   1.648   2.056  10.307 -0.8113 -1.2482  0.9606
12067TIP3    H257617   1.544   2.039  10.415 -1.1086 -0.2092  0.8435
12068TIP3   OH257618   6.056   4.153   3.440  0.4400 -0.0945  0.2030
12068TIP3    H157619   5.973   4.183   3.403  1.3379  0.8067 -1.1165
12068TIP3    H257620   6.080   4.219   3.504  0.8091  0.3562 -0.3941
12069TIP3   OH257621   5.860   3.085   5.313  0.1172  0.1860  1.1775
12069TIP3    H157622   5.767   3.098   5.297  0.0779 -1.5346 -0.2709
12069TIP3    H257623   5.866   2.995   5.346  1.3795 -0.2049 -0.0667
12070TIP3   OH257624   1.906   3.396   0.669 -0.4593  0.1239  0.0158
12070TIP3    H157625   1.837   3.410   0.733 -0.0553 -1.8822  0.9545
12070TIP3    H257626   1.876   3.441   0.590 -3.5676 -1.9049 -0.0795
12071TIP3   OH257627   2.915   0.042   5.865 -0.4742  0.2230 -0.0047
12071TIP3    H157628   2.830   0.037   5.822 -1.5091  0.0241  1.9961
12071TIP3    H257629   2.913  -0.028   5.931  0.4952  1.4004  1.3163
12072TIP3   OH257630   5.168   5.806   3.612  0.3686 -0.2845 -0.2488
12072TIP3    H157631   5.180   5.846   3.526 -0.6766 -0.5798 -0.5495
12072TIP3    H257632   5.072   5.802   3.622  0.4925  0.1505  1.1125
12073TIP3   OH257633   2.944   4.049   0.778  1.3795 -0.2796 -0.2559
12073TIP3    H157634   3.004   4.020   0.847 -0.8914 -0.3080  1.7409
12073TIP3    H257635   2.989   4.124   0.739  0.8254  2.6109  4.2306
12074TIP3   OH257636   6.533   4.260  13.608  0.3504 -0.0528 -0.1036
12074TIP3    H157637   6.542   4.348  13.570 -0.1990 -0.7365 -1.8515
12074TIP3    H257638   6.450   4.263  13.656 -0.0779  0.1395 -0.8504
12075TIP3   OH257639   1.307   3.714   3.404 -0.5066 -0.0290  0.0291
12075TIP3    H157640   1.359   3.699   3.324 -0.3892  0.1167  0.0782
12075TIP3    H257641   1.363   3.681   3.474 -0.0887  0.9749  0.1794
12076TIP3   OH257642   1.611   3.719  16.948 -0.4584  0.1055  0.3511
12076TIP3    H157643   1.562   3.798  16.927 -1.5493 -0.2470  1.4523
12076TIP3    H257644   1.641   3.686  16.863 -1.7659  0.5796 -0.3189
12077TIP3   OH257645   6.069   2.614  13.328 -0.0143  0.2040 -0.0456
12077TIP3    H157646   6.032   2.694  13.290  0.5966  0.1540 -0.7623
12077TIP3    H257647   6.114   2.571  13.254 -0.7640 -1.0460  0.2170
12078TIP3   OH257648   6.295   4.178  12.031 -0.1263 -0.3510 -0.4709
12078TIP3    H157649   6.359   4.234  11.986  0.3702 -0.5944 -0.0615
12078TIP3    H257650   6.318   4.184  12.123  0.1692 -1.5335 -0.4582
12079TIP3   OH257651   2.849   5.083   4.761  0.0765 -0.5948  0.3441
12079TIP3    H157652   2.857   5.098   4.667 -0.2615 -0.0475  0.3998
12079TIP3    H257653   2.845   5.171   4.799 -1.1344 -0.8131  0.7500
12080TIP3   OH257654   5.607   5.906  16.536 -0.2404  0.2706 -0.4142
12080TIP3    H157655   5.581   5.957  16.612 -1.4178 -0.1549 -0.5247
12080TIP3    H257656   5.525   5.889  16.489  0.5647  1.3630 -2.2983
12081TIP3   OH257657   0.798   0.105   2.783  0.1433  0.4613 -0.6926
12081TIP3    H157658   0.770   0.140   2.868  0.5200  0.3815 -0.5377
12081TIP3    H257659   0.833   0.181   2.736  0.0614  0.4779 -0.7288
12082TIP3   OH257660   4.860   6.538  16.370 -0.1794 -0.2094  0.6142
12082TIP3    H157661   4.952   6.536  16.397 -0.7163  1.0462  2.5637
12082TIP3    H257662   4.817   6.473  16.426 -0.8252  0.5742  1.0398
12083TIP3   OH257663   5.260   4.422  13.496 -0.0297 -0.0801 -0.0175
12083TIP3    H157664   5.318   4.347  13.489  0.0983 -0.0004  0.1828
12083TIP3    H257665   5.276   4.473  13.416 -0.1883 -0.3150 -0.1997
12084TIP3   OH257666   4.150   6.552   3.110 -0.3719  0.8848  0.0205
12084TIP3    H157667   4.236   6.592   3.123 -0.1535  0.4344 -0.0098
12084TIP3    H257668   4.088   6.624   3.115 -0.0073  1.1793  0.2638
12085TIP3   OH257669   0.694   0.578  14.476  0.0718  0.3460  0.1049
12085TIP3    H157670   0.780   0.570  14.517  0.1363  0.0871 -0.0800
12085TIP3    H257671   0.632   0.568  14.549  0.1642 -1.1195  0.0044
12086TIP3   OH257672   4.614   5.560  13.576 -0.3552 -0.0947 -0.0067
12086TIP3    H157673   4.644   5.470  13.577  1.6195  0.5543  1.5461
12086TIP3    H257674   4.519   5.554  13.591 -0.0730 -1.8332  1.1800
12087TIP3   OH257675   2.304   2.097   2.354 -0.3503  0.3676  0.1943
12087TIP3    H157676   2.233   2.066   2.299 -0.6487 -0.4654  1.0311
12087TIP3    H257677   2.291   2.192   2.360 -2.1641  0.0550  1.4161
12088TIP3   OH257678   5.743   5.021   0.545  0.1240  0.1866  0.0232
12088TIP3    H157679   5.795   4.989   0.471  1.5219 -1.0212  1.4982
12088TIP3    H257680   5.750   5.116   0.540  1.3128  0.0740 -0.6260
12089TIP3   OH257681   3.653   0.595   0.912  0.5505 -0.5153 -0.5376
12089TIP3    H157682   3.561   0.621   0.922  0.0009 -2.2066 -0.8609
12089TIP3    H257683   3.654   0.545   0.830  1.3936 -2.0581  0.3903
12090TIP3   OH257684   6.736   6.305   5.356 -0.1120  0.1531  0.5344
12090TIP3    H157685   6.771   6.225   5.396 -1.6689 -0.8301 -0.0115
12090TIP3    H257686   6.742   6.288   5.262  1.1209  1.3952  0.3708
12091TIP3   OH257687   6.335   4.710  12.599 -0.2999 -0.1490 -0.0093
12091TIP3    H157688   6.273   4.645  12.633 -0.4880  0.3254  0.5565
12091TIP3    H257689   6.335   4.780  12.664  0.5504  0.0295 -0.1979
12092TIP3   OH257690   2.707   1.091  16.694  0.0948  0.0090  0.5152
12092TIP3    H157691   2.696   1.045  16.778  1.9138  1.2780  1.5056
12092TIP3    H257692   2.802   1.102  16.686 -0.0997  0.2596 -1.5367
12093TIP3   OH257693   4.953   3.200   3.139  0.3888  0.6911  0.1781
12093TIP3    H157694   4.904   3.279   3.114 -2.5413 -0.5815  1.5902
12093TIP3    H257695   4.971   3.156   3.057 -2.8843  0.0969 -0.3041
12094TIP3   OH257696   2.922   3.505   4.380 -0.0119 -0.4273 -0.2785
12094TIP3    H157697   2.890   3.444   4.446 -0.2399 -1.1750 -1.0726
12094TIP3    H257698   3.012   3.524   4.407 -0.4745  0.1497  0.8674
12095TIP3   OH257699   1.508   2.097  16.876 -0.4612 -0.7380  0.0420
12095TIP3    H157700   1.591   2.103  16.828 -0.2655 -1.0807  0.3337
12095TIP3    H257701   1.460   2.175  16.850 -0.6770 -1.3067 -1.3107
12096TIP3   OH257702   0.923   5.702   2.774 -0.2459 -0.3486 -0.3345
12096TIP3    H157703   0.916   5.717   2.868  0.8575 -0.4858 -0.2237
12096TIP3    H257704   0.926   5.790   2.736 -2.8639 -0.2691 -0.4354
12097TIP3   OH257705   6.596   4.549   1.795  0.2122 -0.9320 -0.2040
12097TIP3    H157706   6.509   4.534   1.832 -0.0536 -0.5886 -0.6750
12097TIP3    H257707   6.646   4.589   1.866 -0.6300  0.7849 -0.5287
12098TIP3   OH257708   3.762   2.383  10.808  0.2005 -0.3088  0.0069
12098TIP3    H157709   3.775   2.296  10.846  1.8701 -0.6985 -1.4040
12098TIP3    H257710   3.835   2.435  10.841 -0.8107  0.5906  0.8756
12099TIP3   OH257711   4.506   4.745   5.748  0.3013 -0.0488  0.3802
12099TIP3    H157712   4.438   4.807   5.776  1.2816  0.3274  1.9755
12099TIP3    H257713   4.508   4.754   5.652 -2.2699 -0.4740  0.2405
12100TIP3   OH257714   5.536   6.419  11.722 -0.1754 -0.1235 -0.2762
12100TIP3    H157715   5.526   6.514  11.719  0.7498  0.1299  2.4335
12100TIP3    H257716   5.596   6.399  11.651  0.6908  1.5123 -0.0495
12101TIP3   OH257717   1.290   2.508  11.678 -0.6324 -0.3798  0.0243
12101TIP3    H157718   1.294   2.454  11.599  0.4834  0.1104 -0.2777
12101TIP3    H257719   1.342   2.459  11.742 -1.3709 -0.6791  0.3904
12102TIP3   OH257720   3.054   4.782   3.791  0.2670 -0.6587 -0.0113
12102TIP3    H157721   3.124   4.841   3.764 -0.1632  0.3725  1.0559
12102TIP3    H257722   2.976   4.814   3.745 -0.1368  0.1375  1.1876
12103TIP3   OH257723   3.783   5.015  13.571 -1.0576 -0.1115 -0.0600
12103TIP3    H157724   3.768   4.952  13.642 -0.3214 -0.3039 -0.0705
12103TIP3    H257725   3.758   5.099  13.608  2.3758  0.2888  1.5626
12104TIP3   OH257726   4.740   5.144   0.577 -0.6815 -0.2358 -0.0299
12104TIP3    H157727   4.823   5.187   0.560  0.4056 -1.8074  1.0672
12104TIP3    H257728   4.711   5.112   0.492 -0.1813  0.3569 -0.4245
12105TIP3   OH257729   4.452   3.488  13.736 -0.0283  0.3143 -0.0008
12105TIP3    H157730   4.540   3.464  13.709 -0.0244  1.3583 -0.9386
12105TIP3    H257731   4.443   3.451  13.824  1.7649  1.2208  0.5895
12106TIP3   OH257732   0.325   1.815  11.660  0.4294  0.1163  0.2705
12106TIP3    H157733   0.346   1.881  11.726  2.5320 -1.0492  0.8023
12106TIP3    H257734   0.382   1.837  11.586  0.3700 -0.4920  0.0440
12107TIP3   OH257735   5.589   0.787  14.913 -0.2518 -0.2181 -0.3624
12107TIP3    H157736   5.589   0.697  14.879  0.1988  0.0290 -1.0386
12107TIP3    H257737   5.637   0.781  14.996 -0.7396 -0.7049 -0.1109
12108TIP3   OH257738   0.317   1.037  17.004  0.4654  0.3009 -0.2464
12108TIP3    H157739   0.316   1.131  17.025  1.3968  0.2025  0.2883
12108TIP3    H257740   0.289   0.995  17.086  1.8683  0.0197  0.0885
12109TIP3   OH257741   3.964   0.480  12.400  0.0135  0.1635  0.3129
12109TIP3    H157742   3.879   0.484  12.445 -0.3889  1.6309 -0.5490
12109TIP3    H257743   3.962   0.397  12.352 -0.9413  0.1929  0.2893
12110TIP3   OH257744   2.896   6.565   2.213 -0.1481  0.1558  0.4686
12110TIP3    H157745   2.983   6.572   2.251 -0.5501 -0.3750  1.4953
12110TIP3    H257746   2.908   6.590   2.121  0.6709  2.2417  1.1251
12111TIP3   OH257747   4.522   0.642   4.335  0.3855 -0.0078 -0.0302
12111TIP3    H157748   4.449   0.674   4.387  0.1800  0.2743 -0.4929
12111TIP3    H257749   4.600   0.682   4.374  0.2023  0.4434 -0.1358
12112TIP3   OH257750   3.298   4.132   2.627  0.6542 -0.3427  0.0548
12112TIP3    H157751   3.326   4.221   2.649  2.0909 -1.0437  1.1901
12112TIP3    H257752   3.228   4.144   2.562 -0.2185  1.6410  1.3147
12113TIP3   OH257753   0.109   2.496  15.512  0.0760 -0.0897 -0.4551
12113TIP3    H157754   0.030   2.484  15.459  0.0163 -1.9374  0.0286
12113TIP3    H257755   0.166   2.550  15.457 -2.4245  3.3435  0.1778
12114TIP3   OH257756   3.880   5.979  14.232 -0.5240 -0.2695  0.6316
12114TIP3    H157757   3.891   5.949  14.323 -0.8600  1.2607  1.1930
12114TIP3    H257758   3.874   6.074  14.239  0.8725 -0.0240 -1.1415
12115TIP3   OH257759   6.514   6.175   3.065 -0.3993  0.4486  0.2266
12115TIP3    H157760   6.523   6.147   2.974  3.5086  2.2552 -0.0462
12115TIP3    H257761   6.458   6.252   3.061 -0.6714  0.2089 -0.5938
12116TIP3   OH257762   2.714   3.515   1.088  0.1435 -0.2555 -0.8904
12116TIP3    H157763   2.807   3.530   1.105  0.1419  1.0985 -1.9616
12116TIP3    H257764   2.673   3.600   1.105 -1.0727 -1.0996  0.5935
12117TIP3   OH257765   2.456   3.713   3.345  0.7199 -0.5943  0.2154
12117TIP3    H157766   2.452   3.795   3.295  0.6155 -1.0939 -0.6014
12117TIP3    H257767   2.459   3.741   3.436  0.7556  0.3258 -0.0634
12118TIP3   OH257768   2.847   6.729  11.843  0.3610 -0.2361  0.0070
12118TIP3    H157769   2.855   6.747  11.750  0.1340 -1.1164 -0.1880
12118TIP3    H257770   2.927   6.682  11.866  1.2356  1.5226  0.6455
12119TIP3   OH257771   4.190   4.388   6.355  0.3198 -0.2613 -0.1311
12119TIP3    H157772   4.204   4.403   6.262  2.3010 -0.2485  0.1666
12119TIP3    H257773   4.242   4.455   6.399 -1.0471  0.0933  0.9948
12120TIP3   OH257774   6.276   3.580   5.546 -0.1612 -0.0157 -0.0803
12120TIP3    H157775   6.210   3.569   5.477 -0.7904  1.1114  0.3345
12120TIP3    H257776   6.227   3.615   5.620  0.8169  0.3117  0.4065
12121TIP3   OH257777   0.935   0.043   3.887 -0.0575  0.8508  0.4219
12121TIP3    H157778   0.954   0.095   3.965 -0.5978 -1.9116  2.4709
12121TIP3    H257779   0.876  -0.026   3.919 -0.8447  0.0786 -2.5917
12122TIP3   OH257780   0.854   1.640  12.021 -0.4389 -0.0699  0.2790
12122TIP3    H157781   0.905   1.592  12.086 -0.5779  0.6012  0.8975
12122TIP3    H257782   0.852   1.583  11.945  0.8214 -0.3142  0.4178
12123TIP3   OH257783   0.938   3.910  16.076  0.4731 -0.4257  0.3584
12123TIP3    H157784   0.991   3.972  16.027  2.5727 -0.8452  2.0040
12123TIP3    H257785   0.916   3.841  16.014  1.0832  0.2206 -0.5739
12124TIP3   OH257786   0.396   0.343  14.971 -0.0047 -0.1933 -0.5429
12124TIP3    H157787   0.352   0.318  15.052  1.1575 -1.4678 -0.2710
12124TIP3    H257788   0.481   0.377  14.999 -0.0137  0.3655 -1.1700
12125TIP3   OH257789   4.413   2.487   0.836 -0.1797 -0.5628 -0.1242
12125TIP3    H157790   4.380   2.567   0.877 -1.0281 -0.9620 -0.0003
12125TIP3    H257791   4.504   2.506   0.816  0.1971 -0.2648  1.7546
12126TIP3   OH257792   2.946   1.954  17.158  0.1817 -0.5140  0.1048
12126TIP3    H157793   2.971   2.045  17.176  0.4879 -0.8389  1.3647
12126TIP3    H257794   2.970   1.907  17.238 -1.0682 -1.4926 -0.0959
12127TIP3   OH257795   5.018   2.913   3.463  1.1030  0.3662 -0.3587
12127TIP3    H157796   5.096   2.864   3.490  0.6823 -0.5608 -0.7923
12127TIP3    H257797   4.974   2.855   3.401 -0.3093  0.5740  0.4176
12128TIP3   OH257798   0.334   4.623  11.131  0.0974  0.2474  0.3815
12128TIP3    H157799   0.242   4.616  11.155  0.3719  0.3653  1.4777
12128TIP3    H257800   0.337   4.693  11.065 -0.4895  0.7767  0.9159
12129TIP3   OH257801   3.051   5.382   2.066  0.5744 -0.2879 -0.3293
12129TIP3    H157802   2.996   5.383   1.988 -0.6149  0.9401  0.5068
12129TIP3    H257803   3.128   5.331   2.040 -0.8633 -1.9220 -1.5707
12130TIP3   OH257804   2.496   0.354   2.456 -0.4341 -0.1267  0.0766
12130TIP3    H157805   2.546   0.316   2.384 -1.9687  2.1664 -2.2601
12130TIP3    H257806   2.419   0.298   2.464 -1.4183  0.9370 -1.6558
12131TIP3   OH257807   1.395   4.356   4.172  0.3164  0.4518  0.5367
12131TIP3    H157808   1.485   4.352   4.142  0.0321  1.7015 -0.5135
12131TIP3    H257809   1.402   4.381   4.264  1.0058  1.3784  0.2374
12132TIP3   OH257810   4.383   5.909   4.215  0.4138 -0.0891  0.9651
12132TIP3    H157811   4.410   6.001   4.207  1.7965 -0.6300 -0.8203
12132TIP3    H257812   4.464   5.862   4.235 -0.2891 -0.9402  1.8343
12133TIP3   OH257813   5.100   2.171   6.525  0.0591  0.0194  1.0381
12133TIP3    H157814   5.048   2.194   6.447  0.8878 -1.4789  0.0204
12133TIP3    H257815   5.188   2.157   6.491  1.6225  4.3983  3.0223
12134TIP3   OH257816   0.839   2.165  14.158 -0.0513 -0.8096  0.2929
12134TIP3    H157817   0.771   2.140  14.221  0.0614 -2.0299 -0.0584
12134TIP3    H257818   0.886   2.084  14.139 -1.6432 -0.9907 -3.2601
12135TIP3   OH257819   3.575   2.927   4.307 -0.1524 -0.1656  0.4388
12135TIP3    H157820   3.583   2.964   4.219  0.4310  0.8152  0.8996
12135TIP3    H257821   3.555   2.834   4.292  2.5084 -0.5983 -0.7657
12136TIP3   OH257822   4.287   4.556  12.290 -0.3089 -0.4786  0.4708
12136TIP3    H157823   4.349   4.586  12.223  1.7543  0.3713  2.6470
12136TIP3    H257824   4.249   4.477  12.254 -0.8225  1.0821 -2.5717
12137TIP3   OH257825   0.260   3.467   3.477 -0.3567 -0.5332 -0.6723
12137TIP3    H157826   0.169   3.484   3.500 -0.1189 -0.6192  0.3640
12137TIP3    H257827   0.295   3.553   3.452 -0.3231 -0.2388  0.3766
12138TIP3   OH257828   6.217   6.370  12.492  0.1391 -0.6386 -0.7037
12138TIP3    H157829   6.290   6.397  12.548 -1.7406  1.3114  0.8884
12138TIP3    H257830   6.230   6.275  12.481  2.0081 -0.6008  0.8562
12139TIP3   OH257831   4.592   3.043  13.660  0.0988  0.1313 -0.3711
12139TIP3    H157832   4.637   3.044  13.576  0.5366  1.7495 -0.1357
12139TIP3    H257833   4.526   3.112  13.653  0.2242  0.3707  0.6605
12140TIP3   OH257834   3.918   2.680   3.478  0.2040 -0.2978 -0.4637
12140TIP3    H157835   4.002   2.721   3.456  0.8207 -1.5313 -0.4403
12140TIP3    H257836   3.939   2.587   3.490 -0.9572 -0.4072  0.7544
12141TIP3   OH257837   1.794   0.474  14.550  0.4011 -0.0303 -0.1396
12141TIP3    H157838   1.821   0.515  14.468  0.4073 -0.7071 -0.4862
12141TIP3    H257839   1.700   0.487  14.555  0.3144 -0.5076 -0.5501
12142TIP3   OH257840   5.917   5.628   5.582  0.3233  0.1263  0.1332
12142TIP3    H157841   5.877   5.708   5.618  1.4184  0.2310  1.1389
12142TIP3    H257842   5.873   5.615   5.498 -1.5061  0.5027  0.9994
12143TIP3   OH257843   6.484   2.570   5.699 -0.5953  0.1030 -1.4738
12143TIP3    H157844   6.550   2.541   5.762 -0.9631 -0.0546 -1.1568
12143TIP3    H257845   6.401   2.537   5.734 -0.6181 -1.4704 -2.9282
12144TIP3   OH257846   4.948   5.426   0.903  0.5178  0.7366 -0.0956
12144TIP3    H157847   4.909   5.431   0.990 -0.6231 -0.2237 -0.5474
12144TIP3    H257848   4.885   5.470   0.845 -0.0429 -1.0443 -0.8631
12145TIP3   OH257849   2.686   3.082  17.208  0.4192 -0.4250 -0.1715
12145TIP3    H157850   2.621   3.023  17.170  1.0221 -0.9577 -0.3818
12145TIP3    H257851   2.687   3.158  17.150  0.8744 -0.9540 -0.8623
12146TIP3   OH257852   6.243   3.189   2.397 -0.2703  0.5571 -0.0866
12146TIP3    H157853   6.207   3.119   2.452  1.2264  1.9816  2.8255
12146TIP3    H257854   6.190   3.266   2.419  0.6455  1.2574 -0.2951
12147TIP3   OH257855   0.035   4.047   3.436  0.1425  0.1304  0.1138
12147TIP3    H157856   0.126   4.053   3.407 -0.3177  0.0921 -1.4074
12147TIP3    H257857  -0.015   4.086   3.364 -1.0280  0.3260  1.0289
12148TIP3   OH257858   4.061   0.127  16.284  0.0745 -0.2648  0.1743
12148TIP3    H157859   4.104   0.157  16.204  0.9703 -2.2163 -0.0924
12148TIP3    H257860   3.999   0.060  16.255 -0.7305  0.1268  0.9420
12149TIP3   OH257861   1.334   6.209  14.393 -0.0503 -0.2407  0.1774
12149TIP3    H157862   1.383   6.274  14.443  0.9724  0.9613 -2.3015
12149TIP3    H257863   1.245   6.244  14.387  0.2487  0.4372 -0.2808
12150TIP3   OH257864   1.308   6.056  13.243  0.1084 -0.3741 -0.6896
12150TIP3    H157865   1.248   6.011  13.183 -0.8237  1.3652 -1.1296
12150TIP3    H257866   1.394   6.043  13.204 -0.3141 -0.5527 -1.5976
12151TIP3   OH257867   5.835   6.463  12.553 -0.0873 -0.1014  0.5138
12151TIP3    H157868   5.759   6.412  12.525  0.6459 -1.2215  0.5324
12151TIP3    H257869   5.899   6.397  12.580  1.5256  0.7545 -1.0887
12152TIP3   OH257870   6.541   3.592  16.663 -0.2376  0.4305 -0.1041
12152TIP3    H157871   6.469   3.655  16.662  1.0338  1.9201  0.4793
12152TIP3    H257872   6.570   3.588  16.572  1.2441  2.5528  0.2396
12153TIP3   OH257873   1.696   3.488  16.471  0.0390  0.1833 -0.2541
12153TIP3    H157874   1.657   3.462  16.388  0.3598 -0.0666 -0.3282
12153TIP3    H257875   1.672   3.417  16.531  2.9123 -1.5063 -1.0220
12154TIP3   OH257876   4.416   5.385  13.055 -0.6300  0.2407 -0.3846
12154TIP3    H157877   4.364   5.309  13.081 -1.6966  0.9714 -0.3118
12154TIP3    H257878   4.464   5.410  13.134 -0.6790 -0.0397 -0.2658
12155TIP3   OH257879   3.099   5.872   5.607 -0.4264  0.0088  0.3691
12155TIP3    H157880   3.091   5.776   5.603 -1.5206  0.0855  0.3926
12155TIP3    H257881   3.008   5.902   5.617 -0.1790  1.1090 -0.6834
12156TIP3   OH257882   0.396   0.928  15.873  0.6338  0.2379  0.4914
12156TIP3    H157883   0.486   0.901  15.854 -0.1378 -1.3659 -1.0338
12156TIP3    H257884   0.406   1.002  15.933  3.0054  1.2752 -1.0750
12157TIP3   OH257885   6.216   0.081  17.130 -0.7231  0.2909  0.0088
12157TIP3    H157886   6.225   0.171  17.160 -0.7338 -0.0943  1.1938
12157TIP3    H257887   6.121   0.066  17.128 -0.7066  0.1498  0.2781
12158TIP3   OH257888   5.479   4.330  11.789  0.1403  0.0796 -0.4327
12158TIP3    H157889   5.464   4.318  11.883  0.1842 -1.1450 -0.5811
12158TIP3    H257890   5.570   4.358  11.783 -0.1723  1.1970 -0.0290
12159TIP3   OH257891   6.268   4.890  16.600 -0.1847 -0.1026  0.3222
12159TIP3    H157892   6.351   4.882  16.646  1.3391  1.3053 -2.0566
12159TIP3    H257893   6.265   4.815  16.542 -1.0482 -0.6693  1.0844
12160TIP3   OH257894   4.192   0.241  15.238  0.0940  0.0642 -0.6695
12160TIP3    H157895   4.197   0.165  15.296  3.0112  1.7765  1.4764
12160TIP3    H257896   4.283   0.267  15.224 -0.7419  1.9031 -3.0969
12161TIP3   OH257897   1.979   0.313   0.046 -0.6676 -1.0928  0.4870
12161TIP3    H157898   2.051   0.262   0.010 -0.9173 -2.0609  1.3436
12161TIP3    H257899   1.904   0.254   0.046 -1.7359  0.2358 -1.3502
12162TIP3   OH257900   6.648   4.399  16.841  0.1611  0.0942  0.2236
12162TIP3    H157901   6.574   4.398  16.780  1.8552 -0.8479 -1.8688
12162TIP3    H257902   6.661   4.308  16.864 -1.1078  0.5441  2.8442
12163TIP3   OH257903   3.853   4.495  10.859 -0.1313  0.6124 -0.2500
12163TIP3    H157904   3.782   4.454  10.810  0.9029  0.7467 -1.9063
12163TIP3    H257905   3.928   4.490  10.801  0.7398  2.2235  0.6898
12164TIP3   OH257906   4.992   0.371   1.676 -0.4171 -0.0684  0.2918
12164TIP3    H157907   5.017   0.459   1.650  1.4083 -0.3100  1.1273
12164TIP3    H257908   5.071   0.335   1.717 -0.5708 -2.6955 -1.5985
12165TIP3   OH257909   0.365   4.596   2.332 -0.1416 -0.1595  0.6939
12165TIP3    H157910   0.441   4.539   2.346 -1.3079 -2.0088 -0.2543
12165TIP3    H257911   0.299   4.561   2.392 -0.8364  0.2906  0.1907
12166TIP3   OH257912   0.813   4.503   5.086  0.1725 -0.0209 -0.3980
12166TIP3    H157913   0.787   4.474   4.998  1.2477 -2.5186  0.0849
12166TIP3    H257914   0.907   4.485   5.090  0.0817 -0.1143  1.3599
12167TIP3   OH257915   2.478   4.607   3.754  0.0065 -0.6878 -0.2724
12167TIP3    H157916   2.527   4.639   3.830 -1.3594 -1.0815  0.7994
12167TIP3    H257917   2.495   4.513   3.753 -3.1301 -1.3441  1.9512
12168TIP3   OH257918   6.707   3.459   5.480 -0.0853  0.0557  0.3336
12168TIP3    H157919   6.753   3.512   5.544  1.5656 -0.3054 -0.5086
12168TIP3    H257920   6.776   3.408   5.437 -1.2137 -0.1326 -1.3149
12169TIP3   OH257921   4.470   5.596   5.633  0.0980  0.2048 -0.1748
12169TIP3    H157922   4.504   5.508   5.615  0.7171  0.2407  0.8076
12169TIP3    H257923   4.520   5.653   5.573 -0.2888 -0.1038 -0.7967
12170TIP3   OH257924   6.786   5.988  14.492 -0.2571 -0.3657 -0.2389
12170TIP3    H157925   6.747   6.049  14.429  0.7770  0.0261 -0.5109
12170TIP3    H257926   6.728   5.911  14.490 -0.0969 -0.4521 -1.8454
12171TIP3   OH257927   2.791   1.719   3.360  0.5073  0.2937 -0.2541
12171TIP3    H157928   2.762   1.698   3.272  3.1895 -1.0612 -0.8948
12171TIP3    H257929   2.790   1.814   3.364 -1.8559  0.3187 -0.9263
12172TIP3   OH257930   4.929   2.671  16.943 -0.0607 -0.1642 -0.3397
12172TIP3    H157931   4.919   2.576  16.951 -1.0151  0.0606  1.2498
12172TIP3    H257932   4.853   2.699  16.893 -0.0369 -0.1597 -0.3754
12173TIP3   OH257933   4.278   0.462   5.420 -0.3146  0.2550 -0.1395
12173TIP3    H157934   4.239   0.461   5.508 -0.5092 -0.0069 -0.2288
12173TIP3    H257935   4.372   0.464   5.437 -0.3293 -0.5993  0.0831
12174TIP3   OH257936   5.975   6.647   5.002  0.2942 -0.5923 -0.6932
12174TIP3    H157937   5.937   6.589   4.936  1.1315 -1.2699 -0.5807
12174TIP3    H257938   5.905   6.710   5.020  0.6792  0.7406 -3.5598
12175TIP3   OH257939   4.596   3.701  12.153  0.5465 -0.4869 -0.0314
12175TIP3    H157940   4.654   3.769  12.119  1.4118 -1.0712  0.2620
12175TIP3    H257941   4.550   3.668  12.076 -0.4321  0.9424 -0.0741
12176TIP3   OH257942   3.730   3.886  12.091 -0.0839 -0.2919 -0.5826
12176TIP3    H157943   3.809   3.846  12.056  1.3409  3.5929 -2.0745
12176TIP3    H257944   3.672   3.894  12.015  0.5787  2.4809 -0.8592
12177TIP3   OH257945   4.520   6.620  15.957  0.3566 -0.0463  0.1496
12177TIP3    H157946   4.509   6.566  16.036 -0.2572 -0.3203 -0.1196
12177TIP3    H257947   4.534   6.556  15.887  0.0868  0.1642 -0.0962
12178TIP3   OH257948   5.042   4.085   3.414 -0.1982  0.0702  0.1634
12178TIP3    H157949   4.984   4.036   3.356 -1.1389 -1.4994  2.3688
12178TIP3    H257950   5.130   4.069   3.379 -0.5194 -2.9539  0.6463
12179TIP3   OH257951   3.976   1.355  14.545  0.0404  0.3793 -0.2444
12179TIP3    H157952   3.964   1.332  14.637 -0.4426 -0.6344 -0.5493
12179TIP3    H257953   3.987   1.450  14.545  0.6919  0.3044  0.9170
12180TIP3   OH257954   5.092   6.439   5.213 -0.6962 -0.4805 -0.6191
12180TIP3    H157955   5.111   6.528   5.245 -2.5287 -0.6010  0.9179
12180TIP3    H257956   5.127   6.437   5.124  1.6257  0.9647  0.2041
12181TIP3   OH257957   4.250   3.263  11.681  0.4914 -0.7489  0.0302
12181TIP3    H157958   4.261   3.238  11.590 -1.5616 -0.5962 -0.2834
12181TIP3    H257959   4.167   3.222  11.708  0.7143 -0.2152  1.6052
12182TIP3   OH257960   5.839   6.175   0.952  0.1759 -0.4503  0.3094
12182TIP3    H157961   5.798   6.119   1.018 -1.2426  1.5113  1.1525
12182TIP3    H257962   5.831   6.126   0.870  1.5144 -2.6925  1.4747
12183TIP3   OH257963   5.908   3.104   5.612  0.3711 -0.0566 -0.1656
12183TIP3    H157964   5.857   3.117   5.533  2.8739 -0.0979 -1.8329
12183TIP3    H257965   5.960   3.184   5.621  0.5325 -0.2881  1.1232
12184TIP3   OH257966   2.622   2.065  14.975 -0.5670 -0.0789 -0.3749
12184TIP3    H157967   2.691   2.035  14.916  0.0347  0.0520  0.2446
12184TIP3    H257968   2.668   2.083  15.057 -1.0858  1.5748 -0.4358
12185TIP3   OH257969   4.466   3.629  11.561  0.5428 -0.1978 -0.2660
12185TIP3    H157970   4.447   3.562  11.496  0.4936  0.0838 -0.5433
12185TIP3    H257971   4.413   3.605  11.637  2.1701 -1.6927  0.4265
12186TIP3   OH257972   3.336   4.479  12.986 -0.2789 -0.3897 -0.0077
12186TIP3    H157973   3.356   4.551  13.045 -2.4018 -0.1709  0.4854
12186TIP3    H257974   3.328   4.521  12.900 -1.0924 -0.0896  0.2089
12187TIP3   OH257975   5.206   3.448  13.330 -0.5185  0.0141  1.0577
12187TIP3    H157976   5.284   3.469  13.381 -0.3518 -3.5013  2.3427
12187TIP3    H257977   5.239   3.406  13.252 -1.0675  0.0718  0.7931
12188TIP3   OH257978   1.575   3.542  11.314  0.1475  0.1512  0.5631
12188TIP3    H157979   1.558   3.636  11.327  0.7787  0.4709 -0.8010
12188TIP3    H257980   1.562   3.503  11.401  0.3722  1.5752  1.2559
12189TIP3   OH257981   6.297   2.434  15.695 -0.0700  0.2140 -0.2509
12189TIP3    H157982   6.257   2.365  15.747 -1.0877  2.2910  1.8564
12189TIP3    H257983   6.233   2.453  15.626 -0.7214  0.4336  0.4026
12190TIP3   OH257984   1.185   5.453   1.617  0.5256  0.0968  0.2156
12190TIP3    H157985   1.259   5.408   1.659  0.2680 -0.9112 -0.3950
12190TIP3    H257986   1.151   5.511   1.685  1.9666  0.6653  0.4596
12191TIP3   OH257987   2.077   1.743  12.473 -0.0945 -0.2711  0.0330
12191TIP3    H157988   1.985   1.762  12.493 -0.1093 -0.6216  0.2984
12191TIP3    H257989   2.074   1.695  12.390 -0.0102  1.4758 -1.0243
12192TIP3   OH257990   0.555   6.497  15.173  0.3497  0.8882 -0.2036
12192TIP3    H157991   0.619   6.556  15.133  0.2226 -0.1767 -1.9853
12192TIP3    H257992   0.607   6.421  15.201  0.1963  0.9716  0.3189
12193TIP3   OH257993   5.704   6.647   4.383 -0.6461  0.0586 -0.4291
12193TIP3    H157994   5.635   6.585   4.357 -0.5478 -0.7183  1.0979
12193TIP3    H257995   5.677   6.677   4.470  0.9753 -0.2699  0.1883
12194TIP3   OH257996   6.407   1.735   0.559 -0.6071 -0.0617  0.7685
12194TIP3    H157997   6.467   1.734   0.634  1.4505 -0.8591 -0.8524
12194TIP3    H257998   6.405   1.645   0.528 -0.7490  0.4094 -0.6465
12195TIP3   OH257999   0.829   2.474  16.411 -0.5702 -0.6001  0.0301
12195TIP3    H158000   0.779   2.400  16.445 -2.9040 -0.2137 -2.3863
12195TIP3    H258001   0.780   2.503  16.333  3.2078  0.0469 -2.2597
12196TIP3   OH258002   1.148   0.430  14.013 -0.3940 -0.2980  0.4298
12196TIP3    H158003   1.084   0.441  14.084 -0.7960 -1.5929  0.2747
12196TIP3    H258004   1.104   0.466  13.936 -0.2619  0.3930  0.6737
12197TIP3   OH258005   0.789   1.134   3.879 -0.4542  1.0657  0.3821
12197TIP3    H158006   0.733   1.193   3.930  1.5089  1.6266  1.9620
12197TIP3    H258007   0.801   1.179   3.795  0.1187  2.3803  1.1650
12198TIP3   OH258008   4.834   2.217   2.452  0.6237  0.1342 -0.0766
12198TIP3    H158009   4.828   2.122   2.461  0.2782  0.1035 -0.6012
12198TIP3    H258010   4.849   2.231   2.358  4.7955  0.4009  0.5212
12199TIP3   OH258011   3.517   4.588   1.947  0.1043  0.1103  0.6447
12199TIP3    H158012   3.584   4.649   1.977 -0.1037  0.3365  0.6502
12199TIP3    H258013   3.542   4.568   1.857  0.5604 -0.3390  0.8667
12200TIP3   OH258014   6.756   0.212   1.407 -0.5221  0.0199  0.4285
12200TIP3    H158015   6.805   0.252   1.335 -1.8720  0.4216 -0.2800
12200TIP3    H258016   6.810   0.229   1.484  0.5670  0.2524 -0.3700
12201TIP3   OH258017   2.257   2.138  14.737  0.2333 -0.2044  0.2815
12201TIP3    H158018   2.249   2.062  14.796  0.5236 -0.5600 -0.1311
12201TIP3    H258019   2.210   2.208  14.782 -1.3186 -1.0305 -0.0160
12202TIP3   OH258020   6.235   6.033   1.725  0.3560  0.1855 -0.4789
12202TIP3    H158021   6.140   6.020   1.729  0.4560 -0.6409 -0.6407
12202TIP3    H258022   6.270   5.971   1.789  0.6097  2.8034  2.0223
12203TIP3   OH258023   1.819   5.170   3.907  0.4442 -0.2640  0.5829
12203TIP3    H158024   1.811   5.226   3.984 -0.8490  1.4818 -0.7715
12203TIP3    H258025   1.729   5.150   3.881  0.7897  0.9834 -1.7207
12204TIP3   OH258026   0.461   1.957   1.756 -0.6785 -0.2796 -0.1521
12204TIP3    H158027   0.424   2.039   1.788  2.2180  0.8010  0.5431
12204TIP3    H258028   0.552   1.958   1.786 -0.2817 -3.2336 -1.0878
12205TIP3   OH258029   5.285   5.805  14.032  0.6202  0.2213 -0.4587
12205TIP3    H158030   5.230   5.777  14.104 -0.6369 -0.0192 -1.4955
12205TIP3    H258031   5.329   5.885  14.064  0.6839 -0.3240  0.8296
12206TIP3   OH258032   6.751   3.486  15.248 -0.2725  0.5652  0.2091
12206TIP3    H158033   6.804   3.496  15.328 -2.2737  2.8863  1.3062
12206TIP3    H258034   6.725   3.576  15.225  1.0806  0.0529 -3.6646
12207TIP3   OH258035   2.542   6.089  14.500  0.2131  0.3558 -0.8758
12207TIP3    H158036   2.635   6.076  14.519 -0.2792 -0.8974  0.7949
12207TIP3    H258037   2.534   6.183  14.483  1.6096  0.6508  0.0243
12208TIP3   OH258038   1.388   3.411   5.418  0.2857 -0.1569  0.2329
12208TIP3    H158039   1.479   3.429   5.396  0.3372  0.1034  0.6451
12208TIP3    H258040   1.338   3.448   5.346  0.6356 -2.6938 -1.3612
12209TIP3   OH258041   1.206   2.712  13.914 -0.6034  0.0976  0.0228
12209TIP3    H158042   1.197   2.798  13.873  1.5000 -0.2349 -1.2351
12209TIP3    H258043   1.272   2.668  13.861 -0.3105 -1.6180  1.7651
12210TIP3   OH258044   2.600   4.002  14.314  0.0007  0.1976  0.5867
12210TIP3    H158045   2.645   3.971  14.393  1.4418  0.0219 -0.2925
12210TIP3    H258046   2.509   4.012  14.342  0.4348 -0.1078  2.2106
12211TIP3   OH258047   3.434   5.772  13.918  0.4766 -0.3236  0.0623
12211TIP3    H158048   3.492   5.817  13.979  1.2362 -0.2692 -0.6920
12211TIP3    H258049   3.405   5.840  13.857 -0.3710 -0.3525  0.4260
12212TIP3   OH258050   3.438   4.430   1.109  0.3173  0.2449 -0.1428
12212TIP3    H158051   3.375   4.360   1.092  0.1175  0.3286  0.2219
12212TIP3    H258052   3.394   4.485   1.175  1.9672 -1.3278  2.3211
12213TIP3   OH258053   0.413   2.527  14.922 -0.0161 -0.0772  0.0438
12213TIP3    H158054   0.423   2.557  15.012 -0.6391 -1.4834  0.5953
12213TIP3    H258055   0.425   2.432  14.927  1.3584 -0.0206 -1.5725
12214TIP3   OH258056   0.790   0.921  16.309  0.0105 -0.1398 -0.0217
12214TIP3    H158057   0.800   0.852  16.244 -3.4020 -0.1083 -0.6748
12214TIP3    H258058   0.755   0.877  16.386  1.6200  0.2378  0.9421
12215TIP3   OH258059   3.588   0.676  13.255  0.5584  0.2579 -0.0517
12215TIP3    H158060   3.625   0.589  13.242 -0.1006  0.0073 -0.3207
12215TIP3    H258061   3.662   0.736  13.245  1.1666 -0.3143  0.9474
12216TIP3   OH258062   2.728   2.202  10.622 -0.4191  0.1725  0.3170
12216TIP3    H158063   2.635   2.181  10.622 -0.1112 -1.2697  0.9362
12216TIP3    H258064   2.740   2.257  10.699 -1.2212  2.6664 -1.2719
12217TIP3   OH258065   3.277   1.948  12.046 -0.0977  0.2643 -0.1468
12217TIP3    H158066   3.353   1.891  12.035  0.4455  0.9405  0.0553
12217TIP3    H258067   3.315   2.034  12.065 -0.8939  1.0732 -2.1936
12218TIP3   OH258068   6.144   2.196   3.595  0.3090 -0.0543 -0.0086
12218TIP3    H158069   6.079   2.251   3.550  1.6272 -0.2718 -2.2480
12218TIP3    H258070   6.215   2.255   3.617 -0.1905 -0.0134  1.5935
12219TIP3   OH258071   3.724   3.570   5.908  0.2932  0.8568 -0.8811
12219TIP3    H158072   3.668   3.521   5.968  1.2827 -0.7449 -1.2479
12219TIP3    H258073   3.789   3.611   5.965 -0.3134  1.4619 -0.6131
12220TIP3   OH258074   1.908   0.574   2.981 -0.1232  0.3998 -0.3730
12220TIP3    H158075   1.867   0.569   3.067 -0.7023  0.3021 -0.6533
12220TIP3    H258076   1.904   0.667   2.957  1.0037  0.5942  0.1696
12221TIP3   OH258077   4.437   1.903  11.260  0.0141 -0.2386 -0.1790
12221TIP3    H158078   4.458   1.898  11.167 -1.4457  0.1817 -0.5372
12221TIP3    H258079   4.457   1.993  11.285 -1.3929  0.1779 -0.5327
12222TIP3   OH258080   6.008   6.216  13.780  0.0249 -0.8260  0.6527
12222TIP3    H158081   5.983   6.293  13.832 -1.0867 -0.9205  0.2495
12222TIP3    H258082   6.043   6.253  13.699 -1.5206 -0.7787  0.0090
12223TIP3   OH258083   0.117   5.307   4.617  0.5736  0.3646 -0.1064
12223TIP3    H158084   0.195   5.330   4.668  0.0220  1.6537  0.1727
12223TIP3    H258085   0.053   5.279   4.682  0.6361 -0.2310 -0.2958
12224TIP3   OH258086   4.617   4.863  14.682 -0.6187 -0.1169 -0.1830
12224TIP3    H158087   4.532   4.867  14.638 -1.2789 -2.0925  0.8475
12224TIP3    H258088   4.606   4.797  14.750  1.7457 -0.3938 -0.0126
12225TIP3   OH258089   2.462   6.741   2.096 -0.1412  0.4742 -0.2345
12225TIP3    H158090   2.462   6.837   2.103 -2.8922  0.6519 -2.0062
12225TIP3    H258091   2.471   6.724   2.002 -2.5889 -0.8863 -0.2719
12226TIP3   OH258092   0.728   0.597   0.399  0.2614  0.4257  0.1189
12226TIP3    H158093   0.808   0.615   0.350  0.5939  1.8451  1.1400
12226TIP3    H258094   0.759   0.568   0.485 -0.3071  1.9527  0.8547
12227TIP3   OH258095   1.297   3.949  12.307  0.3072 -0.0125 -0.2544
12227TIP3    H158096   1.208   3.977  12.329  0.3952 -0.1842  0.3287
12227TIP3    H258097   1.289   3.914  12.219 -0.3012 -0.4783 -0.0206
12228TIP3   OH258098   1.509   0.057  14.289  0.2780  0.7893  0.5646
12228TIP3    H158099   1.521   0.032  14.198  1.5778 -0.8869  1.1640
12228TIP3    H258100   1.547   0.144  14.296  2.4478 -0.1001  0.0454
12229TIP3   OH258101   5.242   0.218  15.446  0.4825  0.0310 -0.3570
12229TIP3    H158102   5.222   0.128  15.473  1.6955 -0.5126 -1.1973
12229TIP3    H258103   5.211   0.273  15.518 -1.0367 -0.9985 -0.2157
12230TIP3   OH258104   5.278   2.308   1.046 -0.3111  0.2130  0.1713
12230TIP3    H158105   5.283   2.219   1.082  0.0624  0.2048  0.1024
12230TIP3    H258106   5.350   2.312   0.983 -0.1459  0.6602  0.3851
12231TIP3   OH258107   4.467   3.872   0.076 -0.0307  0.2782 -0.2896
12231TIP3    H158108   4.493   3.938   0.141 -0.8151 -0.9257  1.2671
12231TIP3    H258109   4.486   3.788   0.118  1.3648 -0.5159 -2.4325
12232TIP3   OH258110   3.385   0.010  11.691  0.3760 -0.3272  0.3275
12232TIP3    H158111   3.330  -0.061  11.658 -0.3042  0.1599  0.4020
12232TIP3    H258112   3.474  -0.026  11.691  0.4426 -0.2510 -2.2703
12233TIP3   OH258113   5.097   0.911  12.475  0.6668  0.6355  0.2608
12233TIP3    H158114   5.034   0.964  12.426  0.6226  0.7060  0.3939
12233TIP3    H258115   5.107   0.957  12.559 -2.3520 -1.7197  1.9966
12234TIP3   OH258116   5.616   6.274  12.480 -0.6560  0.3822 -0.2534
12234TIP3    H158117   5.539   6.250  12.428  0.4934 -0.4312 -1.6625
12234TIP3    H258118   5.686   6.219  12.444  0.9085  2.1608 -0.0049
12235TIP3   OH258119   2.878   4.935   3.646 -0.5611  0.5347  0.2029
12235TIP3    H158120   2.881   5.004   3.713  0.2105  0.2682  0.4436
12235TIP3    H258121   2.872   4.982   3.563  1.1002  0.9202  0.2919
12236TIP3   OH258122   5.267   4.817   3.119 -0.2371  0.5937  0.1131
12236TIP3    H158123   5.334   4.819   3.051 -1.4532  3.0298 -1.0351
12236TIP3    H258124   5.312   4.847   3.198 -0.3932  4.0666 -1.0669
12237TIP3   OH258125   4.227   1.086  15.926  0.1469 -0.1484 -0.0745
12237TIP3    H158126   4.247   1.102  16.018 -0.6236 -0.2835  0.1220
12237TIP3    H258127   4.132   1.078  15.923  0.1760 -0.2883 -0.8616
12238TIP3   OH258128   6.539   1.413   2.040 -0.5316 -0.2748 -0.8614
12238TIP3    H158129   6.575   1.438   1.954  1.8917 -0.9923 -0.1156
12238TIP3    H258130   6.572   1.324   2.054 -1.1701 -0.2779  0.6768
12239TIP3   OH258131   5.025   2.912   0.648 -0.1259  0.6514 -0.3658
12239TIP3    H158132   4.968   2.865   0.587  0.9582  1.1335 -1.7951
12239TIP3    H258133   5.091   2.848   0.673  0.4954  0.9828 -1.1509
12240TIP3   OH258134   6.437   2.176  10.725 -0.1593  0.1929  0.2800
12240TIP3    H158135   6.457   2.260  10.682 -1.3789  0.1297 -0.4572
12240TIP3    H258136   6.342   2.169  10.718 -0.1324 -0.9096  1.0037
12241TIP3   OH258137   2.286   5.843   0.936 -0.1184  0.0586 -0.3689
12241TIP3    H158138   2.326   5.756   0.936 -0.0774  0.0700 -2.3615
12241TIP3    H258139   2.360   5.904   0.932 -0.1846  0.1682  0.0662
12242TIP3   OH258140   4.715   4.682  12.821  0.1094  0.1671  0.2575
12242TIP3    H158141   4.754   4.721  12.743 -0.8417  0.2191 -0.1882
12242TIP3    H258142   4.622   4.703  12.815 -0.1050 -0.5677  0.9675
12243TIP3   OH258143   6.013   5.560   4.616  0.1995 -0.7624 -0.0112
12243TIP3    H158144   6.009   5.619   4.541 -1.4112 -0.7573  0.0678
12243TIP3    H258145   5.991   5.474   4.581  0.5880 -0.9726  0.2496
12244TIP3   OH258146   4.424   5.183   0.030  0.2359 -0.4547  0.1559
12244TIP3    H158147   4.359   5.130   0.078  0.0007  0.0063  0.3464
12244TIP3    H258148   4.380   5.206  -0.051  0.8931 -1.8439 -0.6176
12245TIP3   OH258149   3.348   1.664   4.642  0.2703 -0.4999  0.0345
12245TIP3    H158150   3.380   1.579   4.612 -0.5208 -1.4432  1.7611
12245TIP3    H258151   3.412   1.691   4.708  0.5459  0.2827 -0.5456
12246TIP3   OH258152   4.814   0.619   0.775 -0.5187  0.4226 -0.7032
12246TIP3    H158153   4.831   0.703   0.733 -0.2684  1.6793  1.8276
12246TIP3    H258154   4.735   0.634   0.827  0.3898 -0.4814  0.9562
12247TIP3   OH258155   3.175   6.025   2.655  0.3017 -0.0929  0.7669
12247TIP3    H158156   3.221   6.033   2.571  2.0891 -0.0632  1.7277
12247TIP3    H258157   3.160   5.931   2.665 -0.5573 -0.0318  0.0787
12248TIP3   OH258158   2.243   4.381  10.317  0.0666 -0.2901  0.1166
12248TIP3    H158159   2.161   4.430  10.326  0.2708  0.3570 -1.3997
12248TIP3    H258160   2.310   4.448  10.303  0.8447 -0.8288  1.1657
12249TIP3   OH258161   6.150   0.938   0.054 -0.2722 -0.2309 -0.2864
12249TIP3    H158162   6.123   0.981  -0.028  1.7079  1.5125 -0.0765
12249TIP3    H258163   6.187   1.009   0.107  0.7262 -1.7674  1.1211
12250TIP3   OH258164   3.786   2.620   4.653 -0.0864  0.2680 -0.6164
12250TIP3    H158165   3.757   2.556   4.588 -0.0582 -1.9787  1.5251
12250TIP3    H258166   3.704   2.660   4.684 -0.1748  0.6305 -1.3114
12251TIP3   OH258167   2.469   5.768  12.706  0.3993 -0.1068 -0.4067
12251TIP3    H158168   2.441   5.714  12.780 -1.2079  0.6117 -0.4575
12251TIP3    H258169   2.564   5.764  12.708  0.4182  0.5463  2.2108
12252TIP3   OH258170   4.639   3.083   1.462 -0.7186  0.4028  0.2164
12252TIP3    H158171   4.722   3.048   1.431 -1.2496 -1.3398  0.6535
12252TIP3    H258172   4.654   3.177   1.474  0.9324  0.2334 -0.4683
12253TIP3   OH258173   4.545   6.509  15.384  0.2566 -0.1136  0.2212
12253TIP3    H158174   4.498   6.522  15.302  1.6072  0.8230 -0.4360
12253TIP3    H258175   4.477   6.498  15.450 -0.8483 -1.3029 -1.0856
12254TIP3   OH258176   3.437   5.584   5.513  0.4728 -0.4501 -0.1390
12254TIP3    H158177   3.349   5.615   5.495  1.2523  2.3528  0.6947
12254TIP3    H258178   3.483   5.592   5.429  0.5898  0.4012  0.0030
12255TIP3   OH258179   1.827   5.271  12.823  0.2300  0.1361  0.0667
12255TIP3    H158180   1.808   5.187  12.866 -0.9253 -0.6522 -1.9280
12255TIP3    H258181   1.901   5.252  12.766  0.4713  0.6741  0.2067
12256TIP3   OH258182   5.581   1.381   0.875 -0.0232  0.4036 -0.3212
12256TIP3    H158183   5.515   1.434   0.831  0.6219  0.9086 -0.6821
12256TIP3    H258184   5.661   1.395   0.825  0.4747  0.1603  0.3969
12257TIP3   OH258185   3.261   4.022  12.199 -0.0576  0.2041  0.5124
12257TIP3    H158186   3.334   3.965  12.225  0.6449  0.4352 -0.9039
12257TIP3    H258187   3.187   3.989  12.249  0.4638 -1.6431  0.1385
12258TIP3   OH258188   1.268   5.683   0.883 -0.0027  0.1490 -0.1342
12258TIP3    H158189   1.332   5.638   0.828 -1.0823 -1.3988 -0.1716
12258TIP3    H258190   1.302   5.772   0.892  1.5377 -0.3182 -1.1143
12259TIP3   OH258191   1.160   4.754   3.759 -0.2071 -0.2287 -0.2143
12259TIP3    H158192   1.125   4.792   3.840 -1.0722 -0.1712 -0.5998
12259TIP3    H258193   1.084   4.749   3.701 -0.5605 -4.2428  0.4311
12260TIP3   OH258194   5.097   3.799   4.863 -0.3705 -0.0357 -0.0713
12260TIP3    H158195   5.094   3.869   4.799 -0.0236  0.7080  0.7074
12260TIP3    H258196   5.021   3.815   4.920 -1.0469 -1.0616 -0.6750
12261TIP3   OH258197   0.891   4.264  16.747  0.5497  0.2300  0.0247
12261TIP3    H158198   0.828   4.328  16.778  1.7048  1.4698 -0.1255
12261TIP3    H258199   0.840   4.203  16.694 -0.7344  0.4253  1.0280
12262TIP3   OH258200   1.697   3.291   0.809  0.3898  0.7740  0.1616
12262TIP3    H158201   1.766   3.230   0.786 -0.8526 -1.8016  2.9009
12262TIP3    H258202   1.657   3.315   0.725  2.5206 -0.1862 -1.1674
12263TIP3   OH258203   4.599   5.279   5.246  0.1248  0.5333  0.3321
12263TIP3    H158204   4.592   5.194   5.202  3.2519 -0.2511  1.2339
12263TIP3    H258205   4.616   5.341   5.175  0.7680 -0.0412 -0.0147
12264TIP3   OH258206   3.146   2.971   3.140 -0.0237  0.4152 -0.2787
12264TIP3    H158207   3.175   2.969   3.231 -0.1755  1.8375 -0.1901
12264TIP3    H258208   3.072   3.032   3.139  0.4176  0.9607 -1.4667
12265TIP3   OH258209   3.066   1.128  17.182 -0.3349 -0.7732  0.4402
12265TIP3    H158210   3.075   1.217  17.148  0.0732 -0.6073  0.9725
12265TIP3    H258211   3.096   1.072  17.111  0.5969 -0.4262  0.5466
12266TIP3   OH258212   6.318   4.428  17.196  0.3095  0.3562  0.0760
12266TIP3    H158213   6.223   4.434  17.187  0.4066  0.3273 -1.1185
12266TIP3    H258214   6.352   4.488  17.129  1.1279  0.6047  0.7097
12267TIP3   OH258215   5.016   3.012  16.495  0.2227 -0.1932  1.1254
12267TIP3    H158216   4.978   3.023  16.408 -0.1672 -0.0397  1.3156
12267TIP3    H258217   5.105   2.979  16.478  0.1780 -0.0857  0.6709
12268TIP3   OH258218   6.786   0.548   3.030 -0.2874 -0.0568  0.4113
12268TIP3    H158219   6.874   0.585   3.040 -0.3970 -0.1083  1.5218
12268TIP3    H258220   6.749   0.548   3.118 -1.1724 -0.6182  0.0436
12269TIP3   OH258221   6.323   3.798   4.634 -0.1782 -0.4352 -0.0650
12269TIP3    H158222   6.344   3.814   4.542  0.8812 -0.0483  0.2339
12269TIP3    H258223   6.325   3.703   4.643  0.6108 -0.4373 -0.2413
12270TIP3   OH258224   5.420   1.688   5.211 -0.1497 -0.1636 -0.5506
12270TIP3    H158225   5.455   1.777   5.209 -0.7590  0.0816 -0.6329
12270TIP3    H258226   5.325   1.700   5.220 -0.2086 -0.8110 -0.2573
12271TIP3   OH258227   6.756   1.383   2.279  0.3970  0.4044  0.5193
12271TIP3    H158228   6.720   1.315   2.221 -1.5405  1.0080  0.9818
12271TIP3    H258229   6.844   1.399   2.245  0.4615 -1.5522 -0.2727
12272TIP3   OH258230   0.158   1.719  16.195 -0.1763  0.7737 -0.4702
12272TIP3    H158231   0.204   1.803  16.195 -0.5761  0.9951 -1.1759
12272TIP3    H258232   0.208   1.664  16.255  0.5644  1.2596 -0.6420
12273TIP3   OH258233   3.208   5.654  11.818  0.0838 -0.2261 -0.5018
12273TIP3    H158234   3.261   5.612  11.884  0.1904 -0.8228 -0.9621
12273TIP3    H258235   3.233   5.611  11.736 -1.1507 -0.5585 -0.7106
12274TIP3   OH258236   5.585   1.539   2.577 -0.5683  0.1168 -0.2395
12274TIP3    H158237   5.524   1.480   2.531  1.0232 -1.1852 -0.7151
12274TIP3    H258238   5.663   1.541   2.522  0.1311  1.1291  0.7706
12275TIP3   OH258239   0.844   0.057   4.731  0.0830  0.1291 -0.0432
12275TIP3    H158240   0.825   0.047   4.825 -1.1992 -0.2870 -0.3428
12275TIP3    H258241   0.804   0.140   4.707  2.0213  1.1713  0.1672
12276TIP3   OH258242   6.611   1.104  15.345 -0.4658  0.5431 -0.5193
12276TIP3    H158243   6.668   1.028  15.338  1.4545  1.6690  2.0184
12276TIP3    H258244   6.670   1.178  15.361 -2.4895  1.9573  0.8193
12277TIP3   OH258245   0.015   0.233  11.198 -0.2413 -0.1202 -0.4664
12277TIP3    H158246  -0.039   0.223  11.276  0.3010 -1.3608 -0.2429
12277TIP3    H258247   0.085   0.293  11.225 -1.9241  2.1721 -0.9987
12278TIP3   OH258248   6.599   3.576  16.073  0.3994 -0.3578  0.2970
12278TIP3    H158249   6.578   3.640  16.005 -0.0177  0.3380  1.0748
12278TIP3    H258250   6.657   3.514  16.029  0.0663  0.0283 -0.7225
12279TIP3   OH258251   3.939   2.102   0.261 -0.1462 -0.1061  1.0178
12279TIP3    H158252   3.879   2.038   0.220 -0.0819  1.2436 -1.2756
12279TIP3    H258253   3.883   2.151   0.321 -0.5288 -1.2707  1.6494
12280TIP3   OH258254   3.356   4.981  13.828 -0.2780 -0.6402  0.5190
12280TIP3    H158255   3.323   5.070  13.819 -1.8220 -1.0058  2.3563
12280TIP3    H258256   3.447   4.991  13.855 -0.4488  0.3858  0.7130
12281TIP3   OH258257   2.139   3.404  15.787 -0.1727 -0.7800 -0.3074
12281TIP3    H158258   2.124   3.498  15.775 -0.1268 -0.7034  0.2212
12281TIP3    H258259   2.126   3.390  15.880  0.0789 -1.2545 -0.3444
12282TIP3   OH258260   3.204   5.460  13.137  0.4584  0.1430  1.1234
12282TIP3    H158261   3.216   5.365  13.146 -0.3563  0.1570  2.4657
12282TIP3    H258262   3.194   5.492  13.227  0.2867  1.4505  0.6527
12283TIP3   OH258263   4.475   4.263   0.403 -0.2096 -0.5752 -0.0737
12283TIP3    H158264   4.492   4.254   0.497  0.4352  0.2488 -0.1017
12283TIP3    H258265   4.381   4.285   0.398 -0.0885  0.1010  0.4326
12284TIP3   OH258266   0.512   5.931   0.812  0.2715 -0.2639 -0.0319
12284TIP3    H158267   0.455   5.882   0.753  0.3621 -0.9386  0.4360
12284TIP3    H258268   0.596   5.935   0.767 -0.2107  0.9315 -0.8252
12285TIP3   OH258269   3.827   0.731   3.599 -0.0845 -0.3016 -0.6829
12285TIP3    H158270   3.791   0.806   3.647  1.1047  0.4050 -0.8709
12285TIP3    H258271   3.823   0.758   3.507  0.6845 -0.3100 -0.7250
12286TIP3   OH258272   3.161   1.947   5.396  0.1158 -0.4719 -0.2769
12286TIP3    H158273   3.090   1.964   5.334  0.3287  0.5042 -0.2677
12286TIP3    H258274   3.137   1.996   5.474  1.1429  0.4714 -0.5329
12287TIP3   OH258275   5.152   4.873   4.114 -0.4687 -0.6460 -0.4947
12287TIP3    H158276   5.178   4.782   4.099  0.7090 -0.2677 -0.8210
12287TIP3    H258277   5.204   4.901   4.189 -0.2376 -0.0102 -0.8797
12288TIP3   OH258278   1.364   6.700  12.339 -0.0482 -0.3763 -0.0835
12288TIP3    H158279   1.422   6.748  12.279  0.6267 -0.1899  0.7208
12288TIP3    H258280   1.423   6.649  12.394 -0.7200 -1.3084 -0.2156
12289TIP3   OH258281   0.897   4.422   1.508  0.0893 -0.3050  0.2272
12289TIP3    H158282   0.967   4.424   1.442 -1.4352  2.9013 -1.4338
12289TIP3    H258283   0.819   4.395   1.459 -0.3062 -1.7499  1.6117
12290TIP3   OH258284   6.296   6.744  12.642  0.2359  0.2734 -0.2723
12290TIP3    H158285   6.283   6.675  12.578 -1.2905  0.4986 -0.2035
12290TIP3    H258286   6.231   6.811  12.621  0.4005  0.8173  0.8603
12291TIP3   OH258287   3.171   2.665   3.269 -0.1662 -0.6163  0.0793
12291TIP3    H158288   3.102   2.634   3.329 -0.2808 -0.8754 -0.1845
12291TIP3    H258289   3.165   2.761   3.275 -1.4058 -0.6146 -0.8964
12292TIP3   OH258290   1.954   6.161   4.280 -0.0545 -0.5153 -0.0141
12292TIP3    H158291   1.920   6.072   4.276 -1.6676  0.0443  0.6892
12292TIP3    H258292   1.877   6.217   4.267  0.9034  0.7785 -0.2724
12293TIP3   OH258293   1.949   5.569   5.893  0.0488  0.5339 -0.3550
12293TIP3    H158294   1.888   5.641   5.875 -0.8187  0.0316  0.5429
12293TIP3    H258295   1.941   5.554   5.987 -0.8127 -1.6820 -0.7646
12294TIP3   OH258296   4.735   5.709  10.993 -0.9038  0.2642 -0.4724
12294TIP3    H158297   4.795   5.734  10.923 -0.0385  2.7835  1.1379
12294TIP3    H258298   4.649   5.735  10.960 -0.7248 -0.1891 -1.3289
12295TIP3   OH258299   2.030   1.317   3.337 -0.6279  0.7120  0.0400
12295TIP3    H158300   2.107   1.367   3.366  0.3279 -1.1335  0.7580
12295TIP3    H258301   1.970   1.320   3.411 -0.2097  0.0535  0.4017
12296TIP3   OH258302   5.796   5.282   0.522 -0.0632 -0.7395  0.5215
12296TIP3    H158303   5.789   5.334   0.602  0.4811 -0.7173  0.5585
12296TIP3    H258304   5.859   5.330   0.468 -2.1551  0.4689 -0.8946
12297TIP3   OH258305   5.715   6.195  13.745 -0.0338 -0.1458 -0.6405
12297TIP3    H158306   5.810   6.206  13.738 -0.2021  3.0641  1.4262
12297TIP3    H258307   5.704   6.102  13.764  2.7877 -0.2912  0.5799
12298TIP3   OH258308   1.455   1.413   3.425  0.0079 -0.1430  0.4697
12298TIP3    H158309   1.457   1.405   3.330  0.7730  2.8636  0.1807
12298TIP3    H258310   1.544   1.392   3.453  0.5101  1.5899  0.2385
12299TIP3   OH258311   1.420   4.897  12.157  0.7902 -0.5085 -0.1771
12299TIP3    H158312   1.467   4.940  12.229  1.9670 -2.6584  0.3691
12299TIP3    H258313   1.422   4.804  12.179 -1.9138 -0.8552 -1.2273
12300TIP3   OH258314   1.370   1.234  16.107 -0.4701 -0.1586  0.1340
12300TIP3    H158315   1.351   1.316  16.061 -1.6094  0.0985  1.0444
12300TIP3    H258316   1.458   1.210  16.078  0.6618  2.4047  1.3321
12301TIP3   OH258317   2.706   3.510   0.716 -0.6397  0.6072 -0.1946
12301TIP3    H158318   2.758   3.569   0.771  0.1130  1.0565 -1.3437
12301TIP3    H258319   2.752   3.426   0.720  0.6804  1.2113 -1.8422
12302TIP3   OH258320   0.524   3.927   5.212 -0.1680  0.5224  0.2237
12302TIP3    H158321   0.612   3.961   5.227  0.4478 -1.2701  0.7502
12302TIP3    H258322   0.468   4.005   5.215  1.0304  1.3317  2.8863
12303TIP3   OH258323   2.748   4.229   5.071  0.1467 -0.2694 -0.3566
12303TIP3    H158324   2.814   4.255   5.007  1.4949 -1.7457  0.4004
12303TIP3    H258325   2.765   4.285   5.147  1.7462 -1.9144  0.5241
12304TIP3   OH258326   2.614   4.210  13.955  0.1028 -0.5611 -0.2824
12304TIP3    H158327   2.693   4.161  13.977 -1.5209 -2.4856  1.4613
12304TIP3    H258328   2.594   4.261  14.033 -0.0236  0.4494 -0.9570
12305TIP3   OH258329   2.697   3.597  14.684  0.2967  0.3940  0.0874
12305TIP3    H158330   2.730   3.620  14.597 -0.0264  0.0179 -0.1345
12305TIP3    H258331   2.742   3.516  14.706  3.1742  2.3667  1.8422
12306TIP3   OH258332   0.527   6.764   0.951 -0.6088  0.8631 -0.6726
12306TIP3    H158333   0.529   6.683   0.899 -0.3846  0.1757  0.3923
12306TIP3    H258334   0.434   6.776   0.972 -0.4926  0.1751  0.2530
12307TIP3   OH258335   1.283   0.171   4.819  0.3299 -0.1221 -0.2513
12307TIP3    H158336   1.220   0.240   4.797 -0.3806 -0.8802 -0.6278
12307TIP3    H258337   1.291   0.176   4.915  0.0050  0.2429 -0.2397
12308TIP3   OH258338   2.730   3.920   4.393 -0.6466  0.1641  0.6429
12308TIP3    H158339   2.648   3.905   4.346 -0.7983  1.6647  0.4056
12308TIP3    H258340   2.710   3.903   4.485 -1.4237  1.2779  0.6829
12309TIP3   OH258341   4.773   1.234   5.429 -0.3176 -0.1000  0.4733
12309TIP3    H158342   4.743   1.325   5.440  0.2193  0.0813  0.4532
12309TIP3    H258343   4.866   1.242   5.410  0.1246 -0.7640  2.3012
12310TIP3   OH258344   0.936   5.847  14.271 -0.3151  0.5476 -0.2060
12310TIP3    H158345   1.013   5.902  14.286 -0.8861  0.8306  1.8093
12310TIP3    H258346   0.874   5.905  14.227  1.0797 -0.0544 -3.0511
12311TIP3   OH258347   3.434   6.301   2.075  0.2169  0.3041  0.0543
12311TIP3    H158348   3.505   6.241   2.099  0.8335  1.2748  0.7158
12311TIP3    H258349   3.418   6.352   2.154 -0.0441  1.2530 -0.5952
12312TIP3   OH258350   0.070   3.134   0.828  0.4225  0.4846 -0.2337
12312TIP3    H158351   0.108   3.213   0.788 -0.3637  1.2154  0.4533
12312TIP3    H258352  -0.016   3.125   0.788 -0.3778  1.2267  1.2702
12313TIP3   OH258353   5.610   0.880  10.765  0.0207 -0.5108  0.2003
12313TIP3    H158354   5.523   0.884  10.724  0.5270 -1.0459 -0.9461
12313TIP3    H258355   5.619   0.963  10.811  0.0003  0.6692 -1.9095
12314TIP3   OH258356   3.672   2.410   3.433 -0.3351  0.1751 -0.2784
12314TIP3    H158357   3.672   2.401   3.338  1.9140 -0.1521 -0.2697
12314TIP3    H258358   3.602   2.351   3.462 -1.0623  0.2987 -1.7262
12315TIP3   OH258359   2.247   2.938  12.396  0.3753  0.2697 -0.3790
12315TIP3    H158360   2.304   2.878  12.446 -1.3075 -0.6015  0.5285
12315TIP3    H258361   2.247   2.901  12.307  0.7720 -0.0415 -0.2563
12316TIP3   OH258362   5.120   5.422  13.448 -0.4118 -0.7244  0.2738
12316TIP3    H158363   5.046   5.443  13.391 -0.1849 -0.0419  0.2304
12316TIP3    H258364   5.125   5.326  13.446 -2.9045 -0.9504  2.3133
12317TIP3   OH258365   6.713   0.098   5.889 -0.4590  0.2785 -0.3022
12317TIP3    H158366   6.741   0.183   5.855  2.4110 -0.8165 -0.7928
12317TIP3    H258367   6.791   0.044   5.887 -1.7738 -1.8208  1.8716
12318TIP3   OH258368   6.549   4.366   1.278  0.2056  0.3218 -0.1747
12318TIP3    H158369   6.458   4.387   1.301 -0.2189 -1.4783 -0.1834
12318TIP3    H258370   6.601   4.406   1.347 -0.5397  1.9753 -0.5442
12319TIP3   OH258371   1.664   4.735  16.856  0.3326 -0.1961 -0.0321
12319TIP3    H158372   1.589   4.780  16.894 -1.4464 -3.4716  0.4897
12319TIP3    H258373   1.651   4.741  16.761  0.6502  1.1837 -0.0047
12320TIP3   OH258374   2.045   2.475  14.222 -0.4413  0.5444 -0.3497
12320TIP3    H158375   2.013   2.392  14.189  0.0937  0.2072 -0.0222
12320TIP3    H258376   2.134   2.483  14.186  0.5923 -0.3651  1.8909
12321TIP3   OH258377   0.528   3.919  11.695  0.2116 -0.3506  0.2722
12321TIP3    H158378   0.476   3.963  11.763 -1.3013  1.3959 -1.9329
12321TIP3    H258379   0.487   3.833  11.687 -1.9322  0.7073 -0.8428
12322TIP3   OH258380   5.791   6.524   2.875 -1.0614  0.2747  1.1275
12322TIP3    H158381   5.780   6.429   2.879 -1.6596  0.3816  1.9428
12322TIP3    H258382   5.802   6.551   2.966 -0.2106  0.9109  0.8432
12323TIP3   OH258383   0.949   0.874  11.200  0.6160  0.2440  0.5409
12323TIP3    H158384   0.879   0.937  11.219  2.2682  2.7059 -1.1957
12323TIP3    H258385   0.955   0.821  11.279 -1.4573  1.6601  1.7094
12324TIP3   OH258386   2.938   3.260  15.816  0.3586  0.5439 -0.4998
12324TIP3    H158387   2.842   3.254  15.810  0.3576 -1.7094  1.2254
12324TIP3    H258388   2.956   3.354  15.810 -2.0382  1.0971  0.1615
12325TIP3   OH258389   2.062   1.756   5.517  0.1572  0.3259 -0.3936
12325TIP3    H158390   2.091   1.683   5.571  0.5305 -0.7097 -1.9722
12325TIP3    H258391   2.015   1.814   5.578  1.6275 -0.2055  1.2697
12326TIP3   OH258392   1.993   6.022   6.338 -0.1835  0.1930 -0.1180
12326TIP3    H158393   1.983   5.928   6.357 -0.4673 -0.0290 -1.2680
12326TIP3    H258394   1.929   6.038   6.268 -1.0613  1.5383  0.9721
12327TIP3   OH258395   6.459   4.238   3.534  0.2044  0.4361  0.0876
12327TIP3    H158396   6.455   4.190   3.451  1.9066  2.8057 -1.4097
12327TIP3    H258397   6.449   4.330   3.509  2.7904  1.3567  2.2762
12328TIP3   OH258398   2.232   1.462  16.441 -0.0481  0.2447  0.3000
12328TIP3    H158399   2.152   1.413  16.459 -0.5792  1.1722  0.5182
12328TIP3    H258400   2.303   1.401  16.461 -0.6997 -0.6911 -0.2207
12329TIP3   OH258401   3.570   1.519  13.881  0.3329 -0.3341 -0.4715
12329TIP3    H158402   3.575   1.448  13.945  0.3849  1.4513  1.5791
12329TIP3    H258403   3.660   1.549  13.871  0.1134  0.4474 -0.1447
12330TIP3   OH258404   6.378   1.250   4.083 -0.1743  0.1563 -0.0749
12330TIP3    H158405   6.303   1.259   4.142 -2.0268 -1.8814 -2.0498
12330TIP3    H258406   6.444   1.204   4.135 -1.6902 -1.4057  0.5066
12331TIP3   OH258407   2.388   0.803  15.222  0.0925  0.2914 -0.2332
12331TIP3    H158408   2.321   0.836  15.281  0.9025 -1.9569  2.0316
12331TIP3    H258409   2.451   0.874  15.214 -0.0061  0.6028  1.6613
12332TIP3   OH258410   2.935   1.893  14.265 -0.0599  0.1050  0.1452
12332TIP3    H158411   3.009   1.935  14.221  2.0231 -0.4658  2.9860
12332TIP3    H258412   2.879   1.966  14.291 -0.4011  0.5631 -1.7717
12333TIP3   OH258413   5.296   5.745  12.349  0.2967  0.2111 -0.3571
12333TIP3    H158414   5.270   5.655  12.372 -0.2989  0.7639  1.1265
12333TIP3    H258415   5.268   5.798  12.423  1.7935  1.4556 -0.6686
12334TIP3   OH258416   2.331   5.215  11.434 -0.1513  0.6934  0.1387
12334TIP3    H158417   2.250   5.266  11.429 -0.7170 -0.1672  0.4414
12334TIP3    H258418   2.375   5.249  11.512 -0.1235  1.2882 -0.1278
12335TIP3   OH258419   0.660   0.930  15.957  0.5017  0.1868  0.1588
12335TIP3    H158420   0.697   0.979  15.884 -0.6453 -0.7549 -1.0897
12335TIP3    H258421   0.616   0.996  16.011  2.4957  1.0708  0.7450
12336TIP3   OH258422   0.878   2.570   0.149  0.4222  0.1096 -0.3899
12336TIP3    H158423   0.898   2.620   0.071 -0.8869  0.2420 -0.6587
12336TIP3    H258424   0.942   2.499   0.150  0.1776 -0.1375 -1.8029
12337TIP3   OH258425   4.120   4.459  11.556  0.1023 -0.4671 -0.3083
12337TIP3    H158426   4.041   4.431  11.510 -0.8668 -0.4993  1.3462
12337TIP3    H258427   4.092   4.536  11.607  0.8368 -1.1911  1.2025
12338TIP3   OH258428   6.436   2.252  10.312  0.0186  0.4145  0.0097
12338TIP3    H158429   6.516   2.282  10.270  0.0997  0.8265  0.4502
12338TIP3    H258430   6.408   2.326  10.366 -2.4071  1.4554 -2.5703
12339TIP3   OH258431   2.181   6.063   6.693 -0.0306 -0.3477  0.7561
12339TIP3    H158432   2.271   6.086   6.673  0.0398 -0.5357  0.8552
12339TIP3    H258433   2.129   6.138   6.663  0.1715 -0.1786  0.8311
12340TIP3   OH258434   1.932   3.908   1.303  0.4707 -0.5108 -0.3600
12340TIP3    H158435   1.871   3.981   1.304 -0.9510 -1.6830 -0.1677
12340TIP3    H258436   1.939   3.881   1.395  0.9774 -0.6298 -0.4301
12341TIP3   OH258437   0.723   5.295   5.078  0.0640  0.0709 -0.2065
12341TIP3    H158438   0.702   5.365   5.016  0.3603 -0.4639 -0.9274
12341TIP3    H258439   0.679   5.320   5.159  0.0149  0.9965 -0.5077
12342TIP3   OH258440   3.762   4.567   1.590  0.3853 -0.0004 -0.0918
12342TIP3    H158441   3.827   4.608   1.647 -1.2928 -0.2804  2.0915
12342TIP3    H258442   3.751   4.479   1.624 -0.6401 -0.1774 -0.8313
12343TIP3   OH258443   0.501   1.063  12.234 -0.5667 -0.1889  0.1110
12343TIP3    H158444   0.558   0.989  12.213 -1.7235 -1.4851  1.4711
12343TIP3    H258445   0.438   1.066  12.162 -0.5086 -0.4970  0.0481
12344TIP3   OH258446   0.622   1.967  16.820  0.2212  0.0179 -1.1808
12344TIP3    H158447   0.603   2.033  16.886  0.9756 -0.5973 -0.3387
12344TIP3    H258448   0.710   1.935  16.843 -0.1112 -1.2266 -1.6154
12345TIP3   OH258449   1.085   5.599   5.980  0.5235 -0.4011 -0.2105
12345TIP3    H158450   1.080   5.524   5.921  0.5974 -0.0381 -0.6910
12345TIP3    H258451   1.114   5.563   6.064  0.9828 -0.8457 -0.5566
12346TIP3   OH258452   3.648   5.364   5.415  0.6152 -0.1711 -0.1500
12346TIP3    H158453   3.589   5.342   5.486  0.3653 -1.0296 -0.6160
12346TIP3    H258454   3.719   5.300   5.421 -0.0620 -1.0639 -1.4501
12347TIP3   OH258455   0.623   6.491   3.853  0.4103  0.0225 -0.1486
12347TIP3    H158456   0.691   6.479   3.918  0.8478  0.5122 -0.5103
12347TIP3    H258457   0.568   6.413   3.861  1.1559 -0.4997 -0.0272
12348TIP3   OH258458   3.858   0.264   5.341 -0.6895 -0.7665 -0.1395
12348TIP3    H158459   3.890   0.260   5.431 -2.0349  0.3687  0.4198
12348TIP3    H258460   3.860   0.358   5.320  0.2261 -1.0895 -1.5171
12349TIP3   OH258461   5.760   0.282  16.280  0.4080 -0.5527 -0.1275
12349TIP3    H158462   5.837   0.226  16.279  2.0879  1.7053 -1.2530
12349TIP3    H258463   5.790   0.363  16.322 -1.6244 -0.0203  0.3541
12350TIP3   OH258464   2.071   6.223   4.849 -0.3446 -0.2708  0.4780
12350TIP3    H158465   2.049   6.130   4.837  0.7469 -0.3870 -0.7316
12350TIP3    H258466   2.144   6.222   4.912 -1.5537 -0.0922  1.9236
12351TIP3   OH258467   1.729   2.337  11.866  0.1384 -0.3595  0.0171
12351TIP3    H158468   1.746   2.393  11.942 -0.1580  0.9156 -0.8390
12351TIP3    H258469   1.804   2.278  11.862 -1.7155 -3.1128  3.6091
12352TIP3   OH258470   2.613   5.100  13.774  0.1053  0.1165 -0.0326
12352TIP3    H158471   2.624   5.126  13.865 -0.0538  1.3322 -0.3481
12352TIP3    H258472   2.518   5.096  13.761  0.0703  2.3871 -0.7851
12353TIP3   OH258473   4.486   0.380  15.914 -0.3654  0.0836  0.4525
12353TIP3    H158474   4.574   0.375  15.877 -0.5311 -0.3269  0.1181
12353TIP3    H258475   4.446   0.457  15.872 -0.2610  0.1102  0.4029
12354TIP3   OH258476   3.145   1.865   0.100  0.1690  0.2239 -0.0566
12354TIP3    H158477   3.159   1.799   0.169  1.7670  1.2314  0.6114
12354TIP3    H258478   3.225   1.863   0.048 -0.5650  0.2924 -1.1985
12355TIP3   OH258479   4.275   3.464  13.489 -0.1538  0.5749 -0.6930
12355TIP3    H158480   4.315   3.505  13.566  1.5701 -1.0613 -0.6763
12355TIP3    H258481   4.344   3.466  13.422  0.1733 -2.6921 -0.5346
12356TIP3   OH258482   2.803   6.710  14.345  0.1993 -0.3442  0.4271
12356TIP3    H158483   2.819   6.801  14.370 -3.0433  0.6488 -0.8228
12356TIP3    H258484   2.758   6.672  14.420 -0.6672 -0.1623  0.0179
12357TIP3   OH258485   6.636   3.349  10.805  0.6275  0.7472 -0.2670
12357TIP3    H158486   6.720   3.308  10.787  0.6244  0.5996  0.0647
12357TIP3    H258487   6.572   3.289  10.767  0.5427 -0.2208  1.3809
12358TIP3   OH258488   5.073   2.849   0.331  0.1549 -0.4090 -0.3180
12358TIP3    H158489   5.132   2.883   0.399  1.0571 -2.3227 -0.1227
12358TIP3    H258490   5.126   2.784   0.285 -2.3200 -3.3829  0.9255
12359TIP3   OH258491   3.572   5.221  12.168 -0.3827  0.2702 -0.4606
12359TIP3    H158492   3.667   5.208  12.177 -0.6743 -1.3163  0.4710
12359TIP3    H258493   3.539   5.220  12.258 -1.2303  1.4464 -0.7366
12360TIP3   OH258494   4.051   3.436  11.514 -0.1938 -0.0775  0.7768
12360TIP3    H158495   4.110   3.456  11.587 -0.0675 -0.1911  0.7080
12360TIP3    H258496   4.044   3.518  11.466 -0.8171  0.1775  1.2984
12361TIP3   OH258497   3.544   0.168  13.150 -0.0371  0.2528  0.0576
12361TIP3    H158498   3.474   0.110  13.180  0.8926 -1.2547 -0.5851
12361TIP3    H258499   3.622   0.111  13.148  0.7543  1.3685 -1.2272
12362TIP3   OH258500   4.564   0.126  15.424 -0.1038  0.2804 -0.4369
12362TIP3    H158501   4.555   0.202  15.366  1.9821  0.1295 -1.0279
12362TIP3    H258502   4.611   0.062  15.370  0.0333 -0.6291  0.7590
12363TIP3   OH258503   3.712   0.419   0.368  0.1735 -0.6099  0.7642
12363TIP3    H158504   3.689   0.340   0.319 -2.4414  1.1616 -1.0319
12363TIP3    H258505   3.764   0.471   0.308  0.6509 -0.3095  1.4260
12364TIP3   OH258506   6.720   0.440   3.606  0.2007 -0.9272  0.1945
12364TIP3    H158507   6.699   0.396   3.689 -0.2634 -1.7101 -0.3307
12364TIP3    H258508   6.695   0.531   3.620 -1.0340 -1.3014  0.5078
12365TIP3   OH258509   3.060   4.275  16.569 -0.9644 -0.0805  0.4035
12365TIP3    H158510   3.061   4.292  16.475 -0.5426 -1.1111  0.2145
12365TIP3    H258511   3.096   4.354  16.608 -1.3444  0.4388 -0.2904
12366TIP3   OH258512   0.998   3.047   4.676  0.0529  0.0042 -0.0883
12366TIP3    H158513   1.064   3.063   4.744 -0.5167  1.6842  0.0956
12366TIP3    H258514   0.915   3.066   4.720 -0.2878  1.6218 -1.3815
12367TIP3   OH258515   3.064   5.193   0.100  0.1317 -0.1026 -0.0423
12367TIP3    H158516   3.078   5.100   0.081 -2.2312 -0.5078  0.0643
12367TIP3    H258517   2.974   5.210   0.071  0.1751  1.8865  0.9439
12368TIP3   OH258518   3.422   2.149  16.999  0.0203 -0.0968 -0.4939
12368TIP3    H158519   3.450   2.102  16.920 -0.4432 -0.1828 -0.6060
12368TIP3    H258520   3.356   2.211  16.968 -1.2561 -1.1768  0.0551
12369TIP3   OH258521   6.360   3.226  13.918 -0.6391  0.1715 -0.1838
12369TIP3    H158522   6.319   3.295  13.970  0.2317 -0.4082  1.2898
12369TIP3    H258523   6.340   3.249  13.827 -2.5895  0.9320  0.4117
12370TIP3   OH258524   3.468   0.171  12.718 -0.5620 -0.2972  0.3452
12370TIP3    H158525   3.377   0.197  12.700 -0.7246 -0.1288  1.3425
12370TIP3    H258526   3.495   0.228  12.791 -0.0499 -1.1279  0.8122
12371TIP3   OH258527   3.673   1.648   0.037  0.0214 -0.1574  0.0103
12371TIP3    H158528   3.596   1.599   0.009  0.2305 -0.7492  0.4352
12371TIP3    H258529   3.744   1.615  -0.018 -0.0056  0.2865 -0.2877
12372TIP3   OH258530   3.632   2.220  15.658 -0.4175 -0.7660  0.4558
12372TIP3    H158531   3.586   2.254  15.581  0.7035 -0.7034 -0.2057
12372TIP3    H258532   3.670   2.298  15.699 -0.0639 -0.9192  0.4259
12373TIP3   OH258533   3.428   4.792   3.887 -0.2382 -0.2813  0.0097
12373TIP3    H158534   3.492   4.844   3.936  2.7354 -2.5559 -1.3159
12373TIP3    H258535   3.383   4.740   3.954 -0.7415  1.3232  0.9540
12374TIP3   OH258536   5.570   2.255  10.524  0.2607 -0.0911  0.1582
12374TIP3    H158537   5.536   2.290  10.442  2.1842  1.0269 -0.2110
12374TIP3    H258538   5.516   2.295  10.592 -1.0451 -0.6628 -0.5371
12375TIP3   OH258539   6.733   0.964  13.615 -0.3020 -0.0117  0.1140
12375TIP3    H158540   6.687   1.009  13.686  0.5762  0.1744  0.5655
12375TIP3    H258541   6.720   1.020  13.538  1.5717  1.5175  0.8716
12376TIP3   OH258542   6.680   0.627   2.355 -0.7327 -0.4095 -0.1380
12376TIP3    H158543   6.698   0.672   2.437  1.0204 -0.8936 -0.2171
12376TIP3    H258544   6.758   0.644   2.301 -1.7363 -0.3273 -1.5867
12377TIP3   OH258545   3.397   2.329  11.372  0.6581  0.3348 -0.0550
12377TIP3    H158546   3.353   2.357  11.452 -2.4869 -1.5341 -1.0366
12377TIP3    H258547   3.369   2.392  11.306 -0.0951 -0.5267 -0.5636
12378TIP3   OH258548   1.177   4.734  15.843 -0.1753 -0.0826  0.2476
12378TIP3    H158549   1.209   4.701  15.759  0.9934  2.6170 -0.4413
12378TIP3    H258550   1.255   4.738  15.898 -0.0068  2.6942 -0.1246
12379TIP3   OH258551   6.753   5.531  12.362  0.3676 -0.1898  0.6045
12379TIP3    H158552   6.768   5.446  12.321  0.6420 -0.4358  1.2092
12379TIP3    H258553   6.729   5.510  12.452 -0.2486  0.3487  0.5683
12380TIP3   OH258554   6.316   4.543   6.146  0.5554 -0.4299  0.1862
12380TIP3    H158555   6.341   4.569   6.057  1.1094 -2.4563 -0.2686
12380TIP3    H258556   6.288   4.452   6.138  3.0654 -1.4649  2.5051
12381TIP3   OH258557   1.842   3.044   4.268 -0.3027  0.1864 -1.2873
12381TIP3    H158558   1.781   3.111   4.299 -0.6376  0.0741 -1.7059
12381TIP3    H258559   1.811   2.963   4.308  0.1871  0.3027 -0.6668
12382TIP3   OH258560   6.189   5.560   4.825  0.2388  0.1975  0.3577
12382TIP3    H158561   6.219   5.645   4.858 -1.8657  0.5339  1.5539
12382TIP3    H258562   6.125   5.582   4.758 -0.3537 -0.4341  0.7133
12383TIP3   OH258563   2.651   4.291  14.203  0.1515 -0.3387  0.0112
12383TIP3    H158564   2.621   4.336  14.282  0.4580  0.9126 -0.5698
12383TIP3    H258565   2.728   4.340  14.176  1.2569 -1.9859  0.0620
12384TIP3   OH258566   1.374   5.746  14.854 -0.2715 -0.2377 -0.7359
12384TIP3    H158567   1.442   5.809  14.877  1.0603 -1.4572 -1.2668
12384TIP3    H258568   1.421   5.672  14.816 -1.8614 -1.2758 -0.7521
12385TIP3   OH258569   0.310   0.633  11.477 -0.2910  0.3592  0.1210
12385TIP3    H158570   0.394   0.676  11.494 -0.6552  0.7454  0.9798
12385TIP3    H258571   0.278   0.675  11.398  0.0497  0.6333  0.1259
12386TIP3   OH258572   0.551   6.745   1.270 -0.2593  0.4585 -0.9596
12386TIP3    H158573   0.498   6.809   1.222 -1.3692 -0.9596 -1.6673
12386TIP3    H258574   0.531   6.661   1.229  2.1632 -0.1965 -0.8711
12387TIP3   OH258575   4.433   4.417  12.904  0.1578  0.1626  0.4917
12387TIP3    H158576   4.446   4.424  12.999 -0.5507  0.2325  0.5797
12387TIP3    H258577   4.515   4.450  12.867  0.8943 -0.9492  1.0958
12388TIP3   OH258578   6.127   6.240   6.512  0.0148  0.4475  0.7443
12388TIP3    H158579   6.137   6.325   6.469  0.1941  0.4710  0.8341
12388TIP3    H258580   6.215   6.219   6.544  0.0736  0.0097  0.3079
12389TIP3   OH258581   6.134   2.911  15.316  0.2273 -0.0883 -0.1693
12389TIP3    H158582   6.158   2.933  15.406  1.6535 -1.9831 -0.0547
12389TIP3    H258583   6.157   2.989  15.266  0.3052  0.6357  0.9632
12390TIP3   OH258584   2.264   4.410  14.836  0.4720  0.5979 -0.1503
12390TIP3    H158585   2.204   4.336  14.833  1.2878 -0.3453  4.0257
12390TIP3    H258586   2.350   4.372  14.820  0.4061  1.4265 -2.7063
12391TIP3   OH258587   1.809   1.846  11.112 -0.1498  0.5778  0.0245
12391TIP3    H158588   1.775   1.803  11.033  1.0355 -3.4236  1.5757
12391TIP3    H258589   1.883   1.898  11.081  0.8871 -1.6812 -1.4590
12392TIP3   OH258590   1.332   6.240  16.435  0.0695  0.2357  0.1338
12392TIP3    H158591   1.283   6.290  16.370  0.9237  0.3697 -0.4162
12392TIP3    H258592   1.266   6.211  16.499 -1.0196 -1.2619 -1.6286
12393TIP3   OH258593   4.609   3.913   2.913  0.2701  0.2962  0.2784
12393TIP3    H158594   4.618   3.854   2.838 -0.1749  0.7403 -0.1339
12393TIP3    H258595   4.544   3.871   2.970  1.6647 -0.7484  1.1181
12394TIP3   OH258596   2.996   0.478  13.533  0.0813 -0.2031  0.2052
12394TIP3    H158597   2.969   0.527  13.611 -1.0140  0.9571 -0.8811
12394TIP3    H258598   2.916   0.437  13.502  0.6450 -1.2086  0.0437
12395TIP3   OH258599   5.303   5.924   5.669  0.2717 -0.6065 -0.1598
12395TIP3    H158600   5.300   6.017   5.650 -0.2804 -0.7585 -0.8710
12395TIP3    H258601   5.239   5.885   5.608 -1.3440 -1.1688  1.8251
12396TIP3   OH258602   4.479   5.060  12.495  0.4125  0.0854 -0.4310
12396TIP3    H158603   4.390   5.078  12.463  0.6533  1.5990 -0.2677
12396TIP3    H258604   4.496   4.969  12.468 -0.6697  0.2262 -1.6368
12397TIP3   OH258605   6.233   5.966   2.753  0.5321 -0.3130 -0.0769
12397TIP3    H158606   6.306   5.905   2.759 -1.2986 -2.7416 -1.6752
12397TIP3    H258607   6.200   5.955   2.664 -1.7455  0.8212  0.5970
12398TIP3   OH258608   2.317   0.597   0.335 -0.0102 -0.0482 -0.0456
12398TIP3    H158609   2.262   0.669   0.365 -3.2992 -3.0933  1.6755
12398TIP3    H258610   2.394   0.600   0.391 -0.2986  1.8311  0.2728
12399TIP3   OH258611   1.563   2.660   2.769  0.2383 -0.2673  0.3053
12399TIP3    H158612   1.549   2.578   2.816 -0.1382 -0.8074 -0.7348
12399TIP3    H258613   1.653   2.656   2.737  0.3977 -0.0327  0.7250
12400TIP3   OH258614   0.603   4.712  10.947  0.0192 -0.0987  0.9398
12400TIP3    H158615   0.628   4.756  10.866  1.5114 -0.6457  1.0825
12400TIP3    H258616   0.511   4.733  10.958 -0.1155  0.2845 -0.7154
12401TIP3   OH258617   3.490   1.875  12.284 -0.1368  0.4089 -0.2469
12401TIP3    H158618   3.566   1.925  12.313  0.4953 -1.0419  0.6682
12401TIP3    H258619   3.505   1.861  12.190  0.8990 -0.1316 -0.0105
12402TIP3   OH258620   1.007   4.032  16.543 -0.4650  0.4056 -0.0726
12402TIP3    H158621   1.054   4.002  16.465 -0.5484  0.1710 -0.0324
12402TIP3    H258622   0.942   3.964  16.559 -1.3311  1.0880 -0.5797
12403TIP3   OH258623   2.994   0.137  16.583 -0.4856 -0.0829 -0.4612
12403TIP3    H158624   3.001   0.160  16.490  0.4741 -1.1533 -0.6652
12403TIP3    H258625   3.064   0.073  16.597 -0.9880 -0.3527  0.8700
12404TIP3   OH258626   3.036   6.688  15.480 -0.1527  0.5109 -0.2978
12404TIP3    H158627   2.986   6.616  15.442  0.3061  0.2535 -0.4178
12404TIP3    H258628   2.984   6.717  15.555  0.3347 -0.8722  0.6000
12405TIP3   OH258629   3.874   2.750   4.160 -0.2803 -0.6696  0.2705
12405TIP3    H158630   3.860   2.751   4.255 -0.5985 -2.8401  0.2756
12405TIP3    H258631   3.819   2.678   4.129 -1.1854  0.8636 -1.7431
12406TIP3   OH258632   4.167   0.375  16.874  0.0859 -0.1970 -0.1270
12406TIP3    H158633   4.095   0.427  16.909  1.0380  0.1176  1.4325
12406TIP3    H258634   4.133   0.286  16.868 -0.4528 -0.0358  0.5295
12407TIP3   OH258635   2.407   0.884   2.067 -0.5099  0.4074  0.3462
12407TIP3    H158636   2.416   0.979   2.073 -0.8346  0.4679 -0.1285
12407TIP3    H258637   2.437   0.852   2.152 -1.2595  0.9943  0.8455
12408TIP3   OH258638   3.163   0.590  15.426  0.3312 -0.1175 -0.2404
12408TIP3    H158639   3.165   0.614  15.333 -0.9222  0.7947 -0.0461
12408TIP3    H258640   3.097   0.648  15.464  0.5601 -0.7538  1.1495
12409TIP3   OH258641   2.757   6.415   4.670  0.2636 -0.3705  0.5296
12409TIP3    H158642   2.713   6.353   4.613  2.5128  0.0708 -1.7876
12409TIP3    H258643   2.774   6.491   4.614  0.3679  1.0693  2.4563
12410TIP3   OH258644   1.836   4.078   5.794 -0.1513 -0.5264  0.0482
12410TIP3    H158645   1.879   4.001   5.757  0.5272  0.9789 -2.4339
12410TIP3    H258646   1.895   4.151   5.774 -2.4391  1.1586 -0.8784
12411TIP3   OH258647   0.601   2.835  11.716 -0.2276  0.0309  0.0786
12411TIP3    H158648   0.671   2.858  11.776 -1.6628 -0.2858  1.9241
12411TIP3    H258649   0.523   2.879  11.752 -0.5995  2.1841 -3.1092
12412TIP3   OH258650   2.821   2.154  12.084  0.6896  0.3634 -0.6982
12412TIP3    H158651   2.819   2.171  11.989 -0.1766 -0.5053 -0.8423
12412TIP3    H258652   2.735   2.116  12.103  0.3995  1.6726  0.6626
12413TIP3   OH258653   5.611   0.412   5.678  0.3089  0.2152 -0.1751
12413TIP3    H158654   5.519   0.394   5.661  0.8625 -1.0991 -1.9559
12413TIP3    H258655   5.656   0.332   5.651  2.1793  1.7087 -1.5870
12414TIP3   OH258656   6.740   3.181  12.137 -0.6638  0.7795  0.2028
12414TIP3    H158657   6.688   3.260  12.152 -1.7433  0.2437 -0.7490
12414TIP3    H258658   6.703   3.141  12.059  0.5341 -0.1426  0.0831
12415TIP3   OH258659   4.451   3.625   0.236  0.6307  0.0083  0.4591
12415TIP3    H158660   4.519   3.657   0.295  1.0592  1.6742 -0.8956
12415TIP3    H258661   4.482   3.539   0.208  2.4234  0.9291 -0.4682
12416TIP3   OH258662   5.121   5.002  15.898 -0.1671 -0.1447  0.7218
12416TIP3    H158663   5.177   5.057  15.844 -0.5465 -1.0282 -0.6069
12416TIP3    H258664   5.085   5.061  15.965  0.1872  1.0001 -0.0906
12417TIP3   OH258665   5.171   4.041   4.127  0.0596 -0.2665  0.6392
12417TIP3    H158666   5.179   3.969   4.064 -0.4356  1.4730 -1.5004
12417TIP3    H258667   5.099   4.016   4.184 -0.2708 -1.3431 -0.2395
12418TIP3   OH258668   1.759   2.122  16.728  0.2072  0.0219 -0.3503
12418TIP3    H158669   1.762   2.151  16.637 -0.2722 -0.3853 -0.5017
12418TIP3    H258670   1.788   2.198  16.778 -0.6992  0.6514 -0.7580
12419TIP3   OH258671   4.949   4.744   3.699  0.7548  0.2287 -0.1462
12419TIP3    H158672   5.023   4.684   3.688  0.1415 -0.7397  0.9134
12419TIP3    H258673   4.974   4.799   3.773  0.4012 -0.1217  0.2333
12420TIP3   OH258674   5.156   4.397   1.472 -0.0177  0.6479 -0.3986
12420TIP3    H158675   5.078   4.369   1.521 -0.1624 -0.7862 -1.4063
12420TIP3    H258676   5.127   4.399   1.381  1.5753 -1.6560 -1.0119
12421TIP3   OH258677   2.686   6.637  17.069 -0.0342  0.6002  0.4678
12421TIP3    H158678   2.765   6.630  17.123 -0.5473 -0.2404  1.1111
12421TIP3    H258679   2.628   6.568  17.101 -0.7718  0.7813 -0.4454
12422TIP3   OH258680   6.373   4.793  12.007  0.1146  0.4247 -0.3525
12422TIP3    H158681   6.464   4.815  12.027 -0.1572  1.0382  0.2409
12422TIP3    H258682   6.360   4.823  11.917  0.9879 -1.2206 -1.0512
12423TIP3   OH258683   4.540   3.700   3.457  0.4290 -0.6268  0.1095
12423TIP3    H158684   4.478   3.718   3.528  0.8979 -0.9158  0.5974
12423TIP3    H258685   4.518   3.612   3.428 -1.6717  0.5501 -2.0822
12424TIP3   OH258686   6.132   6.184   1.012  0.3301 -0.1035 -0.2989
12424TIP3    H158687   6.164   6.126   1.081  1.3171  1.6389  0.7447
12424TIP3    H258688   6.036   6.177   1.017  0.3735  0.3000  1.5358
12425TIP3   OH258689   6.585   6.526  15.348 -0.0144 -0.4699 -0.0029
12425TIP3    H158690   6.551   6.615  15.343 -0.1737 -0.3758  2.2298
12425TIP3    H258691   6.517   6.472  15.309  0.8738  0.5109 -3.1380
12426TIP3   OH258692   2.808   5.254  13.351  0.5454  0.3140  0.3053
12426TIP3    H158693   2.847   5.166  13.357  0.9507  0.4617 -0.1529
12426TIP3    H258694   2.799   5.281  13.443 -0.2164 -0.4755  0.4724
12427TIP3   OH258695   1.080   5.337  15.727 -0.2904 -0.2260 -0.4920
12427TIP3    H158696   1.015   5.282  15.771  1.6196 -1.2177  1.1199
12427TIP3    H258697   1.069   5.424  15.766 -1.4470 -0.0841 -1.0999
12428TIP3   OH258698   2.562   4.956  12.702  0.1887  0.4432 -0.0193
12428TIP3    H158699   2.607   5.015  12.763 -0.8933 -0.2933  1.5052
12428TIP3    H258700   2.622   4.949  12.628  1.2259  1.8801  0.6622
12429TIP3   OH258701   2.914   3.384   4.861  0.6686 -0.6368 -0.2648
12429TIP3    H158702   2.846   3.382   4.794  0.1827 -1.0022  0.2411
12429TIP3    H258703   2.955   3.297   4.855  0.9210 -0.5100 -0.3902
12430TIP3   OH258704   0.425   6.229  16.006  0.1080  0.0289 -0.0416
12430TIP3    H158705   0.411   6.137  15.983 -0.2128  0.0301  0.1370
12430TIP3    H258706   0.343   6.272  15.981 -0.2079  0.0484  0.9888
12431TIP3   OH258707   2.872   0.780   5.108  0.1632 -0.6776  0.5412
12431TIP3    H158708   2.960   0.819   5.102 -0.1314  0.1341  1.3807
12431TIP3    H258709   2.854   0.776   5.202 -1.0161 -0.1263  0.3484
12432TIP3   OH258710   6.050   1.163  12.595 -0.0528  0.3418 -0.3184
12432TIP3    H158711   6.088   1.175  12.508 -1.5204  0.1619 -0.9853
12432TIP3    H258712   5.967   1.210  12.592 -1.2311 -1.6682  0.2223
12433TIP3   OH258713   0.778   5.341  11.232  0.4844  0.5702  0.0135
12433TIP3    H158714   0.844   5.395  11.189  1.1252 -0.4498 -0.3156
12433TIP3    H258715   0.802   5.251  11.208 -0.5637  0.1435  0.5386
12434TIP3   OH258716   1.405   0.687   0.600 -0.5116 -0.3024  0.0022
12434TIP3    H158717   1.444   0.738   0.671  0.1043 -0.9873  0.1650
12434TIP3    H258718   1.360   0.752   0.545 -1.7596  0.1221  1.4972
12435TIP3   OH258719   0.750   6.063   2.486  0.4414  0.2618  0.2382
12435TIP3    H158720   0.657   6.056   2.463  0.6419 -0.0036 -0.4861
12435TIP3    H258721   0.793   6.095   2.407  0.8710  1.0759  0.7875
12436TIP3   OH258722   5.800   0.543  17.142  0.1000  0.3382 -0.3731
12436TIP3    H158723   5.882   0.547  17.093  1.5203  0.4511  1.9819
12436TIP3    H258724   5.764   0.456  17.120  1.8824 -0.5705  0.1998
12437TIP3   OH258725   4.351   2.562  11.869 -0.0161 -0.0182 -0.0740
12437TIP3    H158726   4.412   2.524  11.932  0.6834  0.2396 -0.5854
12437TIP3    H258727   4.340   2.493  11.803  0.4467  0.2731 -0.4612
12438TIP3   OH258728   2.579   1.126   1.189  0.1391  0.0092 -0.4805
12438TIP3    H158729   2.583   1.110   1.283  1.6132  2.0420 -0.1622
12438TIP3    H258730   2.654   1.077   1.153  0.8914  1.0165 -0.3035
12439TIP3   OH258731   2.128   0.074  12.734 -0.0241  0.3259  0.3799
12439TIP3    H158732   2.141   0.161  12.771 -0.5709  0.6191 -0.1153
12439TIP3    H258733   2.060   0.085  12.667 -0.4052 -0.5559  0.6041
12440TIP3   OH258734   1.731   4.550   0.440  0.0491  0.3259 -0.6315
12440TIP3    H158735   1.637   4.551   0.460  0.1601  0.6364 -0.1098
12440TIP3    H258736   1.773   4.564   0.525  0.6423 -3.0071 -0.2913
12441TIP3   OH258737   5.725   4.970   6.173  0.5550  0.6121  0.4441
12441TIP3    H158738   5.681   4.923   6.102 -0.2806  1.2969  0.4997
12441TIP3    H258739   5.666   5.041   6.195  0.6192  0.1838  2.0960
12442TIP3   OH258740   2.292   6.058   1.490 -0.1858  0.2480 -0.3784
12442TIP3    H158741   2.307   6.011   1.408 -0.8224  1.9114 -1.4854
12442TIP3    H258742   2.369   6.114   1.500  1.1116 -1.8314  1.5284
12443TIP3   OH258743   2.299   4.472  11.636 -1.0531  0.6554 -0.2569
12443TIP3    H158744   2.329   4.391  11.677 -1.4853  1.4256  1.6413
12443TIP3    H258745   2.221   4.447  11.586  0.5404 -0.6494 -2.1816
12444TIP3   OH258746   5.883   5.042  16.663 -0.1616  0.1302 -0.1121
12444TIP3    H158747   5.869   5.136  16.650 -2.2379 -0.4886 -3.0505
12444TIP3    H258748   5.866   5.004  16.576  1.7456 -2.8355  0.7645
12445TIP3   OH258749   5.892   6.714   2.356 -0.0774  0.2403  0.1616
12445TIP3    H158750   5.854   6.626   2.356  1.5358 -0.4948  0.9675
12445TIP3    H258751   5.878   6.746   2.446  0.2912  0.3648  0.1757
12446TIP3   OH258752   5.112   0.386   3.144  0.7606 -0.3954 -0.6041
12446TIP3    H158753   5.150   0.434   3.217  0.2322 -1.1338  0.1741
12446TIP3    H258754   5.103   0.296   3.176  0.9919 -0.8422 -1.7515
12447TIP3   OH258755   6.155   0.345  14.309 -0.1482 -0.3634 -0.8540
12447TIP3    H158756   6.156   0.330  14.403 -1.2822 -0.9189 -0.9182
12447TIP3    H258757   6.231   0.400  14.292 -0.2975  0.2557  0.4653
12448TIP3   OH258758   6.297   2.382  14.845  0.0917  0.1083 -0.0739
12448TIP3    H158759   6.203   2.388  14.828  0.0580 -0.4831 -0.1067
12448TIP3    H258760   6.332   2.335  14.768  0.1723 -1.1412  0.7044
12449TIP3   OH258761   1.406   2.153  13.097  0.1880 -0.0137 -0.4689
12449TIP3    H158762   1.473   2.209  13.138 -0.0205 -0.5152  0.5693
12449TIP3    H258763   1.344   2.134  13.167 -1.2482  0.7383 -1.5236
12450TIP3   OH258764   5.639   3.075  12.234 -0.1128 -0.4151  0.2196
12450TIP3    H158765   5.547   3.050  12.233 -0.5182  1.0587  0.8787
12450TIP3    H258766   5.679   3.019  12.167 -1.7923  0.1257 -1.2737
12451TIP3   OH258767   6.107   1.012   2.830  0.1004 -0.0813 -0.1510
12451TIP3    H158768   6.124   1.030   2.923 -1.2470  0.2269  0.0538
12451TIP3    H258769   6.103   0.916   2.826  0.1945 -0.0984  0.1121
12452TIP3   OH258770   5.453   6.071   4.360  0.8487 -0.3445 -0.6024
12452TIP3    H158771   5.524   6.014   4.390  0.1214 -1.1086 -0.2656
12452TIP3    H258772   5.387   6.010   4.326 -0.7270  0.1424  1.4167
12453TIP3   OH258773   0.154   4.320  16.296 -0.1580 -0.3275 -0.9613
12453TIP3    H158774   0.091   4.266  16.248  0.1184 -2.0145  0.5335
12453TIP3    H258775   0.099   4.381  16.346 -0.5606 -0.7093 -0.9264
12454TIP3   OH258776   3.806   5.608   1.600  0.4891  0.6453  0.6107
12454TIP3    H158777   3.840   5.522   1.622 -1.0740  0.0104  0.6067
12454TIP3    H258778   3.823   5.618   1.506 -0.5743 -0.2503  0.3149
12455TIP3   OH258779   6.756   5.289   0.771 -0.2536  0.1172  0.2934
12455TIP3    H158780   6.668   5.318   0.747  0.1386  0.4116 -0.8489
12455TIP3    H258781   6.798   5.368   0.805 -1.3082 -0.6454  3.5184
12456TIP3   OH258782   0.269   5.730  13.853 -0.3373 -0.5001 -0.7189
12456TIP3    H158783   0.283   5.816  13.892 -1.5242 -0.6267  0.0114
12456TIP3    H258784   0.326   5.729  13.776  0.2221  0.6588 -0.3285
12457TIP3   OH258785   6.254   0.658   3.280 -0.0474 -0.2641  0.0607
12457TIP3    H158786   6.311   0.695   3.347  0.3586 -3.1805  1.4316
12457TIP3    H258787   6.191   0.605   3.329 -1.5391 -0.1578 -1.6893
12458TIP3   OH258788   5.664   1.730  12.528  0.4714 -0.0113 -0.5715
12458TIP3    H158789   5.742   1.764  12.484  0.0457  1.5723 -0.1455
12458TIP3    H258790   5.591   1.775  12.485 -0.0757  0.0075  0.3642
12459TIP3   OH258791   4.690   0.563  11.566  1.1338 -0.1390  0.1873
12459TIP3    H158792   4.601   0.542  11.597  1.2947  0.7561  1.2811
12459TIP3    H258793   4.679   0.641  11.512  1.1778 -0.3684 -0.1544
12460TIP3   OH258794   6.292   0.663   3.852 -0.0400 -0.0745  0.2072
12460TIP3    H158795   6.307   0.757   3.857  0.9836  0.0045 -3.2393
12460TIP3    H258796   6.197   0.654   3.844  0.0936  0.9454 -3.1742
12461TIP3   OH258797   3.862   6.348  12.954 -0.8044 -0.4154 -0.1925
12461TIP3    H158798   3.788   6.376  12.901 -1.8576 -3.4451 -0.3983
12461TIP3    H258799   3.843   6.381  13.042 -1.7124 -0.0339 -0.5303
12462TIP3   OH258800   5.403   4.519  12.241 -0.1421 -0.3786  0.1218
12462TIP3    H158801   5.453   4.510  12.322 -1.3073 -0.7123  0.8120
12462TIP3    H258802   5.455   4.580  12.188  0.2875  0.3707  1.3832
12463TIP3   OH258803   2.601   0.732  15.558  0.0116  0.6328  0.3586
12463TIP3    H158804   2.510   0.711  15.537 -0.3442  0.7116  1.8197
12463TIP3    H258805   2.608   0.719  15.652  1.0536  2.3914  0.5383
12464TIP3   OH258806   4.764   2.147  14.737 -0.0523  0.5384  0.0014
12464TIP3    H158807   4.761   2.082  14.807  0.6662 -0.1609 -0.6014
12464TIP3    H258808   4.675   2.181  14.731 -0.3559 -0.1559  0.5419
12465TIP3   OH258809   0.699   6.214   3.582  0.4991 -0.2354  0.0165
12465TIP3    H158810   0.701   6.309   3.581 -2.3554 -0.1415 -0.5865
12465TIP3    H258811   0.757   6.189   3.654 -0.8397  2.0531  1.9326
12466TIP3   OH258812   0.492   6.554   0.150 -0.3840  0.3991  0.8191
12466TIP3    H158813   0.552   6.501   0.202  0.6019  0.6431 -0.0478
12466TIP3    H258814   0.488   6.510   0.065  0.2453  1.5537  0.1740
12467TIP3   OH258815   6.051   4.265  11.143  0.3108 -0.3484  0.2896
12467TIP3    H158816   6.001   4.226  11.072  0.1085 -0.5535  0.5427
12467TIP3    H258817   6.143   4.256  11.116  0.1889  0.7355 -0.5345
12468TIP3   OH258818   4.088   3.386  14.072 -0.4815  0.1115  0.0124
12468TIP3    H158819   4.023   3.453  14.052 -0.7059 -0.2376 -0.4432
12468TIP3    H258820   4.089   3.330  13.994  1.2967  0.8557 -0.5301
12469TIP3   OH258821   3.356   5.868   3.186 -0.4138  0.1835 -0.4846
12469TIP3    H158822   3.272   5.913   3.172 -0.6659  0.0495  0.5433
12469TIP3    H258823   3.420   5.938   3.194 -0.8635  0.4004  1.4971
12470TIP3   OH258824   5.251   6.199   2.782 -0.1555  0.2647  0.2181
12470TIP3    H158825   5.265   6.289   2.752 -1.8159  0.2141 -0.7398
12470TIP3    H258826   5.238   6.207   2.876  1.2524  0.8417  0.3868
12471TIP3   OH258827   1.481   6.296   1.662  0.3934  0.0486  0.0685
12471TIP3    H158828   1.458   6.381   1.698 -2.6816  0.1492 -1.9308
12471TIP3    H258829   1.458   6.233   1.731  0.4855  0.6700  0.6667
12472TIP3   OH258830   4.157   0.722  15.266 -0.0935  0.2864 -0.4536
12472TIP3    H158831   4.125   0.754  15.350 -0.6237 -1.5142  0.0662
12472TIP3    H258832   4.168   0.801  15.213  0.2975  1.4525  1.3057
12473TIP3   OH258833   4.046   3.442  16.962 -0.0476  0.2057  0.2343
12473TIP3    H158834   4.070   3.357  17.000  0.3617 -0.2030 -0.9220
12473TIP3    H258835   3.963   3.426  16.918  0.5410  0.1397 -0.8696
12474TIP3   OH258836   3.944   0.980  12.452 -0.0162 -0.4890  0.0679
12474TIP3    H158837   3.923   1.037  12.379  0.2518  0.0729  0.4300
12474TIP3    H258838   3.986   0.904  12.412  0.4820 -0.0093 -0.3245
12475TIP3   OH258839   4.175   5.647  11.197  0.6269 -0.3078  0.3142
12475TIP3    H158840   4.212   5.686  11.118 -0.5383 -1.2308 -0.7005
12475TIP3    H258841   4.187   5.553  11.185 -1.7871 -0.6249  0.0619
12476TIP3   OH258842   5.797   6.393  10.739 -0.3483 -0.0888  0.1522
12476TIP3    H158843   5.833   6.480  10.752 -1.8826  0.9793 -2.3252
12476TIP3    H258844   5.801   6.379  10.644 -5.2106 -0.3754 -0.1494
12477TIP3   OH258845   2.593   3.170  14.058 -0.1262  0.4960 -0.2753
12477TIP3    H158846   2.617   3.256  14.025 -0.9062  0.6116 -0.5577
12477TIP3    H258847   2.613   3.173  14.151 -0.4945  1.1026 -0.2172
12478TIP3   OH258848   3.780   4.957   0.073  0.0428 -0.2030 -0.2125
12478TIP3    H158849   3.732   5.026   0.026 -0.6404  0.0726  0.8795
12478TIP3    H258850   3.839   4.920   0.007  1.4960  2.4033 -0.4356
12479TIP3   OH258851   2.611   2.577  16.288  0.8407  0.4449 -0.4882
12479TIP3    H158852   2.706   2.568  16.280  0.7356 -0.6076 -0.5159
12479TIP3    H258853   2.596   2.672  16.289  1.7934  0.6100 -1.5460
12480TIP3   OH258854   3.804   0.681   5.489 -0.0217  0.2115 -0.4418
12480TIP3    H158855   3.839   0.625   5.420  0.3981  0.3227 -0.3152
12480TIP3    H258856   3.841   0.646   5.570  0.5041  0.8799 -0.3929
12481TIP3   OH258857   1.538   6.541  13.971 -0.0575  0.0022 -0.7402
12481TIP3    H158858   1.631   6.523  13.983 -0.2460 -1.1759 -0.8912
12481TIP3    H258859   1.498   6.511  14.053 -0.5612 -1.7356 -1.5877
12482TIP3   OH258860   5.339   1.425   3.458  0.1150  0.2454 -0.2998
12482TIP3    H158861   5.321   1.374   3.379 -0.3053  0.4569 -0.3402
12482TIP3    H258862   5.263   1.482   3.467  0.0863  0.1018  0.3557
12483TIP3   OH258863   2.276   3.304   5.357  0.3636  0.0145 -0.1900
12483TIP3    H158864   2.312   3.263   5.436  1.7377 -0.7034 -1.1673
12483TIP3    H258865   2.263   3.396   5.382  0.5948 -0.2507  0.9302
12484TIP3   OH258866   6.207   0.371  13.983  0.1687  0.5961  0.2091
12484TIP3    H158867   6.115   0.360  13.961 -0.0163  2.6335 -0.1159
12484TIP3    H258868   6.253   0.314  13.922 -0.9099 -1.0252  0.8921
12485TIP3   OH258869   5.455   5.164  14.338  0.1227 -0.2094  0.3595
12485TIP3    H158870   5.366   5.191  14.315  0.9763  1.4164 -1.1508
12485TIP3    H258871   5.499   5.154  14.254  1.2678 -1.4181  1.0850
12486TIP3   OH258872   6.114   6.552   2.544  0.0458 -0.1512  0.0803
12486TIP3    H158873   6.178   6.591   2.603  0.2049 -0.8450  0.3743
12486TIP3    H258874   6.132   6.590   2.458  0.8207 -0.3081  0.1734
12487TIP3   OH258875   1.978   0.483   3.797 -0.4480 -0.3702  0.1482
12487TIP3    H158876   2.049   0.433   3.836 -1.1611 -0.0364  1.9324
12487TIP3    H258877   2.009   0.574   3.799  0.3974 -0.5727 -2.0878
12488TIP3   OH258878   5.726   5.441  10.453 -0.3081 -0.2763 -0.2384
12488TIP3    H158879   5.688   5.362  10.415  0.2849  0.3000 -2.0751
12488TIP3    H258880   5.652   5.499  10.469 -0.2721  0.7502 -3.5738
12489TIP3   OH258881   5.596   6.640  10.726  0.0415 -0.4471  0.4908
12489TIP3    H158882   5.682   6.643  10.685 -0.8741  0.1750 -1.4496
12489TIP3    H258883   5.542   6.590  10.665 -0.9138 -1.0518  1.8106
12490TIP3   OH258884   1.926   3.664   0.342  0.1161 -0.6855 -0.0495
12490TIP3    H158885   1.992   3.712   0.392 -1.3382  1.5436 -0.2165
12490TIP3    H258886   1.944   3.687   0.251 -0.5866 -0.4828 -0.1331
12491TIP3   OH258887   4.222   3.872  11.340  0.2825 -0.0212 -0.1143
12491TIP3    H158888   4.194   3.781  11.348 -1.1550  0.2749 -1.4912
12491TIP3    H258889   4.141   3.921  11.324  1.0839  1.4487  0.2183
12492TIP3   OH258890   1.260   2.119  10.654  0.2343 -0.5943 -0.7963
12492TIP3    H158891   1.231   2.030  10.639 -0.4896 -0.2038 -1.7862
12492TIP3    H258892   1.247   2.134  10.748  0.6943 -1.6388 -0.5658
12493TIP3   OH258893   1.397   4.027   0.081 -0.0337  0.1733  0.3369
12493TIP3    H158894   1.396   3.997  -0.009  0.1650 -0.7343  0.6292
12493TIP3    H258895   1.305   4.027   0.107  0.0548 -1.5640  0.7673
12494TIP3   OH258896   4.910   2.444  11.804 -0.2683 -0.4551  0.0581
12494TIP3    H158897   4.874   2.360  11.776 -1.1852  0.1820 -0.6969
12494TIP3    H258898   4.987   2.457  11.748  0.4072 -1.2237  0.8053
12495TIP3   OH258899   0.550   5.552  15.742  0.2522  0.2087 -0.2154
12495TIP3    H158900   0.554   5.494  15.818 -0.6870  1.2052  0.5956
12495TIP3    H258901   0.568   5.494  15.668  0.3485 -0.9309  0.6789
12496TIP3   OH258902   0.453   5.353  16.859  0.2163 -0.4954 -0.3083
12496TIP3    H158903   0.427   5.266  16.889 -2.5850  0.3933  0.0539
12496TIP3    H258904   0.492   5.395  16.936 -1.5003 -0.2923  0.4717
12497TIP3   OH258905   3.494   0.165   1.219 -0.2434  0.3294  0.2102
12497TIP3    H158906   3.583   0.146   1.247 -0.8984  0.1854  2.3018
12497TIP3    H258907   3.494   0.258   1.196  0.3715  0.4163  0.5640
12498TIP3   OH258908   2.000   1.995   1.719 -0.2612 -0.0086  0.2417
12498TIP3    H158909   2.050   1.921   1.684 -0.7165 -0.3285  0.2616
12498TIP3    H258910   2.065   2.065   1.729  0.2330 -0.5022  0.5268
12499TIP3   OH258911   2.614   5.873   2.138  0.0182  0.3085 -0.2977
12499TIP3    H158912   2.591   5.807   2.204 -2.7755  1.3614 -0.1720
12499TIP3    H258913   2.626   5.954   2.187  2.3964  0.1693 -0.5850
12500TIP3   OH258914   5.906   3.284  11.560 -0.1395  0.2941  0.5328
12500TIP3    H158915   5.841   3.214  11.570  0.9297 -0.7470  0.2051
12500TIP3    H258916   5.939   3.298  11.649 -1.5681  1.5799  0.8873
12501TIP3   OH258917   3.560   2.320  16.702  0.1379 -0.2023 -0.1467
12501TIP3    H158918   3.484   2.330  16.760  0.8371  1.0603  0.5580
12501TIP3    H258919   3.633   2.354  16.752  0.9955 -0.3964 -1.2557
12502TIP3   OH258920   6.134   0.423   1.677 -0.4119  0.0682  0.9106
12502TIP3    H158921   6.111   0.330   1.673 -0.6163  0.0863  1.7005
12502TIP3    H258922   6.061   0.467   1.633 -0.4795 -0.1190  0.8341
12503TIP3   OH258923   5.545   5.541  14.835  0.7089 -0.3892  0.6221
12503TIP3    H158924   5.625   5.545  14.887  0.1383  0.9089  1.3975
12503TIP3    H258925   5.484   5.601  14.878 -0.8858 -1.7987  0.3638
12504TIP3   OH258926   5.131   2.180  14.039  0.1052 -0.0177  0.0365
12504TIP3    H158927   5.046   2.163  14.078 -0.7582 -2.6293 -2.7888
12504TIP3    H258928   5.184   2.103  14.060  1.5403  1.2265  1.0847
12505TIP3   OH258929   4.372   4.483   4.764  0.0685  0.1288 -0.4778
12505TIP3    H158930   4.324   4.421   4.819 -0.6290  0.3398 -0.8583
12505TIP3    H258931   4.464   4.460   4.778 -0.1498 -0.4415  0.0384
12506TIP3   OH258932   5.632   2.073   1.417  0.4244 -0.2775 -0.4173
12506TIP3    H158933   5.633   2.023   1.499 -1.1407  0.0828 -0.1583
12506TIP3    H258934   5.561   2.136   1.429  0.1510 -0.2651 -2.0768
12507TIP3   OH258935   0.619   6.454   4.715 -0.6605  0.3855 -0.1446
12507TIP3    H158936   0.689   6.506   4.674 -0.0017  0.1025  0.6032
12507TIP3    H258937   0.665   6.397   4.777 -1.1265 -2.4478 -2.2972
12508TIP3   OH258938   3.829   5.220   0.590 -0.3473  0.4318 -0.1473
12508TIP3    H158939   3.779   5.225   0.509  0.1104 -0.1592 -0.4689
12508TIP3    H258940   3.765   5.194   0.656 -0.6507  0.5721 -0.3884
12509TIP3   OH258941   3.779   6.152   5.165  0.4971  0.3279 -0.2968
12509TIP3    H158942   3.848   6.085   5.167 -0.5965 -0.7990  2.3698
12509TIP3    H258943   3.730   6.133   5.085 -0.4752 -2.8392  0.9650
12510TIP3   OH258944   3.870   5.507   0.431  0.4406 -0.6778 -0.1016
12510TIP3    H158945   3.922   5.448   0.486  1.4107 -0.1083 -0.3960
12510TIP3    H258946   3.780   5.481   0.447  0.7422 -0.9572  1.2728
12511TIP3   OH258947   4.328   2.296   1.058  0.0964 -0.1071 -0.3997
12511TIP3    H158948   4.347   2.330   0.970 -1.4017  0.8546 -0.3726
12511TIP3    H258949   4.233   2.281   1.057 -0.0662  0.7547  1.3321
12512TIP3   OH258950   6.442   4.125  13.161  0.1342  0.0306  0.4235
12512TIP3    H158951   6.458   4.114  13.067 -2.3988 -1.7827  0.1603
12512TIP3    H258952   6.483   4.049  13.202 -1.0106 -0.5359  0.5226
12513TIP3   OH258953   1.648   1.706  15.193 -0.5749 -0.8903 -0.1368
12513TIP3    H158954   1.718   1.763  15.227 -0.6536 -1.4764  1.0239
12513TIP3    H258955   1.578   1.766  15.169 -0.4315 -0.4539  0.5383
12514TIP3   OH258956   4.945   0.090   6.595 -0.4042  0.2203 -0.0946
12514TIP3    H158957   4.954  -0.004   6.604  0.0059  0.3998  1.4838
12514TIP3    H258958   4.866   0.102   6.542 -1.0703 -0.9801  0.6157
12515TIP3   OH258959   0.670   5.064  16.816  0.1905  0.1323 -0.5656
12515TIP3    H158960   0.640   4.973  16.823 -1.3478  0.6791  0.4697
12515TIP3    H258961   0.616   5.101  16.746  1.0292  0.1696 -1.1889
12516TIP3   OH258962   3.864   6.134   2.702  0.3004 -0.1475 -0.4241
12516TIP3    H158963   3.913   6.130   2.620  0.9647 -1.9698  0.0333
12516TIP3    H258964   3.895   6.058   2.752 -1.4320 -0.0991  0.7592
12517TIP3   OH258965   2.649   0.710  15.194  0.3976 -0.0365 -0.4087
12517TIP3    H158966   2.637   0.805  15.197 -1.2022 -0.2097 -0.5782
12517TIP3    H258967   2.676   0.686  15.282  1.0013  0.5932 -0.4166
12518TIP3   OH258968   2.738   4.593   5.302 -0.0595 -0.0777 -0.1212
12518TIP3    H158969   2.700   4.629   5.382  3.1676 -2.0419  2.4314
12518TIP3    H258970   2.823   4.636   5.294 -0.6778  0.7430 -3.0659
12519TIP3   OH258971   0.827   5.135   4.623 -0.6793  0.8447  0.4804
12519TIP3    H158972   0.744   5.117   4.667 -1.5747 -0.0367 -1.5211
12519TIP3    H258973   0.893   5.123   4.692 -1.7324 -3.9477  0.8331
12520TIP3   OH258974   6.191   5.089  15.117 -0.4934  0.6140 -0.6505
12520TIP3    H158975   6.134   5.152  15.073  0.7032  1.8250 -0.5232
12520TIP3    H258976   6.276   5.099  15.072 -0.6862 -2.0841 -1.7169
12521TIP3   OH258977   3.781   4.773   4.683 -0.5443  0.0377 -0.4336
12521TIP3    H158978   3.688   4.753   4.698 -0.3066  0.1550  1.3015
12521TIP3    H258979   3.781   4.861   4.645 -1.1060  0.3818  0.3478
12522TIP3   OH258980   5.037   5.556   4.597  0.1973  0.0667 -0.2017
12522TIP3    H158981   5.081   5.640   4.611  1.8991 -0.4830 -1.9352
12522TIP3    H258982   5.023   5.521   4.685 -0.4103  2.0822  0.5338
12523TIP3   OH258983   1.739   2.185   0.622 -0.0221 -0.2158  0.6169
12523TIP3    H158984   1.711   2.097   0.649 -0.4437 -0.4791 -0.6794
12523TIP3    H258985   1.670   2.242   0.654 -0.5279 -0.5317  0.0986
12524TIP3   OH258986   4.103   2.807   1.473 -0.1498 -0.0122 -0.6908
12524TIP3    H158987   4.109   2.867   1.398 -0.3217 -1.7842 -2.1694
12524TIP3    H258988   4.010   2.806   1.495 -0.1490  0.2669 -0.6723
12525TIP3   OH258989   3.001   2.397  15.971  0.4093  0.1006 -0.1980
12525TIP3    H158990   2.974   2.412  16.062 -3.0514 -1.2802 -0.9325
12525TIP3    H258991   2.922   2.412  15.920  2.5528  1.9202 -3.1642
12526TIP3   OH258992   2.190   6.593  17.071 -0.3720  0.3854  0.2568
12526TIP3    H158993   2.146   6.508  17.083 -0.8352  0.6411  0.3890
12526TIP3    H258994   2.204   6.600  16.977 -1.8461  0.9120  0.0687
12527TIP3   OH258995   0.499   6.448  12.738  0.1463  0.1445  0.6820
12527TIP3    H158996   0.573   6.507  12.753 -0.4459  1.2535 -0.6089
12527TIP3    H258997   0.427   6.485  12.790 -0.4335  1.0115 -0.7057
12528TIP3   OH258998   5.711   6.649  14.242  0.0272  0.5836 -0.5987
12528TIP3    H158999   5.664   6.589  14.301  0.4501 -0.1420 -0.9824
12528TIP3    H259000   5.695   6.736  14.278 -1.7961  0.3752 -0.8485
12529TIP3   OH259001   0.569   5.333  14.008 -0.6289  0.2435  0.2115
12529TIP3    H159002   0.489   5.324  14.060 -1.3666 -0.0122 -0.9385
12529TIP3    H259003   0.558   5.415  13.961 -0.2617  0.1512 -0.0339
12530TIP3   OH259004   0.807   6.160   0.627  0.4510  0.0259  0.0380
12530TIP3    H159005   0.827   6.070   0.599  1.6189 -0.0255  0.9706
12530TIP3    H259006   0.853   6.215   0.564  3.1519 -0.0889  1.8292
12531TIP3   OH259007   2.861   2.080   4.136 -0.2602 -0.6974 -0.0777
12531TIP3    H159008   2.852   1.993   4.174 -3.1528  0.8397  2.9999
12531TIP3    H259009   2.784   2.090   4.080 -1.1869  0.6797  1.3899
12532TIP3   OH259010   2.149   1.026  15.640  0.3831 -0.2724  0.1479
12532TIP3    H159011   2.217   1.091  15.653 -0.0543  0.0759  0.6982
12532TIP3    H259012   2.182   0.947  15.684  0.2634  0.0044  0.7297
12533TIP3   OH259013   3.807   4.183  12.899  0.0582 -0.3217 -0.6624
12533TIP3    H159014   3.902   4.186  12.908 -0.1745 -0.8052  2.2165
12533TIP3    H259015   3.778   4.271  12.921 -0.2791 -0.5641 -0.1423
12534TIP3   OH259016   3.214   2.507  14.393  0.6339 -0.1946 -0.2039
12534TIP3    H159017   3.235   2.435  14.333 -3.0157 -0.4872 -1.2803
12534TIP3    H259018   3.172   2.572  14.337  1.1346  1.4509  1.3065
12535TIP3   OH259019   3.191   1.177   0.955 -0.3436 -0.5802  0.1867
12535TIP3    H159020   3.203   1.211   0.867 -1.8956 -2.3633 -0.7468
12535TIP3    H259021   3.263   1.116   0.967  1.9375  2.2463  1.5397
12536TIP3   OH259022   2.290   4.627   5.661  0.1745  0.8750 -0.1667
12536TIP3    H159023   2.372   4.641   5.710  1.1318  0.6705 -1.6790
12536TIP3    H259024   2.314   4.644   5.570 -1.5524  1.0868 -0.5888
12537TIP3   OH259025   4.492   6.120  12.127  0.0880  0.0337  0.2908
12537TIP3    H159026   4.445   6.200  12.105 -1.0043 -1.1708 -1.8981
12537TIP3    H259027   4.454   6.092  12.211 -0.3100  1.1866  0.5064
12538TIP3   OH259028   6.115   1.028   2.299  0.6577 -0.1977 -0.2388
12538TIP3    H159029   6.094   1.009   2.390  1.3826 -0.7488 -0.1767
12538TIP3    H259030   6.200   1.072   2.302  0.5788 -0.0116 -0.6330
12539TIP3   OH259031   1.604   4.023  13.973  0.1500 -0.0101  0.0467
12539TIP3    H159032   1.570   4.091  13.915 -1.4240  0.2199  1.1986
12539TIP3    H259033   1.609   4.065  14.059  1.1722 -0.7360  0.3451
12540TIP3   OH259034   1.987   5.809   3.998  0.1503  0.1099  0.2950
12540TIP3    H159035   2.003   5.811   4.092 -0.5452 -0.5968  0.4320
12540TIP3    H259036   1.894   5.830   3.989 -0.1343 -1.2933 -0.1267
12541TIP3   OH259037   4.769   3.270  14.677  0.2246 -0.2579 -0.3112
12541TIP3    H159038   4.801   3.317  14.755 -1.4690  0.0619  0.2027
12541TIP3    H259039   4.773   3.178  14.702 -0.9592 -0.1212  0.4129
12542TIP3   OH259040   6.464   6.726   2.756 -0.1709  0.0042 -0.4561
12542TIP3    H159041   6.517   6.806   2.755 -0.6777  0.3415 -1.1762
12542TIP3    H259042   6.375   6.756   2.737 -0.5590 -0.6003  0.4283
12543TIP3   OH259043   5.721   4.288   5.686 -0.1796  0.1149 -0.0510
12543TIP3    H159044   5.701   4.365   5.738 -3.0054  1.2876 -2.7176
12543TIP3    H259045   5.756   4.224   5.749 -0.0353  2.6993  2.5787
12544TIP3   OH259046   5.944   2.515  13.544  0.5750  0.7522 -0.4529
12544TIP3    H159047   5.988   2.538  13.462 -0.0054  2.0841 -0.3977
12544TIP3    H259048   6.015   2.485  13.602  1.3499  2.4561 -0.5129
12545TIP3   OH259049   2.803   4.595  15.756  0.0870 -0.0143  0.2599
12545TIP3    H159050   2.884   4.582  15.706  0.2777 -0.5029  0.6865
12545TIP3    H259051   2.747   4.523  15.729  0.5042 -0.7647  1.3651
12546TIP3   OH259052   0.219   4.986   0.081 -0.2888 -0.6270 -0.0460
12546TIP3    H159053   0.207   5.073   0.119 -0.8163 -0.8751  0.3615
12546TIP3    H259054   0.140   4.938   0.106  0.2833 -1.4126  0.2510
12547TIP3   OH259055   0.199   4.821   5.151 -0.0106 -0.2597  0.4395
12547TIP3    H159056   0.105   4.825   5.130 -0.1251  1.1146  1.1250
12547TIP3    H259057   0.224   4.731   5.133 -1.1282 -0.2597 -1.2355
12548TIP3   OH259058   6.034   6.227   3.729 -0.2016 -0.0794 -0.3273
12548TIP3    H159059   6.086   6.211   3.808 -0.3560 -1.3018 -0.4612
12548TIP3    H259060   6.099   6.240   3.660 -0.0638 -1.1012 -0.3983
12549TIP3   OH259061   0.589   4.218   1.848  0.0716  0.0539  0.0414
12549TIP3    H159062   0.506   4.265   1.838  0.3251  0.3586 -0.6541
12549TIP3    H259063   0.656   4.287   1.847  0.5296 -0.3922 -2.1017
12550TIP3   OH259064   1.239   2.754   5.911 -0.5179 -0.6388  0.3448
12550TIP3    H159065   1.224   2.778   5.820 -0.9133 -0.0585  0.5586
12550TIP3    H259066   1.261   2.837   5.954 -2.1593 -0.6143  1.1509
12551TIP3   OH259067   1.242   1.897   2.428 -0.1195  0.7715 -0.0911
12551TIP3    H159068   1.255   1.804   2.445  0.5141  0.5123 -1.8877
12551TIP3    H259069   1.148   1.910   2.435 -0.2426 -0.0592 -0.1022
12552TIP3   OH259070   3.131   0.590   2.307  0.2389  0.4427 -0.4032
12552TIP3    H159071   3.201   0.563   2.248 -0.6791  1.1920 -1.8397
12552TIP3    H259072   3.133   0.524   2.377  1.6783 -0.1382 -0.9633
12553TIP3   OH259073   4.452   2.242  13.380  0.0561 -0.2734  0.1846
12553TIP3    H159074   4.481   2.326  13.416  1.7940 -0.5938 -0.3946
12553TIP3    H259075   4.474   2.178  13.447 -1.2181 -0.2768  0.6032
12554TIP3   OH259076   3.599   4.401   2.548 -0.2057  0.3667 -0.1902
12554TIP3    H159077   3.645   4.373   2.468 -2.3839  0.3065 -1.4733
12554TIP3    H259078   3.617   4.331   2.611  0.9054  0.0274 -0.8590
12555TIP3   OH259079   0.476   3.283   0.313  1.1256 -0.1147 -0.4279
12555TIP3    H159080   0.428   3.293   0.230  0.7997 -0.4305 -0.2798
12555TIP3    H259081   0.567   3.303   0.290  1.1966 -1.1473 -1.0728
12556TIP3   OH259082   4.213   4.705   4.419  0.0556 -0.9236 -0.2575
12556TIP3    H159083   4.140   4.644   4.433  0.2526 -0.7744  1.4532
12556TIP3    H259084   4.252   4.676   4.336 -1.9345 -1.0040 -1.1988
12557TIP3   OH259085   5.653   6.612  15.708 -0.5618 -0.1308 -0.6751
12557TIP3    H159086   5.672   6.566  15.790  2.3185  1.5835 -0.3044
12557TIP3    H259087   5.697   6.560  15.641  0.6625  0.7367 -0.5616
12558TIP3   OH259088   6.298   0.855   6.350  0.0286 -0.0012 -0.2310
12558TIP3    H159089   6.312   0.847   6.444  1.0163  0.9461 -0.2795
12558TIP3    H259090   6.370   0.911   6.320 -0.0876 -0.5717 -1.5991
12559TIP3   OH259091   6.389   2.694  14.315 -0.0375  0.0351 -0.2496
12559TIP3    H159092   6.301   2.732  14.326 -0.4935 -1.2498  0.6779
12559TIP3    H259093   6.374   2.614  14.265  0.5916 -0.2496  0.0170
12560TIP3   OH259094   4.263   4.809  15.697 -0.5481 -0.0731  0.6148
12560TIP3    H159095   4.314   4.889  15.709  0.2339 -0.5805  0.6626
12560TIP3    H259096   4.192   4.835  15.639 -0.8964  0.9155  1.4533
12561TIP3   OH259097   3.865   1.670  12.206  0.2360 -0.1429 -0.4678
12561TIP3    H159098   3.902   1.757  12.217  1.3419 -0.4071 -1.9906
12561TIP3    H259099   3.771   1.685  12.198  0.3256  0.8193  0.2654
12562TIP3   OH259100   2.037   2.225   4.457  0.5138  0.4725  0.0045
12562TIP3    H159101   2.130   2.245   4.466  0.7120 -0.5993  0.4458
12562TIP3    H259102   2.033   2.129   4.457 -0.6502  0.5104  0.6586
12563TIP3   OH259103   3.769   4.765  10.887  0.0629 -0.1803 -0.4348
12563TIP3    H159104   3.751   4.685  10.839  1.1498 -0.4504 -0.4107
12563TIP3    H259105   3.843   4.805  10.841  1.0451 -0.3841  0.9333
12564TIP3   OH259106   2.326   0.075   3.142  0.3838 -0.3862  0.3020
12564TIP3    H159107   2.330  -0.021   3.147 -1.1882 -0.4244  1.5139
12564TIP3    H259108   2.248   0.092   3.090  1.8557  0.2449 -1.7329
12565TIP3   OH259109   2.099   2.941   3.098 -0.4609 -0.1811 -0.1313
12565TIP3    H159110   2.154   2.992   3.038 -0.1524  0.2303  0.5000
12565TIP3    H259111   2.161   2.892   3.152 -0.6495  1.5564  1.7115
12566TIP3   OH259112   1.899   4.740   5.824  0.6210 -0.4541 -0.2714
12566TIP3    H159113   1.940   4.753   5.910 -0.0713  1.2773 -0.1811
12566TIP3    H259114   1.965   4.769   5.761 -0.0735  1.4162 -0.1668
12567TIP3   OH259115   4.228   4.199   3.647 -0.3697  0.3883  0.0580
12567TIP3    H159116   4.256   4.114   3.613 -1.8926 -0.6929  1.4130
12567TIP3    H259117   4.257   4.262   3.581 -0.0685 -1.2806 -1.4504
12568TIP3   OH259118   6.726   2.078   0.372 -0.2451  0.0219 -0.1261
12568TIP3    H159119   6.722   1.999   0.426 -1.8956  1.2657  1.6295
12568TIP3    H259120   6.729   2.150   0.434 -0.6163  1.4313 -1.6908
12569TIP3   OH259121   5.368   1.466  14.626  0.6064 -0.3440  0.0857
12569TIP3    H159122   5.302   1.527  14.658 -0.8141 -2.6672  1.7801
12569TIP3    H259123   5.434   1.463  14.696  0.2471 -1.3394  0.3925
12570TIP3   OH259124   2.915   4.568   0.714 -0.7477 -0.3119  0.1130
12570TIP3    H159125   2.853   4.494   0.716 -1.9134  0.6046 -1.0319
12570TIP3    H259126   2.887   4.624   0.787 -0.7374 -0.3229  0.1252
12571TIP3   OH259127   0.666   3.649   2.261  0.2039 -0.1856  0.2602
12571TIP3    H159128   0.615   3.691   2.191  0.2785 -0.1448  0.2293
12571TIP3    H259129   0.755   3.683   2.248 -0.2178  1.5815  1.7440
12572TIP3   OH259130   3.090   1.389  16.449 -0.0889 -0.0582 -0.3737
12572TIP3    H159131   3.016   1.336  16.478 -0.8424  0.7696 -0.7763
12572TIP3    H259132   3.153   1.325  16.415 -0.2959 -0.8227  0.6337
12573TIP3   OH259133   2.693   4.505   2.249 -0.1461 -0.5146  0.0744
12573TIP3    H159134   2.769   4.451   2.272 -0.4223 -0.8058  0.3031
12573TIP3    H259135   2.730   4.591   2.231  0.4776 -1.1686 -1.8372
12574TIP3   OH259136   0.915   0.899   0.934 -0.2711 -0.2896  0.4237
12574TIP3    H159137   0.955   0.817   0.964  2.2463  1.0770  0.9698
12574TIP3    H259138   0.898   0.885   0.841  2.5615 -0.5647 -0.1062
12575TIP3   OH259139   5.995   6.266  11.560  0.5719 -0.1511 -0.0806
12575TIP3    H159140   5.946   6.193  11.599 -1.9197  0.8612 -1.2078
12575TIP3    H259141   6.008   6.240  11.469 -1.0768  1.1350 -0.7116
12576TIP3   OH259142   0.377   0.404  16.216 -0.7406 -0.4467 -0.1705
12576TIP3    H159143   0.301   0.348  16.198  0.0933 -1.9575  0.8286
12576TIP3    H259144   0.436   0.387  16.142 -1.4410  0.8822 -1.0479
12577TIP3   OH259145   5.388   5.504  13.412  0.2253 -0.6537  0.5467
12577TIP3    H159146   5.378   5.593  13.376  1.8572 -0.3301  0.8802
12577TIP3    H259147   5.298   5.474  13.425 -0.3472  1.2724  1.2211
12578TIP3   OH259148   1.228   3.041   3.811 -0.3268 -0.2342 -0.6117
12578TIP3    H159149   1.318   3.012   3.795 -0.2811  0.3033 -1.3162
12578TIP3    H259150   1.217   3.033   3.906  1.1098  1.5728 -0.2816
12579TIP3   OH259151   5.436   0.989  14.224  0.3431 -0.2449 -0.3978
12579TIP3    H159152   5.357   0.943  14.251  0.0435  0.6978  0.3672
12579TIP3    H259153   5.497   0.976  14.297 -1.1519  4.0203  1.8123
12580TIP3   OH259154   2.300   6.659  11.327  0.5390 -0.2919 -0.0297
12580TIP3    H159155   2.240   6.730  11.303  1.8825  0.3096 -1.7293
12580TIP3    H259156   2.384   6.703  11.341  0.8034 -1.2343  1.4936
12581TIP3   OH259157   6.220   4.857  14.003 -0.5066  0.2516  0.2447
12581TIP3    H159158   6.191   4.867  14.094 -0.6113  0.4925  0.1863
12581TIP3    H259159   6.299   4.912  13.997 -0.1833 -0.2010  0.3357
12582TIP3   OH259160   3.851   1.665   5.787 -0.0346 -0.2890  0.0864
12582TIP3    H159161   3.793   1.591   5.771 -0.4643 -0.1301  0.9093
12582TIP3    H259162   3.798   1.727   5.837  0.4489  0.3985 -0.2476
12583TIP3   OH259163   6.378   4.468  15.566  0.0308 -0.0268 -0.1947
12583TIP3    H159164   6.300   4.518  15.542  0.4137  1.7412  2.0952
12583TIP3    H259165   6.344   4.386  15.602 -0.6149 -1.2214 -3.3323
12584TIP3   OH259166   0.766   3.872   2.769 -0.3689  0.2151 -0.2245
12584TIP3    H159167   0.686   3.833   2.804 -1.0783  1.0896 -0.8590
12584TIP3    H259168   0.785   3.820   2.691 -1.0004  0.7718 -0.7546
12585TIP3   OH259169   1.092   0.141  15.499 -0.2220  0.5899 -0.2604
12585TIP3    H159170   1.081   0.124  15.593 -2.1707  1.0590 -0.3741
12585TIP3    H259171   1.088   0.236  15.492  0.1179  0.5614 -0.7900
12586TIP3   OH259172   0.315   6.021   3.424 -0.1603  0.5196  0.2264
12586TIP3    H159173   0.350   6.025   3.513 -1.2532  0.0955  0.6794
12586TIP3    H259174   0.242   6.082   3.424 -1.3076 -0.8240  0.1382
12587TIP3   OH259175   4.428   4.270   2.579 -0.1696 -0.4297 -0.6502
12587TIP3    H159176   4.413   4.277   2.673  2.0011  3.3585 -0.5202
12587TIP3    H259177   4.496   4.204   2.570 -0.2458 -0.6551  0.4263
12588TIP3   OH259178   1.621   1.368   4.475  0.0226  0.3061 -0.3642
12588TIP3    H159179   1.645   1.460   4.477  0.8463  0.0789  0.3635
12588TIP3    H259180   1.635   1.342   4.383 -2.9408  1.5902 -1.2379
12589TIP3   OH259181   1.517   2.732  13.504  0.3312 -0.1192 -0.4512
12589TIP3    H159182   1.509   2.702  13.413  2.0542  0.4457 -0.8136
12589TIP3    H259183   1.607   2.764  13.510  0.4829 -0.9059  1.6928
12590TIP3   OH259184   1.380   2.950  15.699  0.3331 -0.8959 -0.2444
12590TIP3    H159185   1.342   2.910  15.620  0.2742 -0.1014 -0.6219
12590TIP3    H259186   1.435   2.881  15.736  1.1926 -0.9282 -1.5653
12591TIP3   OH259187   1.075   0.953  17.235 -0.1766 -0.3977 -0.1524
12591TIP3    H159188   0.987   0.984  17.210 -1.2513 -0.9440  2.8200
12591TIP3    H259189   1.100   1.010  17.307  1.2945 -1.2447  0.0068
12592TIP3   OH259190   5.635   3.580   2.896 -0.3032  1.0392 -0.0692
12592TIP3    H159191   5.649   3.492   2.932 -0.6320  1.0158 -0.0007
12592TIP3    H259192   5.722   3.606   2.864 -0.9841 -1.0526 -4.0446
12593TIP3   OH259193   4.761   3.018   4.626 -0.3726 -0.8238 -0.0816
12593TIP3    H159194   4.702   2.980   4.691 -1.7200  1.5750  0.1993
12593TIP3    H259195   4.817   3.077   4.676 -1.0174  0.5795 -0.9729
12594TIP3   OH259196   6.567   4.647   2.673  0.3637  0.4419 -0.3961
12594TIP3    H159197   6.480   4.681   2.693  0.9783  1.2359  0.9645
12594TIP3    H259198   6.623   4.680   2.743  1.8423  0.2483 -1.4595
12595TIP3   OH259199   6.613   5.931   0.477  0.1794  0.0261  1.1387
12595TIP3    H159200   6.598   5.873   0.403 -0.8522  0.8162  0.7097
12595TIP3    H259201   6.683   5.890   0.527  1.7672  0.1211 -0.9478
12596TIP3   OH259202   2.998   4.272  11.833 -0.0461  0.4762  0.1768
12596TIP3    H159203   2.939   4.213  11.881 -0.6686  1.6075  0.8293
12596TIP3    H259204   3.049   4.214  11.776 -1.4158 -0.5768 -0.0027
12597TIP3   OH259205   5.234   3.725  11.136  0.1692 -0.7560  0.0081
12597TIP3    H159206   5.235   3.722  11.040  1.9195  0.4179 -0.0462
12597TIP3    H259207   5.146   3.754  11.158 -0.4507 -1.6727 -1.2209
12598TIP3   OH259208   0.873   1.954  11.906  0.1762  0.0924  0.3598
12598TIP3    H159209   0.908   1.883  11.959  0.4353 -0.6336 -0.7619
12598TIP3    H259210   0.887   2.033  11.958  0.6511 -0.5759  1.2465
12599TIP3   OH259211   4.633   4.754  17.226 -0.6307  0.0609 -0.2370
12599TIP3    H159212   4.722   4.747  17.262 -0.0302  1.2404 -1.4435
12599TIP3    H259213   4.603   4.840  17.256 -1.2673 -0.2230 -0.0657
12600TIP3   OH259214   6.206   1.439  12.564 -0.1490 -0.1776 -0.0723
12600TIP3    H159215   6.189   1.498  12.637  1.1982 -0.1026  0.1825
12600TIP3    H259216   6.120   1.404  12.542 -0.6933  0.4634  0.9813
12601TIP3   OH259217   3.288   5.248  13.837 -0.3226  0.0319 -0.0949
12601TIP3    H159218   3.318   5.338  13.846  1.6421 -0.5986 -0.2149
12601TIP3    H259219   3.257   5.224  13.924 -0.2360  0.6027  0.0926
12602TIP3   OH259220   6.189   2.499   2.205 -0.4477 -0.2062 -0.5284
12602TIP3    H159221   6.212   2.441   2.133 -0.4189  0.4625 -1.0618
12602TIP3    H259222   6.201   2.587   2.170 -2.5666  0.1523 -0.4072
12603TIP3   OH259223   5.130   6.206   1.105  0.2743  0.4714  0.3314
12603TIP3    H159224   5.098   6.198   1.016 -0.6904 -0.2913  0.7357
12603TIP3    H259225   5.195   6.136   1.113 -1.6365 -1.2681  1.0644
12604TIP3   OH259226   6.591   5.821   2.513 -0.8110 -0.0052  0.3980
12604TIP3    H159227   6.504   5.856   2.492 -1.4617 -1.1074  1.2566
12604TIP3    H259228   6.577   5.728   2.527  0.6376 -0.3218 -0.1673
12605TIP3   OH259229   0.908   3.187  16.324 -0.0363  0.4101 -0.2847
12605TIP3    H159230   0.908   3.116  16.388  1.0971  0.1800 -0.5170
12605TIP3    H259231   0.818   3.220  16.324 -0.9829 -1.9911 -1.2296
12606TIP3   OH259232   4.509   0.453  13.066 -0.2838  0.3188  0.4166
12606TIP3    H159233   4.511   0.537  13.113 -1.2823  0.5365  0.0862
12606TIP3    H259234   4.515   0.387  13.135 -1.0583  0.6479  0.8114
12607TIP3   OH259235   6.196   6.489   2.889  0.5506 -0.5491  0.7146
12607TIP3    H159236   6.127   6.548   2.859 -0.1234 -1.6016  0.1706
12607TIP3    H259237   6.273   6.545   2.898  0.2266  0.1963 -0.9367
12608TIP3   OH259238   4.208   5.934  11.615  0.1367 -0.4349  0.0046
12608TIP3    H159239   4.229   5.916  11.524  0.4359  0.2929 -0.0700
12608TIP3    H259240   4.292   5.957  11.655  0.1076 -1.3413  0.6066
12609TIP3   OH259241   3.558   2.673   3.468  0.2699 -0.0702  0.1219
12609TIP3    H159242   3.627   2.606   3.469  1.9527  1.5872 -0.4788
12609TIP3    H259243   3.517   2.664   3.382  0.1448 -0.6565  0.2399
12610TIP3   OH259244   0.320   0.018   4.712  0.3102 -0.3629 -0.1916
12610TIP3    H159245   0.348   0.013   4.621  1.8963  1.4542  0.1746
12610TIP3    H259246   0.324   0.111   4.734 -0.7433 -0.6916  1.5277
12611TIP3   OH259247   1.305   4.606   6.564  0.1251 -0.2573 -0.3363
12611TIP3    H159248   1.249   4.652   6.501  0.7000  0.6167 -0.2229
12611TIP3    H259249   1.326   4.672   6.630  1.0906 -0.6317 -0.2504
12612TIP3   OH259250   3.848   4.743   1.387 -0.2178 -0.1118 -0.2643
12612TIP3    H159251   3.828   4.678   1.455  1.2297  1.0279  1.2960
12612TIP3    H259252   3.820   4.702   1.306 -1.0921 -1.9146  0.9086
12613TIP3   OH259253   1.113   3.321   2.642  0.3884 -0.1621 -0.4912
12613TIP3    H159254   1.075   3.249   2.694  0.8405  0.3208  0.5138
12613TIP3    H259255   1.199   3.335   2.680 -0.6758  2.6528  1.0371
12614TIP3   OH259256   3.501   2.029  14.103  0.0016  0.6667  0.1787
12614TIP3    H159257   3.411   2.027  14.135 -0.6193  0.5543 -1.5345
12614TIP3    H259258   3.535   1.942  14.122 -1.0188 -0.0693 -1.2736
12615TIP3   OH259259   6.249   2.605   3.461  0.0517 -0.1796 -0.2450
12615TIP3    H159260   6.206   2.638   3.383 -1.2887 -1.5590 -0.1208
12615TIP3    H259261   6.336   2.645   3.460 -1.1036  2.4649 -0.6445
12616TIP3   OH259262   0.164   4.301   3.178 -0.3322  0.2817  0.2965
12616TIP3    H159263   0.084   4.339   3.142 -0.5442  0.4641  0.9428
12616TIP3    H259264   0.160   4.322   3.272  0.4468  0.2541  0.3418
12617TIP3   OH259265   5.922   5.477  14.775 -0.3922  0.2210  0.4584
12617TIP3    H159266   5.870   5.556  14.792 -1.2154  0.0842 -1.3553
12617TIP3    H259267   5.938   5.478  14.681  1.1283 -0.8450  0.6950
12618TIP3   OH259268   5.078   2.274  15.734  0.2349  0.3096  0.8845
12618TIP3    H159269   5.032   2.357  15.740 -0.3717 -0.0419  1.1957
12618TIP3    H259270   5.024   2.213  15.785  0.8222 -0.2053  0.8988
12619TIP3   OH259271   4.525   2.638  15.180  0.0792 -0.0280 -0.2463
12619TIP3    H159272   4.491   2.677  15.260 -0.4149 -0.7550 -0.0956
12619TIP3    H259273   4.472   2.559  15.167  0.4612 -0.1664 -1.0352
12620TIP3   OH259274   0.842   5.618   0.767 -0.0586 -0.0544 -0.2895
12620TIP3    H159275   0.856   5.543   0.709 -0.8037 -0.9828  0.7133
12620TIP3    H259276   0.912   5.680   0.744  0.2306 -0.8200 -1.4972
12621TIP3   OH259277   5.849   0.704   0.800  0.0735 -0.1064 -0.5434
12621TIP3    H159278   5.780   0.710   0.735  0.1530  0.7105 -0.5651
12621TIP3    H259279   5.925   0.670   0.752 -0.1206 -0.3493 -0.6751
12622TIP3   OH259280   2.578   3.585   1.623  0.5644 -0.0661 -0.5191
12622TIP3    H159281   2.673   3.584   1.635  0.7333 -0.4203 -1.8018
12622TIP3    H259282   2.553   3.492   1.623 -0.2006  0.0779  2.7822
12623TIP3   OH259283   2.654   5.453   0.502  0.1496 -0.2250  0.1194
12623TIP3    H159284   2.589   5.514   0.466  1.3555  0.8422 -0.2745
12623TIP3    H259285   2.643   5.460   0.597 -1.7170 -1.6153  0.0559
12624TIP3   OH259286   4.975   3.059  13.682  0.1561 -0.2950 -0.0634
12624TIP3    H159287   5.064   3.060  13.719  0.5319 -0.1306 -0.9640
12624TIP3    H259288   4.978   3.125  13.612 -0.6751 -0.2947 -0.0971
12625TIP3   OH259289   6.313   5.011   0.183  0.5483  0.2625 -0.2070
12625TIP3    H159290   6.340   4.962   0.260 -0.9581  0.8080  0.7029
12625TIP3    H259291   6.251   4.953   0.138 -0.9178  1.1122  0.6499
12626TIP3   OH259292   5.828   4.993   4.408  0.3358 -0.3409  0.1165
12626TIP3    H159293   5.786   4.914   4.373 -1.7592  0.6037  0.3932
12626TIP3    H259294   5.824   4.982   4.503  1.2137 -0.4899  0.1370
12627TIP3   OH259295   3.816   5.514   3.904  0.2468 -0.6423  0.1061
12627TIP3    H159296   3.809   5.430   3.857 -3.9479 -0.1805 -0.2336
12627TIP3    H259297   3.808   5.490   3.996 -2.1283 -0.5435 -0.0542
12628TIP3   OH259298   3.071   5.346  13.383 -0.3034 -0.4675 -0.1747
12628TIP3    H159299   3.021   5.386  13.454  1.7537  2.7454 -0.4542
12628TIP3    H259300   3.007   5.330  13.314 -1.6199 -0.0930  0.9445
12629TIP3   OH259301   1.264   2.398  14.327 -0.4064 -0.1391 -0.0006
12629TIP3    H159302   1.187   2.372  14.277 -1.0577  1.9394 -0.1482
12629TIP3    H259303   1.314   2.453  14.267  0.6311 -0.5851  0.4576
12630TIP3   OH259304   5.913   3.761   0.419 -0.2458 -0.8822  0.2257
12630TIP3    H159305   6.007   3.751   0.406 -0.1210  0.5328 -0.0765
12630TIP3    H259306   5.905   3.825   0.490 -0.9543  2.4112 -2.6705
12631TIP3   OH259307   3.905   2.050  12.714 -0.0109  0.6099 -0.2705
12631TIP3    H159308   4.000   2.061  12.716  0.1432 -0.4077 -1.7449
12631TIP3    H259309   3.884   2.037  12.622 -1.6847  1.6297 -0.0553
12632TIP3   OH259310   1.586   1.874  12.021 -0.6690  0.8619 -0.2873
12632TIP3    H159311   1.627   1.867  11.934  1.4395 -2.2105  0.8746
12632TIP3    H259312   1.640   1.938  12.068 -0.9095  1.3920 -0.7193
12633TIP3   OH259313   1.047   3.846   3.384 -0.1699  0.3358  0.7866
12633TIP3    H159314   1.142   3.832   3.385 -0.0990  0.7320 -0.0880
12633TIP3    H259315   1.033   3.910   3.314 -1.1320 -0.1144  0.5627
12634TIP3   OH259316   2.706   3.582   2.354  0.1829 -0.1637 -0.2741
12634TIP3    H159317   2.696   3.659   2.298 -0.5518  0.3719  0.5628
12634TIP3    H259318   2.640   3.521   2.322  0.3500 -0.1965 -0.5523
12635TIP3   OH259319   1.570   1.117   4.966 -0.3265 -0.7819 -0.0766
12635TIP3    H159320   1.571   1.158   4.879  0.0372 -0.3827  0.1140
12635TIP3    H259321   1.643   1.056   4.964 -0.0811 -0.4983  0.0747
12636TIP3   OH259322   0.047   6.512   3.177  0.2900  0.1773  0.8440
12636TIP3    H159323   0.068   6.480   3.089  0.0543  1.4420  0.3122
12636TIP3    H259324   0.123   6.565   3.201 -0.2114  0.8896  0.8686
12637TIP3   OH259325   1.169   5.950   0.362  0.1212  0.9844 -0.2520
12637TIP3    H159326   1.233   6.012   0.397  0.8790 -0.3282  0.7284
12637TIP3    H259327   1.211   5.916   0.282  0.8635 -0.2124  0.6345
12638TIP3   OH259328   1.343   3.545  12.241  0.3581 -0.0668  1.0262
12638TIP3    H159329   1.353   3.468  12.298 -0.9317 -0.3322  0.9177
12638TIP3    H259330   1.347   3.619  12.301 -0.5504 -0.3259  1.4199
12639TIP3   OH259331   3.497   1.496   0.288 -0.0448  0.1393 -0.3702
12639TIP3    H159332   3.544   1.554   0.228 -1.0221 -0.0179 -1.3005
12639TIP3    H259333   3.418   1.545   0.312  1.7540  1.4969  3.2219
12640TIP3   OH259334   1.941   1.937   4.220  0.7222  0.2091  0.1785
12640TIP3    H159335   1.893   1.894   4.149  1.5820 -0.1160 -0.2069
12640TIP3    H259336   2.007   1.990   4.176  0.8704  0.4715  0.7144
12641TIP3   OH259337   1.569   3.704   0.815  0.3163 -0.2532 -0.8116
12641TIP3    H159338   1.524   3.707   0.730 -0.4680 -0.0294 -0.3969
12641TIP3    H259339   1.639   3.640   0.803 -0.6319 -1.2289 -1.2303
12642TIP3   OH259340   1.142   5.644  14.019  0.0908  0.4589 -0.8362
12642TIP3    H159341   1.126   5.738  14.010 -1.6603  0.1812 -0.6958
12642TIP3    H259342   1.116   5.623  14.108 -1.0015 -0.4428 -1.3540
12643TIP3   OH259343   2.571   1.916  15.621  0.3624  0.0949 -0.5476
12643TIP3    H159344   2.583   2.011  15.625 -1.6902  0.4008 -1.1127
12643TIP3    H259345   2.534   1.893  15.706  2.6027 -0.4909  0.2933
12644TIP3   OH259346   2.490   1.130   2.141 -0.5042 -0.1339 -0.0171
12644TIP3    H159347   2.561   1.177   2.184  0.0854 -1.0177 -0.0094
12644TIP3    H259348   2.426   1.198   2.118  0.4008  0.6846 -0.1389
12645TIP3   OH259349   5.177   4.422  15.357  0.2371  0.2991  0.4596
12645TIP3    H159350   5.203   4.330  15.371 -0.1199  0.0318 -0.6012
12645TIP3    H259351   5.103   4.435  15.417  0.6041  0.0475  0.9758
12646TIP3   OH259352   4.712   3.184   1.123 -0.1722 -0.7684  0.4647
12646TIP3    H159353   4.717   3.277   1.148 -0.5241 -0.4321 -0.7121
12646TIP3    H259354   4.798   3.149   1.148  1.1729  0.6276 -2.0237
12647TIP3   OH259355   4.316   2.246   0.296  0.2213 -0.4598 -0.4349
12647TIP3    H159356   4.302   2.168   0.349 -1.2200  0.3110  0.3558
12647TIP3    H259357   4.349   2.213   0.212 -0.2012 -1.8928 -0.0479
12648TIP3   OH259358   0.008   2.531   5.257  0.0311  0.3087  0.4952
12648TIP3    H159359   0.088   2.575   5.229  0.5106 -0.9880 -0.2055
12648TIP3    H259360   0.019   2.518   5.351  0.1838  1.0662  0.5836
12649TIP3   OH259361   5.205   0.182  11.516  0.2785  0.1486  0.1535
12649TIP3    H159362   5.261   0.105  11.522  0.4100  0.1962 -0.4470
12649TIP3    H259363   5.248   0.247  11.572  0.4426 -0.0455  0.2548
12650TIP3   OH259364   3.855   2.104  12.017  0.2414  0.4288 -0.2156
12650TIP3    H159365   3.823   2.032  11.963  0.0623 -0.6583  1.3126
12650TIP3    H259366   3.776   2.152  12.042 -0.1386 -1.5812  2.6028
12651TIP3   OH259367   5.058   1.370  11.758 -0.4065 -0.0074 -0.1949
12651TIP3    H159368   5.114   1.375  11.680  0.6395 -0.0185  0.5425
12651TIP3    H259369   5.029   1.278  11.760  0.3721 -0.2562 -0.0195
12652TIP3   OH259370   6.243   5.169   3.199 -0.0920 -0.0323 -0.4612
12652TIP3    H159371   6.235   5.133   3.111  1.6726  1.4257 -1.2385
12652TIP3    H259372   6.319   5.227   3.196  0.0593 -0.0082  2.0445
12653TIP3   OH259373   4.842   0.847   2.230 -0.0578 -0.0999  0.3939
12653TIP3    H159374   4.883   0.775   2.277  0.3186  1.2248  2.1591
12653TIP3    H259375   4.764   0.868   2.281 -0.9680 -0.2012 -0.9191
12654TIP3   OH259376   6.496   1.290   2.719  0.5782 -0.3167 -0.1396
12654TIP3    H159377   6.550   1.308   2.642 -0.4515  1.7059 -0.4205
12654TIP3    H259378   6.418   1.247   2.684 -0.8916  2.5819 -0.5302
12655TIP3   OH259379   6.457   2.661  12.415  0.2675  0.1036  0.2044
12655TIP3    H159380   6.372   2.619  12.430  0.7639 -1.2447 -0.6797
12655TIP3    H259381   6.436   2.740  12.365 -0.6350  0.7094  1.5143
12656TIP3   OH259382   2.607   6.497   3.345 -0.1995  0.5865 -0.5987
12656TIP3    H159383   2.612   6.405   3.371 -3.7676  0.3147 -0.6226
12656TIP3    H259384   2.519   6.524   3.371  0.3621  3.6499 -1.7395
12657TIP3   OH259385   3.889   3.185   1.682 -0.4307  0.3218 -0.6015
12657TIP3    H159386   3.824   3.215   1.746 -3.7284  0.9378 -4.0044
12657TIP3    H259387   3.920   3.265   1.640  1.5847 -0.0806  0.0603
12658TIP3   OH259388   1.987   2.983   0.025 -0.2240 -0.1360 -0.2954
12658TIP3    H159389   1.930   2.909   0.004 -3.1025  1.4472  1.5202
12658TIP3    H259390   1.970   3.046  -0.045 -0.9850  0.4552  0.4053
12659TIP3   OH259391   0.811   1.028  11.944  0.5150  0.3455  0.1078
12659TIP3    H159392   0.816   1.117  11.908  1.9716  0.1432 -0.2332
12659TIP3    H259393   0.899   0.992  11.930 -0.2720 -1.4037 -0.4098
12660TIP3   OH259394   4.043   2.504   1.697  0.2123 -0.1186 -0.0577
12660TIP3    H159395   4.068   2.478   1.608 -0.3789 -1.0202  0.0267
12660TIP3    H259396   4.089   2.586   1.712 -0.9090  0.8680 -1.7930
12661TIP3   OH259397   4.852   1.041  16.854 -0.2327 -1.0432  0.0879
12661TIP3    H159398   4.948   1.043  16.853 -0.1746 -0.5959  2.7229
12661TIP3    H259399   4.827   1.060  16.764  2.1555 -1.1766 -0.6464
12662TIP3   OH259400   2.205   4.222   5.401 -1.1323 -0.5034  0.0441
12662TIP3    H159401   2.253   4.172   5.335 -0.2214  1.0283 -0.4804
12662TIP3    H259402   2.269   4.239   5.470 -1.7886 -1.1652  0.8253
12663TIP3   OH259403   3.283   1.553  16.222 -0.3422 -0.0738  0.5132
12663TIP3    H159404   3.293   1.647  16.230 -2.3589  0.0794  1.6579
12663TIP3    H259405   3.309   1.518  16.307  2.2003 -0.7576 -0.4952
12664TIP3   OH259406   4.875   5.518   5.759 -0.1691  0.3547  0.5145
12664TIP3    H159407   4.846   5.428   5.773  0.2395  0.1108 -0.1605
12664TIP3    H259408   4.928   5.513   5.679 -0.5410  1.2803  0.2117
12665TIP3   OH259409   1.235   3.177  15.702  0.1325  0.0084 -0.7039
12665TIP3    H159410   1.277   3.092  15.688 -1.4100 -1.0935  1.0259
12665TIP3    H259411   1.262   3.231  15.628  1.0990 -2.0174 -1.8496
12666TIP3   OH259412   3.256   2.081  14.670 -0.6860 -0.0676  0.4334
12666TIP3    H159413   3.189   2.138  14.632 -0.8759 -1.3057 -1.1396
12666TIP3    H259414   3.249   1.999  14.621 -1.0866 -1.8319  3.3354
12667TIP3   OH259415   5.339   0.114  12.971 -0.3128 -0.4908 -0.0274
12667TIP3    H159416   5.319   0.052  12.900  1.6147 -1.1893  0.0167
12667TIP3    H259417   5.364   0.059  13.045  1.0890  0.3286  0.1180
12668TIP3   OH259418   2.581   5.871  13.271  1.1997  0.1796  0.1691
12668TIP3    H159419   2.502   5.851  13.320  0.3390 -1.0774 -1.6732
12668TIP3    H259420   2.579   5.966  13.260  0.4840  0.2701  1.0003
12669TIP3   OH259421   3.749   5.438   2.227  0.7180 -0.2820  0.6141
12669TIP3    H159422   3.753   5.481   2.312  1.7303  2.5992 -0.8139
12669TIP3    H259423   3.750   5.510   2.164 -4.1152 -2.1155 -1.8247
12670TIP3   OH259424   2.225   4.048  12.621 -0.0301  0.5397  0.2054
12670TIP3    H159425   2.246   4.138  12.645 -0.7962  0.6200  0.6097
12670TIP3    H259426   2.274   3.994  12.683  1.5827  0.6289 -0.9557
12671TIP3   OH259427   4.274   4.427  13.178  0.2585  0.4389  0.5413
12671TIP3    H159428   4.301   4.516  13.155  0.0882 -0.1808 -2.2946
12671TIP3    H259429   4.179   4.433  13.190  0.4762  0.9613  2.0087
12672TIP3   OH259430   3.028   5.383   4.717 -0.2239 -0.0448  0.0551
12672TIP3    H159431   2.938   5.383   4.750 -0.4639  0.3479 -0.5976
12672TIP3    H259432   3.035   5.463   4.665  0.3217 -0.3823 -0.3931
12673TIP3   OH259433   1.288   2.531   0.010 -0.5653  0.0922 -0.8603
12673TIP3    H159434   1.295   2.581   0.092  2.7755 -1.2712 -0.2227
12673TIP3    H259435   1.311   2.594  -0.058  2.7928 -0.2420 -0.1310
12674TIP3   OH259436   6.103   3.732  13.613 -0.3596 -0.3261 -0.0685
12674TIP3    H159437   6.119   3.762  13.523  0.1299  1.7573  0.6790
12674TIP3    H259438   6.032   3.789  13.644 -0.6134 -1.1246  0.8152
12675TIP3   OH259439   4.774   5.466  13.868  0.6156  0.0440  0.4028
12675TIP3    H159440   4.828   5.461  13.947  1.8499 -0.0670 -0.4330
12675TIP3    H259441   4.822   5.524  13.809 -0.3794  0.2607 -0.2056
12676TIP3   OH259442   5.321   6.401   2.182  0.7637 -0.0338  0.2504
12676TIP3    H159443   5.329   6.313   2.218 -0.8416 -0.7609 -1.0804
12676TIP3    H259444   5.251   6.442   2.233 -0.3050 -0.4634 -0.8312
12677TIP3   OH259445   6.200   0.898  15.783 -0.4255 -0.1343  0.1088
12677TIP3    H159446   6.108   0.922  15.798 -0.4655 -0.2997  0.1226
12677TIP3    H259447   6.241   0.904  15.869 -0.5067 -0.4254  0.1689
12678TIP3   OH259448   4.702   6.715  11.819 -0.1676 -0.2284  0.1690
12678TIP3    H159449   4.747   6.702  11.902 -0.9445 -0.5943  0.5443
12678TIP3    H259450   4.763   6.682  11.753  0.7459  0.7254  0.5292
12679TIP3   OH259451   3.600   2.901  12.867  0.1241 -0.3580  1.0747
12679TIP3    H159452   3.594   2.873  12.959 -0.3888 -0.4745  1.0044
12679TIP3    H259453   3.511   2.928  12.844  0.1195 -0.9317  0.4147
12680TIP3   OH259454   2.483   0.961   3.530  0.1330 -0.2119 -0.2998
12680TIP3    H159455   2.535   1.040   3.542  1.8131 -1.4090  0.6188
12680TIP3    H259456   2.548   0.891   3.520 -1.2983 -1.6230  0.0196
12681TIP3   OH259457   3.224   3.434   3.264 -0.8117 -0.4577 -0.2124
12681TIP3    H159458   3.242   3.404   3.354 -1.7473 -2.1805 -0.5782
12681TIP3    H259459   3.152   3.496   3.274 -0.6966 -0.3980  0.2624
12682TIP3   OH259460   6.518   4.331  12.693  0.3491  0.0035 -0.0363
12682TIP3    H159461   6.539   4.265  12.627 -3.8358 -0.8871 -0.5578
12682TIP3    H259462   6.494   4.409  12.643  0.3783  0.3770  0.5254
12683TIP3   OH259463   3.472   5.754  13.216 -0.1419 -0.4199 -0.3656
12683TIP3    H159464   3.499   5.739  13.125 -1.1028  0.5756 -0.8253
12683TIP3    H259465   3.415   5.830  13.211 -0.1494 -0.3303  1.0935
12684TIP3   OH259466   3.200   3.668  15.322  0.1308  0.0778  0.3111
12684TIP3    H159467   3.149   3.672  15.241 -2.1635 -0.4025  1.6800
12684TIP3    H259468   3.288   3.646  15.293 -1.0480 -1.9959 -1.9305
12685TIP3   OH259469   3.451   1.201   0.119  0.0758  0.7774  0.0214
12685TIP3    H159470   3.525   1.225   0.175  0.7541  1.5610 -1.2031
12685TIP3    H259471   3.479   1.223   0.031 -1.0588 -0.3011 -0.6252
12686TIP3   OH259472   3.741   6.493  16.731 -0.1470  0.2992  0.1126
12686TIP3    H159473   3.719   6.554  16.802  0.3936  0.6295 -0.0060
12686TIP3    H259474   3.757   6.549  16.656 -1.8711 -0.1071 -0.5865
12687TIP3   OH259475   2.627   3.656  15.222  0.3375 -0.1642 -0.1281
12687TIP3    H159476   2.611   3.640  15.314 -0.0398 -2.2410 -0.5402
12687TIP3    H259477   2.718   3.628  15.208  0.0702 -0.8015 -0.5969
12688TIP3   OH259478   6.618   1.784   2.476  0.2256 -0.6824 -0.0080
12688TIP3    H159479   6.693   1.734   2.511 -0.8292 -1.3881  1.3096
12688TIP3    H259480   6.592   1.736   2.397 -1.1845 -2.6496  1.6051
12689TIP3   OH259481   1.938   0.416   4.303  0.0273  0.4260 -0.2066
12689TIP3    H159482   1.903   0.462   4.227 -0.5563  1.5148  0.7111
12689TIP3    H259483   1.919   0.473   4.377  1.5900 -0.1028  0.6272
12690TIP3   OH259484   2.400   5.046  11.217  0.1308  0.5904  0.0301
12690TIP3    H159485   2.463   5.082  11.155 -1.0437  1.3557 -0.7281
12690TIP3    H259486   2.396   5.110  11.288  0.7214  0.1979  0.4283
12691TIP3   OH259487   0.879   3.568  15.519  0.0914 -0.3727 -0.0757
12691TIP3    H159488   0.793   3.605  15.540  1.0587  1.3714  0.9165
12691TIP3    H259489   0.859   3.485  15.476 -2.1304  1.2612 -2.3317
12692TIP3   OH259490   4.253   4.142   4.640  0.1443 -0.1142 -0.5651
12692TIP3    H159491   4.228   4.051   4.618 -0.1446 -0.2075  0.1321
12692TIP3    H259492   4.289   4.177   4.558  0.6897 -1.0056 -0.7116
12693TIP3   OH259493   4.398   2.163   4.011 -0.1352  0.3698 -0.0960
12693TIP3    H159494   4.380   2.222   4.084  2.0659 -0.7879  1.4522
12693TIP3    H259495   4.433   2.084   4.052  1.9897  0.0170 -2.4442
12694TIP3   OH259496   5.218   6.092  12.210  0.1417 -0.2455 -0.1450
12694TIP3    H159497   5.198   6.089  12.116  1.1143  0.6451 -0.3951
12694TIP3    H259498   5.194   6.180  12.237 -1.7618 -1.0370  0.8481
12695TIP3   OH259499   0.025   4.958   6.764  0.1017 -0.4436  0.1849
12695TIP3    H159500   0.031   5.028   6.700 -0.3414  0.6418  1.3157
12695TIP3    H259501  -0.012   4.884   6.716  1.0156 -0.0585 -1.1240
12696TIP3   OH259502   4.268   4.392  13.637 -0.2070 -0.1622 -0.0313
12696TIP3    H159503   4.351   4.367  13.597  0.1000 -1.4103  1.3699
12696TIP3    H259504   4.279   4.485  13.660  0.4993 -0.1106 -0.5598
12697TIP3   OH259505   4.812   3.597   4.472  0.2450 -0.2670  0.0704
12697TIP3    H159506   4.725   3.560   4.484 -0.8744  2.0009 -0.7740
12697TIP3    H259507   4.835   3.633   4.557  0.0005 -0.1400  0.0832
12698TIP3   OH259508   5.317   6.441  15.099 -0.3755  0.0924  0.3871
12698TIP3    H159509   5.245   6.504  15.098  0.9315  1.6076 -0.2481
12698TIP3    H259510   5.362   6.455  15.016  1.3944  0.0437  1.3305
12699TIP3   OH259511   2.028   3.385   4.057  0.6146 -0.2548 -0.3407
12699TIP3    H159512   2.077   3.457   4.097 -0.9270  0.3412  0.5351
12699TIP3    H259513   1.972   3.352   4.127 -1.3390  0.0891 -1.6739
12700TIP3   OH259514   3.891   5.911  14.509 -0.0337 -0.3853 -0.3141
12700TIP3    H159515   3.968   5.938  14.558  1.0432 -3.2696 -0.3793
12700TIP3    H259516   3.878   5.819  14.531 -1.0662 -1.0531 -3.4066
12701TIP3   OH259517   5.096   1.436  12.196 -0.5186 -0.3136  0.3118
12701TIP3    H159518   5.039   1.398  12.129  0.0108  0.7803 -0.7770
12701TIP3    H259519   5.171   1.376  12.201 -0.1385  0.0749 -0.7121
12702TIP3   OH259520   1.496   0.425   1.354  0.0386  0.0126 -0.5131
12702TIP3    H159521   1.566   0.461   1.410  0.0239  0.0765 -0.5353
12702TIP3    H259522   1.524   0.336   1.335 -0.2940 -0.2416  0.1644
12703TIP3   OH259523   0.068   0.502   5.193  0.4404  0.0017 -0.5185
12703TIP3    H159524   0.118   0.433   5.237 -1.3431 -1.1766 -0.2503
12703TIP3    H259525   0.001   0.527   5.256 -0.0224  0.7343 -1.2841
12704TIP3   OH259526   4.604   4.999  12.769 -0.0806  0.8151 -0.6049
12704TIP3    H159527   4.553   5.052  12.708 -1.3397 -0.1689 -0.4370
12704TIP3    H259528   4.559   4.914  12.770  0.3776  0.5737  1.0862
12705TIP3   OH259529   5.681   5.504   4.442 -0.2030 -0.1570  0.3153
12705TIP3    H159530   5.690   5.420   4.486  2.9762 -1.5551 -2.8357
12705TIP3    H259531   5.630   5.485   4.363  1.9957  0.5132 -1.2833
12706TIP3   OH259532   1.047   5.074   2.517  0.6587 -0.3397  0.4458
12706TIP3    H159533   0.975   5.130   2.489  2.1904  1.0620 -0.8619
12706TIP3    H259534   1.037   4.994   2.466 -1.2668 -1.0781  1.9531
12707TIP3   OH259535   5.714   3.115   4.560 -0.1890  0.0058 -0.2463
12707TIP3    H159536   5.806   3.117   4.533 -0.1531 -1.6534 -0.2973
12707TIP3    H259537   5.673   3.184   4.509  0.7410 -0.2244 -1.3327
12708TIP3   OH259538   6.499   4.151  17.205 -0.0551 -0.1339 -0.1762
12708TIP3    H159539   6.441   4.226  17.224  0.3532 -0.2830  1.7940
12708TIP3    H259540   6.489   4.094  17.282  1.1493 -1.1449 -0.7688
12709TIP3   OH259541   1.963   5.749   6.407 -0.1466 -0.1899 -0.4994
12709TIP3    H159542   2.020   5.778   6.478  0.6531  1.1119 -1.6209
12709TIP3    H259543   1.887   5.710   6.450  1.4128 -1.5791  1.0227
12710TIP3   OH259544   0.903   4.542  15.682  0.0963 -0.6925  0.5772
12710TIP3    H159545   0.860   4.477  15.625 -1.8255  0.2717  0.8679
12710TIP3    H259546   0.854   4.538  15.764 -0.2575  1.3311  0.4924
12711TIP3   OH259547   0.023   1.818  11.474  0.2859  0.0807 -0.0598
12711TIP3    H159548  -0.027   1.761  11.416 -0.2021  0.6962 -0.2345
12711TIP3    H259549   0.086   1.758  11.516 -2.4729 -1.2713  2.3444
12712TIP3   OH259550   5.864   0.814  13.755 -0.3966 -0.5895  0.2295
12712TIP3    H159551   5.852   0.872  13.679  0.9844 -0.9327 -0.2714
12712TIP3    H259552   5.951   0.836  13.788  0.6061 -3.0807 -0.6082
12713TIP3   OH259553   0.386   2.133  13.682 -0.1967  0.4837  0.0494
12713TIP3    H159554   0.349   2.159  13.597  0.3358 -0.6803 -0.5365
12713TIP3    H259555   0.311   2.135  13.742 -0.9619 -0.5582 -0.8573
12714TIP3   OH259556   6.016   3.156  12.424  0.2307  0.4960 -0.3788
12714TIP3    H159557   5.955   3.131  12.494  1.2874  1.7085  1.0275
12714TIP3    H259558   5.993   3.100  12.351 -1.0897 -0.6376  0.8646
12715TIP3   OH259559   0.368   1.994   0.385 -0.1181 -1.1670  0.3551
12715TIP3    H159560   0.434   1.944   0.335  0.8653  1.2863 -0.8677
12715TIP3    H259561   0.288   1.941   0.378  0.2372 -1.3577 -3.0561
12716TIP3   OH259562   3.814   4.218  16.424 -0.4147 -0.2592 -0.9558
12716TIP3    H159563   3.836   4.131  16.457  0.8239  0.0778 -0.8440
12716TIP3    H259564   3.843   4.216  16.333  0.4132  0.3086 -0.7099
12717TIP3   OH259565   3.243   1.679   1.653 -0.6542 -0.0420  0.1142
12717TIP3    H159566   3.192   1.747   1.697  0.2438 -0.2331  1.4944
12717TIP3    H259567   3.246   1.706   1.562  2.2557  3.4681  1.1190
12718TIP3   OH259568   3.537   4.684  11.452 -0.3629  0.5990 -0.0719
12718TIP3    H159569   3.614   4.634  11.425 -1.1809 -1.1142  0.6738
12718TIP3    H259570   3.481   4.684  11.374 -1.3411 -1.6281  0.5890
12719TIP3   OH259571   0.196   0.969   1.932 -0.2502 -0.0963 -0.6834
12719TIP3    H159572   0.226   1.050   1.974 -0.6773  1.0771 -2.5393
12719TIP3    H259573   0.110   0.992   1.897 -1.0111 -1.8188  0.0428
12720TIP3   OH259574   1.178   5.175   4.397 -0.5158  0.0067  0.5025
12720TIP3    H159575   1.169   5.174   4.492 -1.8326 -1.4570  0.3798
12720TIP3    H259576   1.271   5.191   4.382 -0.3451  0.5357  2.0209
12721TIP3   OH259577   5.926   5.906   1.093 -0.1423  0.1685 -0.0990
12721TIP3    H159578   5.864   5.923   1.164 -1.3519  0.3780 -1.2042
12721TIP3    H259579   6.011   5.926   1.132 -0.8716  1.1938  1.0196
12722TIP3   OH259580   4.965   6.524   0.697  0.4002  1.0475 -0.0234
12722TIP3    H159581   4.970   6.455   0.630 -0.0898  1.6488 -0.6938
12722TIP3    H259582   4.879   6.512   0.737  1.3942 -0.4367  1.7580
12723TIP3   OH259583   3.097   1.591  15.297 -0.0476  0.4328 -0.0868
12723TIP3    H159584   3.076   1.606  15.205 -0.5204  0.1179 -0.0307
12723TIP3    H259585   3.105   1.496  15.305 -1.9920  0.3148  0.6286
12724TIP3   OH259586   3.709   2.458  13.469 -0.1144  0.5606  0.9042
12724TIP3    H159587   3.780   2.404  13.504  0.5944  1.5215  0.9515
12724TIP3    H259588   3.649   2.395  13.428  1.6828 -0.1129 -0.7699
12725TIP3   OH259589   3.425   2.914  11.846 -0.1176 -0.1093 -0.0077
12725TIP3    H159590   3.426   2.819  11.856  0.2864 -0.4420 -2.8337
12725TIP3    H259591   3.517   2.938  11.836 -0.3455  0.3442 -1.1129
12726TIP3   OH259592   4.933   6.559   2.904  0.0204  0.0461 -0.3936
12726TIP3    H159593   4.877   6.526   2.974 -0.6178 -0.2867 -1.0572
12726TIP3    H259594   4.873   6.599   2.841  0.4137 -1.1802 -1.5830
12727TIP3   OH259595   0.902   6.001   1.415  0.3705  0.5970 -0.1567
12727TIP3    H159596   0.876   6.016   1.324  2.1547 -0.5712 -0.9012
12727TIP3    H259597   0.926   6.088   1.449 -1.8253  1.2670 -0.2884
12728TIP3   OH259598   2.512   3.136   5.101  0.1605  0.1694 -0.4844
12728TIP3    H159599   2.574   3.065   5.081 -1.6141 -1.3183 -0.7909
12728TIP3    H259600   2.454   3.099   5.168 -1.2915  1.0296 -1.2494
12729TIP3   OH259601   0.193   0.173   3.675 -0.0755 -0.3428  0.0162
12729TIP3    H159602   0.178   0.085   3.709 -0.6473 -0.1533  0.2646
12729TIP3    H259603   0.268   0.205   3.724 -1.4562  0.2801  1.7981
12730TIP3   OH259604   1.246   1.627   2.421 -0.0731  0.4489 -0.3597
12730TIP3    H159605   1.220   1.559   2.483  2.2365 -1.2332 -1.1456
12730TIP3    H259606   1.180   1.625   2.352 -0.3132 -0.6599 -0.1015
12731TIP3   OH259607   4.354   2.691  15.433  0.0988 -0.3023 -0.2369
12731TIP3    H159608   4.276   2.666  15.383  1.0107 -1.0737 -1.3243
12731TIP3    H259609   4.331   2.774  15.474 -2.0158 -1.5160  1.1220
12732TIP3   OH259610   3.650   6.133   6.433  0.1552  0.3311  0.4013
12732TIP3    H159611   3.591   6.201   6.400  0.9085  1.1359  0.7058
12732TIP3    H259612   3.737   6.171   6.425  0.7925 -1.4208 -1.4645
12733TIP3   OH259613   3.659   5.051  11.694  0.3260 -0.7234 -0.6244
12733TIP3    H159614   3.647   5.069  11.787  1.2183  1.9307 -0.9596
12733TIP3    H259615   3.575   5.015  11.665 -0.2960 -0.6225  0.9911
12734TIP3   OH259616   0.094   0.087   3.215  0.8698  0.1148 -0.2319
12734TIP3    H159617   0.078   0.137   3.295  0.6217 -3.1579  1.8856
12734TIP3    H259618   0.057   0.140   3.145 -0.0004  2.5054  1.9650
12735TIP3   OH259619   2.029   4.229   3.244  0.2545  0.5331  0.7289
12735TIP3    H159620   1.983   4.299   3.198  0.7658 -0.0725 -0.7341
12735TIP3    H259621   2.044   4.264   3.332  0.5185  2.2680  0.0181
12736TIP3   OH259622   0.711   4.497  16.828 -0.0455  0.5285  0.0648
12736TIP3    H159623   0.773   4.524  16.896 -2.2653  2.1784  1.4760
12736TIP3    H259624   0.701   4.574  16.772 -1.5182  0.5956  0.3964
12737TIP3   OH259625   2.539   2.033   6.090 -0.1846 -1.1632 -0.0908
12737TIP3    H159626   2.629   2.061   6.073 -0.2003 -0.3923  1.0499
12737TIP3    H259627   2.523   2.058   6.181 -1.4968 -1.4412 -0.2396
12738TIP3   OH259628   5.919   5.024  14.575  0.1943 -0.0599  0.0756
12738TIP3    H159629   5.880   5.089  14.633 -0.1230  0.4094 -0.6559
12738TIP3    H259630   5.974   4.970  14.633 -0.1612  0.3593  0.8143
12739TIP3   OH259631   3.915   4.927   5.643 -0.4115  0.4816  0.3883
12739TIP3    H159632   3.924   4.917   5.549  1.3818 -1.8786  0.7634
12739TIP3    H259633   3.964   5.006   5.664  0.3876  0.2270 -0.5003
12740TIP3   OH259634   2.815   5.403   6.192  0.7028 -0.3774  0.1609
12740TIP3    H159635   2.882   5.420   6.258 -0.9314  0.7385  1.5884
12740TIP3    H259636   2.764   5.484   6.189 -1.8855 -1.9422  0.6731
12741TIP3   OH259637   4.869   6.306  11.628 -0.3694 -0.3265 -0.5944
12741TIP3    H159638   4.789   6.353  11.604 -1.1222 -1.0529  0.3923
12741TIP3    H259639   4.886   6.248  11.554 -0.9692 -0.4169 -0.6687
12742TIP3   OH259640   3.408   4.928   3.137  0.4397 -0.0429 -0.1166
12742TIP3    H159641   3.390   4.853   3.195  4.0526 -2.0206 -1.4051
12742TIP3    H259642   3.375   4.900   3.052 -0.2959  0.7977 -0.1071
12743TIP3   OH259643   4.749   0.029   4.249 -0.4869  0.6108  1.3582
12743TIP3    H159644   4.703  -0.040   4.200 -0.6768  1.1634  0.7481
12743TIP3    H259645   4.785  -0.016   4.326  0.4722 -0.4304  0.3245
12744TIP3   OH259646   6.776   6.545   0.529 -0.0175  0.1627  0.1856
12744TIP3    H159647   6.699   6.602   0.534 -0.7043 -0.8394  1.3442
12744TIP3    H259648   6.815   6.551   0.616  0.5022 -0.3242 -0.0141
12745TIP3   OH259649   0.435   6.138  15.081  0.0788 -0.2642  0.1228
12745TIP3    H159650   0.339   6.135  15.073  0.2654  1.0092 -3.3738
12745TIP3    H259651   0.459   6.226  15.053  2.3918 -1.0658 -0.5469
12746TIP3   OH259652   0.944   1.470  13.649  0.4224 -0.5599 -0.3384
12746TIP3    H159653   0.883   1.536  13.681 -0.1762 -0.9205 -0.7181
12746TIP3    H259654   1.025   1.518  13.631 -0.0964  0.1268 -0.8981
12747TIP3   OH259655   2.038   3.681   0.809  0.1121 -0.0120  0.5415
12747TIP3    H159656   2.061   3.744   0.741 -2.1836 -0.2689 -0.5260
12747TIP3    H259657   2.106   3.613   0.802 -0.2133 -0.1648 -1.6933
12748TIP3   OH259658   3.350   3.624  17.237  0.6039 -0.1565  0.0729
12748TIP3    H159659   3.280   3.574  17.278  0.6591 -0.2635  0.0357
12748TIP3    H259660   3.389   3.564  17.174  1.2896 -0.3741  0.7078
12749TIP3   OH259661   4.032   5.092   3.772 -0.0612  0.9135 -0.4223
12749TIP3    H159662   4.029   5.108   3.866  2.2969 -0.8887  0.0181
12749TIP3    H259663   3.962   5.030   3.756  0.2855  0.3077  0.3700
12750TIP3   OH259664   3.337   4.408   4.280 -0.5126  0.0559  0.1336
12750TIP3    H159665   3.262   4.348   4.279  0.0610 -0.6923  0.9762
12750TIP3    H259666   3.414   4.351   4.273 -0.0484  0.9265 -2.6221
12751TIP3   OH259667   0.032   5.825   2.059  0.1765 -0.1080  0.5222
12751TIP3    H159668   0.071   5.771   1.990 -0.7839 -0.0313 -0.0970
12751TIP3    H259669   0.062   5.785   2.141  0.7230 -0.6542  0.0588
12752TIP3   OH259670   4.433   6.122   0.540 -0.5602 -0.4072 -0.1541
12752TIP3    H159671   4.352   6.083   0.574 -0.9476 -1.2052 -1.8915
12752TIP3    H259672   4.458   6.064   0.468  0.6188  0.7933 -0.7188
12753TIP3   OH259673   1.487   1.285   1.662  0.0882 -0.3175 -0.2827
12753TIP3    H159674   1.404   1.294   1.708 -0.1631 -1.4488 -0.4907
12753TIP3    H259675   1.541   1.233   1.721  0.4637 -0.0457 -0.3850
12754TIP3   OH259676   1.967   4.591   1.283 -0.7900 -0.0870  0.1329
12754TIP3    H159677   1.989   4.596   1.376 -0.1812 -2.5382  0.1712
12754TIP3    H259678   2.024   4.521   1.249 -0.5014  1.2411 -2.2264
12755TIP3   OH259679   3.009   0.001   0.814  0.0746  0.0066  0.2077
12755TIP3    H159680   3.003   0.012   0.719  0.5223  0.3159  0.2168
12755TIP3    H259681   3.070  -0.071   0.827 -1.5509 -1.4219  0.2044
12756TIP3   OH259682   0.104   3.292   1.086 -0.3375 -0.0865  0.2165
12756TIP3    H159683   0.199   3.295   1.097 -0.0521 -0.0989 -2.0105
12756TIP3    H259684   0.091   3.248   1.002 -2.3129  0.1275  0.3892
12757TIP3   OH259685   6.635   2.752  16.142  0.1511  0.4228  0.5738
12757TIP3    H159686   6.685   2.741  16.061  0.2292  4.1215  0.0373
12757TIP3    H259687   6.557   2.698  16.129  0.1952  0.8775 -1.9481
12758TIP3   OH259688   4.810   2.754   0.076 -0.2197  0.2819 -0.3552
12758TIP3    H159689   4.896   2.719   0.051 -0.7492 -1.4240  0.1739
12758TIP3    H259690   4.765   2.681   0.117 -0.5274  2.2096  2.8796
12759TIP3   OH259691   5.242   2.743  10.925 -0.1902  0.7369 -0.5403
12759TIP3    H159692   5.268   2.832  10.902 -2.1357  1.4645 -0.0762
12759TIP3    H259693   5.153   2.735  10.891 -0.2224 -0.8618 -0.1253
12760TIP3   OH259694   3.413   2.900  13.981  0.5885 -0.8760 -0.4716
12760TIP3    H159695   3.327   2.866  14.007  0.5691 -1.4860 -1.2897
12760TIP3    H259696   3.460   2.823  13.949  1.7725 -0.7039  0.8247
12761TIP3   OH259697   3.935   4.046   6.686  0.1336  0.1641 -0.2013
12761TIP3    H159698   3.924   3.965   6.636 -0.8553  0.2146 -0.0846
12761TIP3    H259699   3.964   4.110   6.621  0.1357 -0.0894 -0.4566
12762TIP3   OH259700   2.891   0.471   3.658 -0.3931  0.3650 -0.4230
12762TIP3    H159701   2.926   0.382   3.660 -0.6741  0.2639  2.3844
12762TIP3    H259702   2.816   0.466   3.599 -0.1653 -1.1738 -0.6015
12763TIP3   OH259703   0.295   0.480   3.299  0.2981  0.0155 -0.5227
12763TIP3    H159704   0.245   0.442   3.372  1.2929  0.5352  0.4441
12763TIP3    H259705   0.317   0.568   3.329 -0.4990  0.7526 -2.0401
12764TIP3   OH259706   5.835   6.209   2.160 -0.0484  0.4104  0.4098
12764TIP3    H159707   5.804   6.134   2.211 -0.6426  2.4622  3.2081
12764TIP3    H259708   5.929   6.196   2.152 -0.1511 -0.6542  0.8479
12765TIP3   OH259709   6.107   2.015  13.540  0.1328  0.4828  0.0050
12765TIP3    H159710   6.111   1.982  13.450  1.0334  1.2852 -0.2549
12765TIP3    H259711   6.071   2.103  13.532  1.3765  1.0204  0.3060
12766TIP3   OH259712   0.957   0.809  13.270  0.3510 -0.1131 -1.0094
12766TIP3    H159713   1.046   0.791  13.240  0.2342  0.6319 -1.8091
12766TIP3    H259714   0.955   0.904  13.281  0.4255 -0.3644  1.4489
12767TIP3   OH259715   4.671   4.645  12.430  0.2854 -0.4660  0.5596
12767TIP3    H159716   4.748   4.692  12.461  0.2066 -0.8364  1.3314
12767TIP3    H259717   4.614   4.712  12.393  1.0975 -0.2244 -0.2718
12768TIP3   OH259718   3.513   4.685   1.576 -0.1215  0.1499  0.0679
12768TIP3    H159719   3.467   4.619   1.628 -1.7381  0.3149 -1.0911
12768TIP3    H259720   3.590   4.640   1.542 -0.2923 -0.6269  0.6980
12769TIP3   OH259721   5.301   2.364  12.015  0.2792 -0.1719 -0.2201
12769TIP3    H159722   5.374   2.378  11.955  0.3385 -0.5030 -0.2263
12769TIP3    H259723   5.228   2.339  11.959  0.1095  0.3559 -0.2318
12770TIP3   OH259724   3.408   5.456  13.581  0.1029 -0.0383  0.2810
12770TIP3    H159725   3.419   5.472  13.675  0.2689  1.2763  0.0425
12770TIP3    H259726   3.395   5.543  13.543  0.4173 -0.5257 -0.9679
12771TIP3   OH259727   5.436   3.360  12.165  0.2460  0.1651 -0.3857
12771TIP3    H159728   5.529   3.356  12.146  0.5714  0.6573  1.0312
12771TIP3    H259729   5.431   3.401  12.252 -1.2277 -0.9154  0.0564
12772TIP3   OH259730   3.429   0.567  16.993  0.0344 -0.0137  0.3619
12772TIP3    H159731   3.406   0.657  17.017  0.7739  0.1241  0.5575
12772TIP3    H259732   3.523   0.569  16.978  0.3116 -1.0764  1.7953
12773TIP3   OH259733   2.064   6.094  16.025 -0.0548 -0.0544  0.2028
12773TIP3    H159734   2.066   6.144  15.943 -1.7797 -0.2783  0.0012
12773TIP3    H259735   2.145   6.118  16.069  0.7170  0.3649 -1.3931
12774TIP3   OH259736   5.935   4.560   0.114  0.2364 -0.4251 -0.7218
12774TIP3    H159737   5.966   4.576   0.025  0.8770  2.1115 -0.0559
12774TIP3    H259738   6.013   4.538   0.164  0.1195 -0.0304 -0.3664
12775TIP3   OH259739   5.176   3.439  11.812  0.2287 -0.6765  0.3710
12775TIP3    H159740   5.211   3.352  11.830  1.5784 -0.4998 -1.2297
12775TIP3    H259741   5.238   3.499  11.854 -0.1430 -0.4626  0.6150
12776TIP3   OH259742   3.711   2.151   3.894 -0.1212 -0.2440 -0.0952
12776TIP3    H159743   3.797   2.117   3.918 -0.0815 -0.0357  0.0699
12776TIP3    H259744   3.679   2.092   3.826 -1.2075 -2.2156  2.0522
12777TIP3   OH259745   2.993   6.594   0.542  0.2811  0.2324 -0.4892
12777TIP3    H159746   3.064   6.657   0.552 -0.5775  1.1001  0.0849
12777TIP3    H259747   2.969   6.601   0.449  0.3379  0.5802 -0.4791
12778TIP3   OH259748   0.257   5.762   5.673  0.4610 -0.0472  0.7682
12778TIP3    H159749   0.240   5.669   5.690 -1.8454  0.3932  0.9509
12778TIP3    H259750   0.340   5.762   5.625  1.7017 -2.0399  2.7831
12779TIP3   OH259751   6.317   0.808   6.012  0.0841 -0.1564  0.0938
12779TIP3    H159752   6.238   0.833   5.963  0.6201 -0.7907 -1.1214
12779TIP3    H259753   6.308   0.852   6.096 -1.7444 -0.5034  0.0944
12780TIP3   OH259754   3.151   1.445   4.854 -0.0611  0.2644  0.1836
12780TIP3    H159755   3.143   1.537   4.830 -2.1827  0.5230  1.7244
12780TIP3    H259756   3.184   1.446   4.944  1.6077 -0.5305 -0.4077
12781TIP3   OH259757   0.200   5.867  11.993 -0.0853 -0.3664  0.8803
12781TIP3    H159758   0.120   5.870  12.045 -1.1609 -0.0770 -0.7429
12781TIP3    H259759   0.191   5.787  11.941 -1.1597  1.6249 -2.1079
12782TIP3   OH259760   5.506   0.889   5.196 -0.2444 -0.4288  0.7832
12782TIP3    H159761   5.523   0.983   5.189 -2.5260 -0.0196  0.5093
12782TIP3    H259762   5.593   0.851   5.213  1.0916  1.4613 -1.3960
12783TIP3   OH259763   5.162   0.822   4.874 -0.0671 -0.6052  0.5376
12783TIP3    H159764   5.231   0.757   4.884 -0.7438 -1.5819 -0.8829
12783TIP3    H259765   5.121   0.828   4.960  0.1058 -1.9437  0.7227
12784TIP3   OH259766   2.389   3.860  13.892  0.1656  0.1679  0.4616
12784TIP3    H159767   2.343   3.856  13.976 -0.3436  1.1178  0.2292
12784TIP3    H259768   2.327   3.901  13.832  1.5397  2.1119  0.3137
12785TIP3   OH259769   6.378   5.174  16.746 -0.5110  0.5282 -0.6739
12785TIP3    H159770   6.390   5.265  16.722  0.8532  0.4471 -0.3001
12785TIP3    H259771   6.465   5.143  16.770 -1.0570 -0.7137 -0.2437
12786TIP3   OH259772   0.491   4.196  12.857  0.9611 -0.5157  0.6980
12786TIP3    H159773   0.451   4.137  12.921 -0.1247 -0.7540 -0.1724
12786TIP3    H259774   0.417   4.246  12.822  1.7983  0.9339  0.9971
12787TIP3   OH259775   4.163   0.020   2.679 -0.2884  0.1558  0.3488
12787TIP3    H159776   4.075   0.007   2.715  0.5181  1.6787  3.0298
12787TIP3    H259777   4.208   0.073   2.745  2.3067  0.3291 -1.4937
12788TIP3   OH259778   0.012   3.102   4.887 -0.4129 -0.1716 -0.0978
12788TIP3    H159779   0.062   3.180   4.865  0.2634 -0.8234 -0.9002
12788TIP3    H259780  -0.076   3.120   4.855 -0.6560  0.8890  1.1267
12789TIP3   OH259781   4.600   5.391  14.186  0.7921  0.4297 -0.2265
12789TIP3    H159782   4.638   5.332  14.251  2.0151  1.7114  0.2277
12789TIP3    H259783   4.517   5.349  14.162  0.3763 -0.1150  2.0552
12790TIP3   OH259784   0.851   5.448  16.506 -0.1044 -0.4734  0.2426
12790TIP3    H159785   0.915   5.383  16.536  0.4586  1.0155  2.3969
12790TIP3    H259786   0.891   5.532  16.529 -1.1817  0.6256 -1.7830
12791TIP3   OH259787   5.383   3.651  11.914 -0.2593  0.4492  0.2802
12791TIP3    H159788   5.464   3.603  11.931 -1.2548 -0.5817  2.2846
12791TIP3    H259789   5.360   3.690  11.998 -1.6077  1.1060 -0.3740
12792TIP3   OH259790   1.469   0.010  17.170  0.5698  0.5626 -0.3447
12792TIP3    H159791   1.525   0.029  17.245 -0.2933 -1.4564  0.8717
12792TIP3    H259792   1.434   0.095  17.143  0.1441  1.2208  2.1486
12793TIP3   OH259793   1.932   4.578  12.598 -0.3679  0.2042 -0.7184
12793TIP3    H159794   1.877   4.503  12.620  2.0436 -1.4324 -0.0730
12793TIP3    H259795   1.969   4.556  12.512  1.5953 -0.1223  0.1822
12794TIP3   OH259796   5.834   3.809   3.512  0.0124  0.3007  0.8231
12794TIP3    H159797   5.839   3.775   3.601  1.5504 -2.1566 -0.1284
12794TIP3    H259798   5.923   3.802   3.478 -0.0698  3.3606 -0.1944
12795TIP3   OH259799   3.932   6.194  12.534 -0.3602 -0.3630 -0.2423
12795TIP3    H159800   3.899   6.155  12.453 -0.2884  0.6597 -0.7664
12795TIP3    H259801   3.853   6.213  12.585 -0.3615 -1.9872  0.4004
12796TIP3   OH259802   5.444   0.332  12.179 -0.3619  0.0067  0.1773
12796TIP3    H159803   5.521   0.339  12.123  0.8711  0.1138  1.8559
12796TIP3    H259804   5.415   0.241  12.169 -0.6754  0.2659 -1.2958
12797TIP3   OH259805   4.786   1.598   2.357 -0.1000  0.1218 -0.3789
12797TIP3    H159806   4.878   1.578   2.340  0.6821  0.8137  2.8223
12797TIP3    H259807   4.771   1.573   2.448 -2.7761  1.1068 -0.4722
12798TIP3   OH259808   4.962   2.045   3.331 -0.6120  0.0351 -0.3321
12798TIP3    H159809   4.925   2.103   3.397  0.1545 -0.7149  0.7824
12798TIP3    H259810   5.051   2.077   3.318 -0.5614 -0.1952 -0.5516
12799TIP3   OH259811   2.377   1.684   3.882  0.1355 -0.2671 -0.2696
12799TIP3    H159812   2.419   1.714   3.962 -1.9266 -1.1582  1.1867
12799TIP3    H259813   2.416   1.599   3.864 -1.7038 -1.5811  1.6680
12800TIP3   OH259814   1.688   2.355  16.963  0.5703 -0.2685 -0.5627
12800TIP3    H159815   1.631   2.354  17.040  0.1140  0.7850 -0.8697
12800TIP3    H259816   1.774   2.381  16.997  0.3599  0.2365 -0.4182
12801TIP3   OH259817   4.537   0.132  13.925  0.2310  0.0967 -0.6247
12801TIP3    H159818   4.608   0.153  13.864  0.1873  2.9362  0.2422
12801TIP3    H259819   4.509   0.216  13.960  0.4157 -1.4119  3.5017
12802TIP3   OH259820   1.183   2.067  13.283 -0.8037 -0.0927 -0.0143
12802TIP3    H159821   1.093   2.057  13.250 -1.0506 -1.8254  1.0999
12802TIP3    H259822   1.176   2.135  13.351 -1.0359  0.6446 -0.7701
12803TIP3   OH259823   6.134   5.697   5.757  0.2800 -0.0617 -0.0865
12803TIP3    H159824   6.121   5.736   5.671 -1.4195  0.5628  0.4350
12803TIP3    H259825   6.088   5.614   5.752 -0.3105  0.2381  0.4113
12804TIP3   OH259826   0.029   2.999  10.567 -0.7127  0.1504  0.0319
12804TIP3    H159827   0.085   2.925  10.589 -0.5152  0.6659  1.2996
12804TIP3    H259828  -0.047   2.990  10.625 -1.7584 -0.2966 -1.3625
12805TIP3   OH259829   3.677   4.318   0.722 -0.2174 -0.2436 -0.0547
12805TIP3    H159830   3.701   4.259   0.794 -1.5959 -0.1951  0.4592
12805TIP3    H259831   3.729   4.287   0.648  1.0373 -0.4539  0.8846
12806TIP3   OH259832   5.804   1.685   5.394 -0.1193 -0.6268 -0.7191
12806TIP3    H159833   5.840   1.754   5.338 -0.3799 -0.3673 -0.5710
12806TIP3    H259834   5.870   1.672   5.462 -0.1239 -0.4423 -0.6799
12807TIP3   OH259835   6.395   2.271  11.395 -0.3705 -0.0239 -0.1136
12807TIP3    H159836   6.437   2.256  11.480 -1.3791 -0.8237  0.2552
12807TIP3    H259837   6.461   2.244  11.331 -0.9537 -2.9810  0.4861
12808TIP3   OH259838   2.797   0.321  16.720 -0.1014 -0.2361 -0.5068
12808TIP3    H159839   2.841   0.256  16.664  1.5568  0.9955 -0.6861
12808TIP3    H259840   2.772   0.391  16.660 -0.6575 -0.0841 -0.1024
12809TIP3   OH259841   3.446   6.269  14.725  0.1823  0.2426 -0.2082
12809TIP3    H159842   3.403   6.349  14.693 -0.4210 -0.0065 -0.0142
12809TIP3    H259843   3.458   6.216  14.646  0.4295  0.4557 -0.3120
12810TIP3   OH259844   3.435   3.520  15.205 -0.5981 -0.3800 -0.1452
12810TIP3    H159845   3.391   3.501  15.123 -0.4539  1.0134 -0.5596
12810TIP3    H259846   3.430   3.438  15.255 -1.0784 -1.0926 -1.3510
12811TIP3   OH259847   5.102   6.309  13.531  0.4053  0.0785  0.4795
12811TIP3    H159848   5.174   6.366  13.555  0.9532 -0.0486 -0.8111
12811TIP3    H259849   5.134   6.261  13.454 -0.7908 -0.4794  0.3151
12812TIP3   OH259850   3.687   4.760  16.316 -0.6424 -0.1935 -0.0595
12812TIP3    H159851   3.720   4.789  16.231  4.0305 -2.0136  0.9230
12812TIP3    H259852   3.707   4.666  16.318 -3.0543 -0.7159  2.0572
12813TIP3   OH259853   4.337   5.489   4.882 -0.1174 -0.4327  0.0782
12813TIP3    H159854   4.268   5.426   4.861 -1.6964  1.0253  0.8624
12813TIP3    H259855   4.326   5.559   4.818  0.7899 -0.2971  0.0621
12814TIP3   OH259856   2.745   1.074  14.929 -0.0598  0.9936  0.4467
12814TIP3    H159857   2.754   1.092  14.836  1.4760  4.6203  1.2391
12814TIP3    H259858   2.835   1.057  14.959 -0.6097 -0.7973  1.1982
12815TIP3   OH259859   5.368   3.515  14.343 -0.5933  0.7041  0.0792
12815TIP3    H159860   5.398   3.588  14.289  0.9961  0.0515  0.0580
12815TIP3    H259861   5.274   3.528  14.351 -0.0398  4.0114  1.9396
12816TIP3   OH259862   1.596   4.653   5.062 -0.3682 -0.0593  0.2453
12816TIP3    H159863   1.630   4.570   5.095 -1.5290  0.8157  3.9422
12816TIP3    H259864   1.673   4.706   5.045  0.3246 -0.0679  3.0930
12817TIP3   OH259865   4.253   1.167   5.436 -0.5649 -0.7078  0.3532
12817TIP3    H159866   4.215   1.130   5.516 -0.8582 -0.2547  0.4240
12817TIP3    H259867   4.315   1.100   5.406 -1.7720 -1.6800 -0.0286
12818TIP3   OH259868   5.654   3.930  14.079  0.0966  0.1342 -0.5687
12818TIP3    H159869   5.587   3.947  14.145 -1.3483  0.2636 -2.0398
12818TIP3    H259870   5.612   3.871  14.017  1.7453 -0.7303 -0.9008
12819TIP3   OH259871   5.167   2.459  10.933  0.3918  0.1797 -0.2792
12819TIP3    H159872   5.191   2.548  10.909  0.8557  0.2778  0.5021
12819TIP3    H259873   5.103   2.432  10.868 -1.7658  2.0462  1.0373
12820TIP3   OH259874   6.017   2.911   6.984 -0.2756 -0.0427 -0.0945
12820TIP3    H159875   6.052   2.852   7.051 -1.3594 -0.1492  0.3829
12820TIP3    H259876   6.078   2.902   6.911  0.0785 -1.0724  0.3094
12821TIP3   OH259877   0.541   4.410   6.396  0.0281 -0.1943  0.0463
12821TIP3    H159878   0.604   4.339   6.413  1.5408  1.2399  0.5842
12821TIP3    H259879   0.529   4.409   6.301 -1.4914 -2.4092  0.2095
12822TIP3   OH259880   1.091   6.006  11.715 -0.3195  0.3507 -0.1042
12822TIP3    H159881   1.172   6.051  11.737 -0.8375  0.4171  1.7341
12822TIP3    H259882   1.053   6.058  11.645 -0.4194  2.2358  1.3271
12823TIP3   OH259883   5.330   5.588   3.548  0.5473  0.3681 -0.8423
12823TIP3    H159884   5.264   5.652   3.575  1.2274  1.2308 -1.2209
12823TIP3    H259885   5.412   5.636   3.548  0.8950 -0.1984 -2.3071
12824TIP3   OH259886   1.239   0.152   2.489  0.0364  1.0005  0.4847
12824TIP3    H159887   1.203   0.230   2.447  0.1790  1.0334  0.4260
12824TIP3    H259888   1.265   0.182   2.577  1.1108  1.2760  0.0801
12825TIP3   OH259889   1.778   5.775  16.381 -0.1046  0.4012 -0.3311
12825TIP3    H159890   1.740   5.855  16.416  0.8313  0.9633 -0.5844
12825TIP3    H259891   1.734   5.762  16.297 -1.6304 -0.4018  0.5713
12826TIP3   OH259892   4.992   6.303  15.219  0.5507 -0.2625 -0.5799
12826TIP3    H159893   4.952   6.221  15.248 -1.5605  0.9722  0.1114
12826TIP3    H259894   5.056   6.325  15.287 -0.4802 -0.1956  0.3843
12827TIP3   OH259895   2.276   0.099   2.440 -0.3599  0.1731  0.4192
12827TIP3    H159896   2.349   0.045   2.411  0.4616  0.7706  1.3236
12827TIP3    H259897   2.199   0.043   2.432  0.1642 -0.3880 -0.7571
12828TIP3   OH259898   0.663   1.558   1.358 -0.2415  0.3933  0.2765
12828TIP3    H159899   0.752   1.588   1.341  0.7472 -1.9952  1.0406
12828TIP3    H259900   0.623   1.552   1.271  0.8077  0.0636 -0.1946
12829TIP3   OH259901   5.808   3.523   0.989  0.2344  0.5590 -0.6780
12829TIP3    H159902   5.762   3.476   0.920  1.3631 -2.2512  0.4254
12829TIP3    H259903   5.760   3.502   1.069  2.1159 -0.6253  0.1612
12830TIP3   OH259904   5.619   6.385  15.456 -0.4814  0.3369  0.6893
12830TIP3    H159905   5.553   6.356  15.393  1.2245 -0.9773 -0.5343
12830TIP3    H259906   5.632   6.478  15.436  1.0804 -0.3893 -1.9186
12831TIP3   OH259907   4.680   6.739  14.321 -0.2092  0.2468  0.8558
12831TIP3    H159908   4.618   6.798  14.277 -0.0177  0.7421  1.2527
12831TIP3    H259909   4.729   6.699  14.249  1.2927  2.3517  0.6534
12832TIP3   OH259910   0.833   1.425  11.116 -0.2322  0.2815  0.1878
12832TIP3    H159911   0.767   1.363  11.085  0.4277 -1.2307  1.6815
12832TIP3    H259912   0.850   1.398  11.206  1.0099  1.8652  0.4544
12833TIP3   OH259913   4.673   5.525   4.117  0.2022 -0.0887  0.7274
12833TIP3    H159914   4.692   5.435   4.143  1.4340 -0.0613 -0.0507
12833TIP3    H259915   4.578   5.529   4.112  0.2010 -1.8485 -0.9838
12834TIP3   OH259916   4.288   1.018  13.351 -0.1324 -0.1335 -0.1413
12834TIP3    H159917   4.208   1.070  13.344 -0.5435 -0.3956  2.0426
12834TIP3    H259918   4.283   0.979  13.438  2.5556  0.1740  0.2086
12835TIP3   OH259919   0.464   5.172   5.988 -0.7060  0.2511  0.1902
12835TIP3    H159920   0.456   5.079   6.009 -1.6993  0.0138 -1.1399
12835TIP3    H259921   0.373   5.202   5.979 -0.4470  1.7398  2.2471
12836TIP3   OH259922   0.624   1.273  12.817  0.2712 -0.0978  0.7406
12836TIP3    H159923   0.560   1.333  12.856  2.2834  0.9783  2.5257
12836TIP3    H259924   0.629   1.199  12.878 -1.0010 -1.3240 -0.6174
12837TIP3   OH259925   2.765   6.377  11.180  0.1840  0.3924 -0.4441
12837TIP3    H159926   2.794   6.287  11.162 -1.5471  0.0405 -1.5436
12837TIP3    H259927   2.725   6.373  11.267 -1.1584 -0.2165 -1.0786
12838TIP3   OH259928   0.947   3.101  14.829  0.6273  0.0919  0.0073
12838TIP3    H159929   1.038   3.078  14.850  0.5671  0.0550  0.2268
12838TIP3    H259930   0.922   3.038  14.761  1.0481  0.6536 -0.6857
12839TIP3   OH259931   3.364   2.021   4.106  0.1344  0.3330 -0.3533
12839TIP3    H159932   3.390   1.953   4.045 -1.2146 -0.3578 -0.1862
12839TIP3    H259933   3.437   2.027   4.168  0.1954 -1.1169 -0.2516
12840TIP3   OH259934   4.583   5.204   0.925 -0.5698 -0.1327 -0.3241
12840TIP3    H159935   4.514   5.235   0.984  0.2480  1.2182 -0.0720
12840TIP3    H259936   4.620   5.128   0.970 -1.2646 -0.2996 -0.0220
12841TIP3   OH259937   5.243   5.177   2.085  0.2528  0.2600 -0.1516
12841TIP3    H159938   5.192   5.157   2.006  0.9379  1.4697 -0.9305
12841TIP3    H259939   5.180   5.213   2.147 -0.7166 -2.8020  0.7225
12842TIP3   OH259940   4.321   2.522  16.896  0.0719 -0.0114  0.0810
12842TIP3    H159941   4.249   2.556  16.843 -0.7400 -0.6672  0.7536
12842TIP3    H259942   4.278   2.478  16.969  1.0961 -2.0395 -0.4982
12843TIP3   OH259943   6.662   5.094  16.746  0.0865  0.5033  0.0725
12843TIP3    H159944   6.757   5.080  16.735  0.2129  0.0806  1.5350
12843TIP3    H259945   6.630   5.110  16.658  1.4098 -0.1094 -0.5389
12844TIP3   OH259946   4.732   0.131  13.734 -0.2099  0.1207  0.2497
12844TIP3    H159947   4.821   0.096  13.731 -0.4773 -0.5971  0.6846
12844TIP3    H259948   4.731   0.198  13.666 -0.0120 -1.4539 -1.3488
12845TIP3   OH259949   1.195   3.024  14.911  0.3714 -0.2719 -0.4925
12845TIP3    H159950   1.189   3.051  15.003 -0.8141 -2.1791  0.0073
12845TIP3    H259951   1.287   3.004  14.898  0.8965  1.8786 -0.2729
12846TIP3   OH259952   0.355   0.695  16.864 -0.4158  0.7690 -0.1983
12846TIP3    H159953   0.370   0.606  16.895 -1.5325 -0.2215 -2.3937
12846TIP3    H259954   0.367   0.750  16.942  0.9537 -1.2098  1.0329
12847TIP3   OH259955   0.596   3.102  13.947  0.3136  0.0841  0.3519
12847TIP3    H159956   0.526   3.046  13.980 -0.6666  0.8380 -0.4164
12847TIP3    H259957   0.651   3.044  13.895 -1.0611 -0.0431 -0.9944
12848TIP3   OH259958   2.613   2.098   4.008  0.2357 -0.4895 -0.0356
12848TIP3    H159959   2.606   2.138   3.921 -0.0393 -0.1324  0.1508
12848TIP3    H259960   2.618   2.172   4.068  0.5993 -0.7387  0.2383
12849TIP3   OH259961   2.720   0.497  13.948 -0.7002 -0.0627 -0.6426
12849TIP3    H159962   2.764   0.417  13.977  1.1938  0.3446 -2.3083
12849TIP3    H259963   2.636   0.466  13.913  0.2284 -1.3907 -1.7441
12850TIP3   OH259964   2.472   0.562   6.088 -0.3133 -0.3663  0.6982
12850TIP3    H159965   2.521   0.636   6.123 -1.7100  0.8216  0.1722
12850TIP3    H259966   2.486   0.567   5.993 -0.3369 -0.8349  0.6676
12851TIP3   OH259967   2.368   0.961  11.861  0.4618 -0.4523 -0.2731
12851TIP3    H159968   2.372   0.903  11.785  0.1909 -0.1590 -0.5111
12851TIP3    H259969   2.344   0.904  11.934  0.5844 -0.7085 -0.4331
12852TIP3   OH259970   6.759   1.546  12.204 -0.4599 -0.1302  0.1539
12852TIP3    H159971   6.786   1.459  12.236  1.2788  1.1154  2.2035
12852TIP3    H259972   6.812   1.560  12.125 -1.2779 -1.2128 -0.6069
12853TIP3   OH259973   3.753   2.594   5.778 -0.0044 -0.2456  0.4927
12853TIP3    H159974   3.820   2.629   5.837  0.1311 -0.5116  0.4963
12853TIP3    H259975   3.757   2.500   5.791  0.5073 -0.3584 -0.4481
12854TIP3   OH259976   6.331   0.418   4.501 -0.5524  0.2888 -0.4222
12854TIP3    H159977   6.296   0.465   4.577 -0.3444  1.0427 -0.7909
12854TIP3    H259978   6.419   0.453   4.490  0.6791 -2.2393  1.0533
12855TIP3   OH259979   0.092   1.769   3.802 -0.0113 -0.6673  0.0106
12855TIP3    H159980   0.048   1.847   3.835  0.3648 -0.9934  1.3214
12855TIP3    H259981   0.177   1.801   3.771  0.4928 -0.6691  1.3429
12856TIP3   OH259982   4.873   6.089  11.794  0.3979  0.2378 -0.4917
12856TIP3    H159983   4.822   6.130  11.863 -0.9154 -0.8297 -0.8026
12856TIP3    H259984   4.883   6.156  11.727  0.3870  0.8067  0.0775
12857TIP3   OH259985   2.319   2.832   0.309  0.7692  0.2256  0.4245
12857TIP3    H159986   2.250   2.899   0.304 -0.3335 -1.0143 -1.5363
12857TIP3    H259987   2.281   2.762   0.363  0.4254 -0.5326 -0.7970
12858TIP3   OH259988   3.420   1.832   5.453  0.5532 -0.3184 -0.5013
12858TIP3    H159989   3.334   1.852   5.417  0.4725 -0.1888 -0.2412
12858TIP3    H259990   3.424   1.884   5.534  0.2610 -1.5128  0.2924
12859TIP3   OH259991   3.454   3.713   0.537  0.5357  0.2137  0.1371
12859TIP3    H159992   3.473   3.679   0.624 -0.3537 -1.2150 -0.2087
12859TIP3    H259993   3.537   3.707   0.490  0.6954 -0.2758  0.4784
12860TIP3   OH259994   5.844   4.012   2.080 -0.1215  0.3505  0.3635
12860TIP3    H159995   5.851   4.094   2.031 -0.2045  1.0273  1.4773
12860TIP3    H259996   5.933   3.977   2.079 -0.6004 -0.8829 -2.3737
12861TIP3   OH259997   0.401   4.454   3.999  0.0376 -0.0495 -0.1236
12861TIP3    H159998   0.442   4.503   4.071  1.7162 -0.8971 -0.4729
12861TIP3    H259999   0.372   4.373   4.039  1.5016 -0.7750 -0.5029
12862TIP3   OH260000   2.781   6.331   5.230 -0.2059 -0.7333  0.6702
12862TIP3    H160001   2.687   6.348   5.242 -0.0537  1.2232 -0.7047
12862TIP3    H260002   2.801   6.365   5.143  2.2981  1.1865  1.9195
12863TIP3   OH260003   1.161   0.690   2.700  0.7747 -0.3964 -0.2799
12863TIP3    H160004   1.229   0.757   2.704  0.2065  0.3714 -2.5014
12863TIP3    H260005   1.147   0.675   2.606 -2.0128 -0.6314  0.1179
12864TIP3   OH260006   4.733   0.516  16.669 -0.0185 -0.3047 -0.2261
12864TIP3    H160007   4.707   0.551  16.583  1.8483 -0.5573 -0.9063
12864TIP3    H260008   4.768   0.591  16.716  0.6672 -0.5311 -0.3711
12865TIP3   OH260009   4.200   4.220   5.580 -0.2333 -0.2110 -0.2449
12865TIP3    H160010   4.163   4.226   5.669 -0.0849 -1.2759 -0.1074
12865TIP3    H260011   4.139   4.164   5.532  0.3177 -0.6167 -0.4801
12866TIP3   OH260012   2.568   4.894  14.417 -0.3430  0.2954 -0.4848
12866TIP3    H160013   2.544   4.878  14.509 -1.9405  2.1771 -0.5471
12866TIP3    H260014   2.657   4.860  14.410 -0.3847 -0.3719  1.6277
12867TIP3   OH260015   6.609   6.666   5.035 -0.3246 -0.3064  0.9186
12867TIP3    H160016   6.691   6.713   5.047 -0.0293 -0.7307  0.5770
12867TIP3    H260017   6.563   6.676   5.119 -0.2194  0.4865  0.8821
12868TIP3   OH260018   0.672   1.287  17.131  0.3623 -0.4424 -0.1742
12868TIP3    H160019   0.765   1.263  17.139  0.4605  0.2271  0.8199
12868TIP3    H260020   0.626   1.217  17.178  0.6271  1.0897  2.4620
12869TIP3   OH260021   3.703   5.509  12.040 -0.8015  0.1537 -0.0061
12869TIP3    H160022   3.716   5.414  12.049 -2.1498 -0.0724 -0.3695
12869TIP3    H260023   3.678   5.521  11.949  0.1947  0.9703 -0.1807
12870TIP3   OH260024   1.872   2.421   4.303  0.0680  0.3912  0.2124
12870TIP3    H160025   1.946   2.368   4.332 -0.0900 -0.9422 -1.7127
12870TIP3    H260026   1.796   2.380   4.344 -0.1675 -1.5491 -2.0717
12871TIP3   OH260027   3.030   3.723  12.694 -0.4539  0.4548  0.6465
12871TIP3    H160028   2.993   3.800  12.650  0.7146 -0.0713 -1.3436
12871TIP3    H260029   3.124   3.736  12.689 -0.2464 -1.0209  0.4235
12872TIP3   OH260030   4.140   6.730   4.762  0.2081  0.2382  0.3578
12872TIP3    H160031   4.147   6.638   4.737 -1.0248 -0.1205  1.2646
12872TIP3    H260032   4.229   6.765   4.750  0.5407 -0.8970 -0.6043
12873TIP3   OH260033   5.208   5.381   4.893 -0.4556 -0.3027  0.2383
12873TIP3    H160034   5.261   5.438   4.838 -1.0214 -0.3686 -0.3872
12873TIP3    H260035   5.118   5.399   4.866 -0.5752 -2.9017 -1.3946
12874TIP3   OH260036   6.113   1.900  13.293  0.2455 -0.0625  0.2260
12874TIP3    H160037   6.178   1.933  13.231  2.6952  0.0926  2.7748
12874TIP3    H260038   6.082   1.818  13.254  4.4507 -1.8706  0.4703
12875TIP3   OH260039   5.841   3.608  13.250 -0.2702 -0.0781  0.3402
12875TIP3    H160040   5.799   3.684  13.292 -0.1122 -0.1531  0.6353
12875TIP3    H260041   5.914   3.587  13.307 -2.1015 -2.3456  1.9322
12876TIP3   OH260042   0.216   3.484   3.081  0.1490 -0.8408  0.5804
12876TIP3    H160043   0.286   3.422   3.062 -0.2869 -1.2349  0.2408
12876TIP3    H260044   0.148   3.431   3.125 -0.3101 -0.6552  0.1034
12877TIP3   OH260045   2.265   0.246  17.139  0.3461 -0.1822  0.3055
12877TIP3    H160046   2.341   0.271  17.192  0.6329 -0.5346  0.0567
12877TIP3    H260047   2.282   0.282  17.053  0.7753 -1.2546 -0.0634
12878TIP3   OH260048   5.997   3.861   3.272  0.1126 -0.7490  0.1690
12878TIP3    H160049   5.967   3.949   3.251  0.9736 -0.3049  0.7224
12878TIP3    H260050   6.086   3.875   3.307  1.6425 -2.1500 -3.0247
12879TIP3   OH260051   5.308   4.914  11.336 -0.7191  0.0543  0.0154
12879TIP3    H160052   5.307   4.895  11.430 -0.1993  0.4415  0.1061
12879TIP3    H260053   5.400   4.936  11.318 -0.6061 -1.0193 -0.7840
12880TIP3   OH260054   6.033   0.813   6.051  0.0896 -0.0595 -0.1825
12880TIP3    H160055   5.940   0.800   6.070  0.0977 -1.3695 -1.0036
12880TIP3    H260056   6.070   0.726   6.055  1.5810  0.6333  1.6300
12881TIP3   OH260057   0.667   6.760  11.518 -0.0482 -0.0734 -0.6931
12881TIP3    H160058   0.655   6.690  11.583 -2.7868 -0.4369 -1.5081
12881TIP3    H260059   0.696   6.714  11.439  1.9263  0.2008 -0.1419
12882TIP3   OH260060   1.757   5.091   4.959  0.5694  0.0106  0.0738
12882TIP3    H160061   1.824   5.131   4.903 -0.5599  1.8021 -0.0007
12882TIP3    H260062   1.750   5.150   5.034 -1.0375 -0.0938  0.0136
12883TIP3   OH260063   5.837   0.522  16.821  0.0954  0.2550  0.7451
12883TIP3    H160064   5.859   0.475  16.740  0.2115  1.0350  0.3170
12883TIP3    H260065   5.913   0.507  16.878  1.6104  2.5639 -0.5644
12884TIP3   OH260066   2.711   5.880  10.758  0.3904 -0.9497 -0.4269
12884TIP3    H160067   2.671   5.954  10.804  2.0247  0.5535 -1.3641
12884TIP3    H260068   2.680   5.888  10.668  4.7305  1.8009 -1.8181
12885TIP3   OH260069   5.299   5.507   0.036  0.4505  0.3944 -0.2137
12885TIP3    H160070   5.295   5.503  -0.060  0.6990 -0.9070 -0.1895
12885TIP3    H260071   5.245   5.434   0.065  0.6913  0.5442  0.6318
12886TIP3   OH260072   0.385   0.303   2.267  0.2155 -0.2316  0.0202
12886TIP3    H160073   0.368   0.275   2.177 -1.5364  2.2491 -0.4510
12886TIP3    H260074   0.327   0.378   2.281  2.1319  0.8661  2.4564
12887TIP3   OH260075   0.562   4.740   5.334 -0.1031 -0.0117  0.7896
12887TIP3    H160076   0.656   4.751   5.319 -0.0714 -0.7817  0.3721
12887TIP3    H260077   0.555   4.660   5.386 -0.7189 -1.9250 -2.1060
12888TIP3   OH260078   2.978   2.153  12.504 -0.1010  0.4817  0.4830
12888TIP3    H160079   2.935   2.068  12.500  0.3421  0.2707  0.1609
12888TIP3    H260080   2.971   2.180  12.596  1.1952 -0.6546  0.9253
12889TIP3   OH260081   0.477   1.869   2.291 -0.1756  0.0191  0.1794
12889TIP3    H160082   0.440   1.948   2.251  0.2873  0.5543  0.7936
12889TIP3    H260083   0.544   1.841   2.229 -0.2409  0.1923  0.0294
12890TIP3   OH260084   4.660   4.516  13.086 -0.2125  0.3606  0.0054
12890TIP3    H160085   4.683   4.606  13.109 -0.4574  0.5173 -0.3568
12890TIP3    H260086   4.688   4.506  12.995 -0.9200  0.3270 -0.2138
12891TIP3   OH260087   3.431   0.584  11.141  0.0888  0.5867  0.6669
12891TIP3    H160088   3.434   0.616  11.050  0.7288 -0.8181  0.1730
12891TIP3    H260089   3.370   0.510  11.137 -1.1370  1.5258  1.7241
12892TIP3   OH260090   5.202   0.782  16.376 -0.3907  0.1466 -0.1792
12892TIP3    H160091   5.229   0.858  16.427  2.2917  0.1855 -1.5667
12892TIP3    H260092   5.283   0.732  16.363 -1.5217 -1.2744 -2.0015
12893TIP3   OH260093   2.516   1.516   2.380  0.0966  0.2771 -0.0755
12893TIP3    H160094   2.568   1.446   2.341  1.1243 -0.1206  1.9145
12893TIP3    H260095   2.426   1.496   2.356  0.4254 -1.5106  0.1008
12894TIP3   OH260096   6.718   1.296  12.815 -0.0604  0.6110  0.4426
12894TIP3    H160097   6.682   1.379  12.847 -2.7651 -0.2320 -0.3003
12894TIP3    H260098   6.711   1.237  12.890  0.8885  0.7364  0.6440
12895TIP3   OH260099   4.630   5.798  13.066 -0.5470  0.2055 -0.1570
12895TIP3    H160100   4.610   5.874  13.121  0.1919  0.4338 -0.1962
12895TIP3    H260101   4.578   5.811  12.987  0.0234  0.9674 -0.4090
12896TIP3   OH260102   0.627   1.298   4.262 -0.3455 -0.3178 -0.4215
12896TIP3    H160103   0.665   1.386   4.266  1.4840 -1.0340 -1.8481
12896TIP3    H260104   0.614   1.274   4.354  0.6218  0.8097  0.0201
12897TIP3   OH260105   2.454   6.720  14.940  0.1159 -0.1639 -0.3158
12897TIP3    H160106   2.367   6.702  14.906 -0.1190 -0.2078  0.3151
12897TIP3    H260107   2.486   6.635  14.972  0.8425 -0.3889 -1.5591
12898TIP3   OH260108   2.106   6.552  14.294  0.0535  0.0092 -0.2458
12898TIP3    H160109   2.118   6.487  14.224  1.0626  0.2129 -0.2763
12898TIP3    H260110   2.106   6.636  14.248 -0.5516  0.0731 -0.1314
12899TIP3   OH260111   6.092   0.131   4.709 -0.1404  0.7551  0.1017
12899TIP3    H160112   6.129   0.069   4.772 -1.8320 -1.0246 -0.5730
12899TIP3    H260113   6.124   0.100   4.624 -0.2938  1.3140 -0.1600
12900TIP3   OH260114   1.526   0.212  13.204 -0.5585  0.1444 -0.3473
12900TIP3    H160115   1.431   0.217  13.197 -0.5897  0.1360  0.0729
12900TIP3    H260116   1.542   0.150  13.275 -0.2120 -2.0020 -2.2439
12901TIP3   OH260117   4.614   5.689  12.232  0.0835 -0.7036 -0.0563
12901TIP3    H160118   4.553   5.616  12.224 -1.0412  0.1308  0.7795
12901TIP3    H260119   4.647   5.703  12.143 -1.7277 -0.5001 -0.7023
12902TIP3   OH260120   4.158   6.345   6.495  0.4668 -0.4758 -0.0149
12902TIP3    H160121   4.162   6.429   6.542 -2.7282 -0.0638 -0.3425
12902TIP3    H260122   4.182   6.280   6.561  0.2061  0.4649  1.0357
12903TIP3   OH260123   1.315   5.825  15.502 -0.0121  0.3991 -0.3612
12903TIP3    H160124   1.307   5.898  15.564 -1.4282  0.2319 -0.3128
12903TIP3    H260125   1.225   5.795  15.490  0.8408 -3.4516  2.0918
12904TIP3   OH260126   1.813   4.803   5.463 -0.3479  0.5343  0.6553
12904TIP3    H160127   1.908   4.795   5.465 -0.2346  1.6766  0.2458
12904TIP3    H260128   1.797   4.897   5.463 -1.4627  0.3548 -0.3273
12905TIP3   OH260129   2.839   3.454  15.192  0.2235 -0.4249  0.4367
12905TIP3    H160130   2.817   3.403  15.271 -2.0001  1.4412  1.0928
12905TIP3    H260131   2.825   3.393  15.120 -0.0753 -1.4494  1.3394
12906TIP3   OH260132   0.792   5.419   0.985 -0.1751  0.3658  0.2496
12906TIP3    H160133   0.829   5.331   0.979  0.0247  0.5550 -1.5768
12906TIP3    H260134   0.837   5.469   0.916 -0.4253  1.8419  1.1301
12907TIP3   OH260135   3.661   6.514   4.244 -0.0622 -0.2947  0.5104
12907TIP3    H160136   3.600   6.548   4.179 -0.6331 -1.3867  0.4688
12907TIP3    H260137   3.747   6.543   4.213 -0.4704  0.5820  0.1546
12908TIP3   OH260138   2.367   1.139   6.395 -0.2726 -0.4719 -0.6082
12908TIP3    H160139   2.349   1.056   6.350 -0.9849 -1.8326  2.0781
12908TIP3    H260140   2.282   1.181   6.404 -0.4034 -1.0069  0.9037
12909TIP3   OH260141   5.359   3.453   0.454 -0.4164  0.3835  0.2135
12909TIP3    H160142   5.393   3.364   0.457  2.2185  1.3490  0.0158
12909TIP3    H260143   5.361   3.483   0.545 -2.2966 -0.0762  0.4391
12910TIP3   OH260144   1.166   2.333  15.236 -0.0328  0.0515 -0.0013
12910TIP3    H160145   1.197   2.420  15.210 -2.0667  1.3195  1.5830
12910TIP3    H260146   1.239   2.295  15.284  0.2923  1.5821  0.7574
12911TIP3   OH260147   4.590   5.380   3.517  0.2897 -0.1753  0.3923
12911TIP3    H160148   4.636   5.299   3.497  2.4922  0.4729  2.5576
12911TIP3    H260149   4.540   5.359   3.597  0.0681  0.3030  0.3798
12912TIP3   OH260150   6.445   0.963  11.959 -0.2465  0.4199 -0.2732
12912TIP3    H160151   6.394   0.884  11.978 -0.0878  0.2051 -0.7210
12912TIP3    H260152   6.510   0.934  11.896 -1.7433  1.4345 -2.3636
12913TIP3   OH260153   5.056   2.492  13.373  0.0023 -0.3440 -0.0881
12913TIP3    H160154   5.103   2.440  13.308  0.6972 -0.5241  0.5580
12913TIP3    H260155   5.123   2.524  13.432 -0.5760  0.2004  0.2842
12914TIP3   OH260156   4.942   4.647   0.020  0.4632  0.1358 -0.1083
12914TIP3    H160157   4.922   4.714   0.085  3.7095  1.3069 -0.2583
12914TIP3    H260158   5.027   4.611   0.047  0.8394 -0.8613 -2.4767
12915TIP3   OH260159   3.559   3.604   1.204  0.2486 -0.1248  0.3214
12915TIP3    H160160   3.639   3.593   1.255  1.1732 -0.2405 -1.1404
12915TIP3    H260161   3.506   3.665   1.256  0.5395 -1.4010  2.1398
12916TIP3   OH260162   6.391   1.160  13.214 -0.4926  0.6380 -0.1266
12916TIP3    H160163   6.466   1.155  13.273 -0.6235  4.1165  0.4102
12916TIP3    H260164   6.315   1.152  13.272 -0.5864 -0.7534 -0.4221
12917TIP3   OH260165   6.024   4.200  13.783 -0.1560  0.5311  0.1665
12917TIP3    H160166   5.970   4.279  13.788  0.5524  1.0332 -0.0315
12917TIP3    H260167   5.983   4.138  13.843  1.3595  2.2969  3.1206
12918TIP3   OH260168   2.305   5.860   5.763  0.1210 -0.5082 -0.0435
12918TIP3    H160169   2.367   5.916   5.716  1.1105 -0.8308  0.8537
12918TIP3    H260170   2.343   5.850   5.850  2.2133 -5.9982 -1.3464
12919TIP3   OH260171   0.366   0.237  12.858 -0.2314 -0.3437  0.6166
12919TIP3    H160172   0.354   0.212  12.766 -1.4290 -0.8287  0.8891
12919TIP3    H260173   0.341   0.329  12.861  1.3112  0.1019  0.1697
12920TIP3   OH260174   5.893   2.502  14.429  0.6191  0.3645  0.8897
12920TIP3    H160175   5.819   2.442  14.421  1.4323 -0.5908  0.3813
12920TIP3    H260176   5.887   2.536  14.518 -1.7476  2.0660  0.1198
12921TIP3   OH260177   4.981   3.091  16.238  0.0298  0.0102 -0.2038
12921TIP3    H160178   5.066   3.100  16.196 -0.3594  1.2300 -0.7450
12921TIP3    H260179   4.927   3.159  16.198 -2.0527 -2.6045 -1.9780
12922TIP3   OH260180   3.447   4.285  14.956  0.0024 -0.3942 -0.2846
12922TIP3    H160181   3.357   4.313  14.972 -0.2981 -1.4907 -0.0242
12922TIP3    H260182   3.440   4.219  14.886  0.8616  1.3197 -2.0438
12923TIP3   OH260183   1.465   6.223  14.726  0.2712  0.1077  0.3010
12923TIP3    H160184   1.381   6.254  14.694 -1.2361 -1.8734  2.2031
12923TIP3    H260185   1.495   6.291  14.787  0.3145  1.0584 -0.7767
12924TIP3   OH260186   2.348   6.260   3.200 -0.6225 -0.4941 -0.3635
12924TIP3    H160187   2.417   6.248   3.265 -0.2577 -0.6302 -0.7656
12924TIP3    H260188   2.396   6.266   3.117 -1.1345 -1.0734 -0.6988
12925TIP3   OH260189   4.361   6.214   3.583 -0.3975  0.3682 -0.0959
12925TIP3    H160190   4.274   6.193   3.618  0.2448  0.0254  1.3517
12925TIP3    H260191   4.344   6.255   3.498 -1.8249 -2.6094 -1.2950
12926TIP3   OH260192   3.965   6.464  13.544  0.0864 -0.6004  0.1896
12926TIP3    H160193   4.026   6.518  13.595  0.1928  0.6441 -1.2171
12926TIP3    H260194   3.928   6.524  13.480 -0.2192 -2.0804 -1.0490
12927TIP3   OH260195   4.969   5.036  14.134 -0.1193  0.0167  0.3874
12927TIP3    H160196   4.881   5.053  14.101 -0.7190 -0.0927  1.9153
12927TIP3    H260197   4.960   4.961  14.191  1.0848 -0.3726  0.0989
12928TIP3   OH260198   3.291   6.492   1.609  0.2317  0.4207 -0.1840
12928TIP3    H160199   3.201   6.480   1.639  0.1185 -0.3336 -0.8112
12928TIP3    H260200   3.293   6.454   1.521  0.9535  1.1980 -0.5127
12929TIP3   OH260201   2.795   4.109  12.306  0.1816 -0.1371 -0.2803
12929TIP3    H160202   2.739   4.176  12.344  2.5424  2.3428 -1.0243
12929TIP3    H260203   2.871   4.106  12.363  0.5533 -1.4950 -0.8266
12930TIP3   OH260204   1.515   4.404   4.411 -0.1923  0.4867  0.1830
12930TIP3    H160205   1.577   4.457   4.459 -0.3490  0.0347  0.8920
12930TIP3    H260206   1.433   4.413   4.459 -0.2953 -0.1474  0.1347
12931TIP3   OH260207   5.724   4.215  16.072  0.0365  0.5201  0.1440
12931TIP3    H160208   5.663   4.271  16.120 -0.8326 -0.9537  0.7721
12931TIP3    H260209   5.688   4.127  16.081  1.7618 -0.2400 -0.2724
12932TIP3   OH260210   4.303   2.291  14.164  0.2619  0.1537 -0.0959
12932TIP3    H160211   4.245   2.359  14.129  1.6156  0.2492 -2.2667
12932TIP3    H260212   4.375   2.340  14.205  0.4412  0.0418 -0.2755
12933TIP3   OH260213   6.340   5.477   6.975  0.2671  0.2374 -0.0911
12933TIP3    H160214   6.394   5.556   6.980 -0.4564  0.7183  0.2869
12933TIP3    H260215   6.382   5.415   7.035  1.2413  0.0786 -0.9210
12934TIP3   OH260216   6.293   1.593   2.422 -0.1428  0.0505 -0.4063
12934TIP3    H160217   6.316   1.502   2.441  1.1608  0.3177 -0.7152
12934TIP3    H260218   6.303   1.602   2.327 -2.8934 -0.2113 -0.7607
12935TIP3   OH260219   3.752   1.872   2.667 -0.3469 -0.0000  0.1506
12935TIP3    H160220   3.764   1.928   2.591  0.0577 -1.4307 -0.8657
12935TIP3    H260221   3.725   1.788   2.631  0.2552 -0.8169  1.5480
12936TIP3   OH260222   5.089   1.575   3.508 -0.3225  0.1193 -0.4711
12936TIP3    H160223   5.087   1.644   3.574  0.0474 -0.7137  0.4077
12936TIP3    H260224   5.003   1.578   3.467 -1.2778 -0.7789  1.4825
12937TIP3   OH260225   0.127   1.911  13.659  0.2811  0.6466 -0.1065
12937TIP3    H160226   0.220   1.903  13.640  0.2693 -0.3675  0.2191
12937TIP3    H260227   0.120   1.893  13.753 -0.2912  0.3282 -0.2080
12938TIP3   OH260228   1.413   3.299  15.495  0.6125 -0.0099  0.1162
12938TIP3    H160229   1.350   3.369  15.511  0.7895  0.1474  0.1292
12938TIP3    H260230   1.362   3.229  15.454  0.7631  0.7716 -1.4317
12939TIP3   OH260231   4.352   1.893  15.722  0.2298 -0.3243  0.1554
12939TIP3    H160232   4.439   1.921  15.748 -0.0378 -0.2180  0.9675
12939TIP3    H260233   4.314   1.969  15.678  1.1530 -0.9269 -1.7196
12940TIP3   OH260234   4.097   6.012  13.836 -0.2628 -0.0836  0.7992
12940TIP3    H160235   4.074   6.054  13.919  0.5959 -2.4150  2.2645
12940TIP3    H260236   4.033   6.045  13.774 -2.6324 -0.3713  3.0031
12941TIP3   OH260237   6.300   2.280   2.043  0.4069  0.5321  0.2141
12941TIP3    H160238   6.358   2.307   1.972 -0.1863 -1.2857 -0.9904
12941TIP3    H260239   6.355   2.227   2.100  0.0116 -1.0221 -0.8216
12942TIP3   OH260240   6.506   2.196  16.739  0.2983 -0.2867 -0.2620
12942TIP3    H160241   6.416   2.215  16.711 -1.0428 -2.1359  2.6320
12942TIP3    H260242   6.556   2.272  16.708 -2.3684  1.1573 -1.2561
12943TIP3   OH260243   2.820   3.549   5.060 -0.6039 -0.0739  0.2145
12943TIP3    H160244   2.750   3.491   5.090  0.2082 -0.9228  0.4852
12943TIP3    H260245   2.873   3.494   5.002 -0.6140  0.7930 -0.6407
12944TIP3   OH260246   3.224   2.029  13.617 -0.1074 -0.3464  0.2415
12944TIP3    H160247   3.165   1.995  13.684  1.0476 -2.4304  0.2643
12944TIP3    H260248   3.310   2.032  13.660  0.5615 -1.3019 -0.9706
12945TIP3   OH260249   2.303   4.242   1.508  0.0159  0.1902 -0.3345
12945TIP3    H160250   2.280   4.326   1.546 -0.6609 -0.0540 -0.1921
12945TIP3    H260251   2.236   4.182   1.542 -0.5466 -0.0442 -1.8393
12946TIP3   OH260252   0.599   5.280   0.393 -0.6133  0.3361  0.0010
12946TIP3    H160253   0.649   5.324   0.462  0.3559  0.1052 -0.5367
12946TIP3    H260254   0.567   5.199   0.434  1.9431 -0.9659 -0.4649
12947TIP3   OH260255   3.335   6.173   5.780 -0.5476 -0.0386 -0.2424
12947TIP3    H160256   3.422   6.198   5.751 -0.0034 -1.3750  0.1664
12947TIP3    H260257   3.321   6.223   5.860 -0.1346  0.1549 -0.2912
12948TIP3   OH260258   5.223   5.421   0.914  0.3454 -0.0587 -0.6055
12948TIP3    H160259   5.128   5.417   0.902  0.3272 -0.9421 -0.2688
12948TIP3    H260260   5.255   5.338   0.879  1.0169  0.3322 -0.9207
12949TIP3   OH260261   0.863   1.346   1.028  0.0340  0.1945 -0.1856
12949TIP3    H160262   0.937   1.354   1.088 -0.1595  2.5532 -0.2055
12949TIP3    H260263   0.900   1.362   0.942  0.3004 -3.1324 -0.7544
12950TIP3   OH260264   3.500   6.571   1.293  0.1424  0.5244 -0.1308
12950TIP3    H160265   3.531   6.545   1.206 -2.5378  1.5107 -1.4748
12950TIP3    H260266   3.443   6.500   1.321  0.7965  0.3295  0.7108
12951TIP3   OH260267   6.627   1.381  15.386 -0.1886  0.3668 -0.2413
12951TIP3    H160268   6.562   1.351  15.449  0.9659 -0.7959  0.4119
12951TIP3    H260269   6.613   1.476  15.381 -0.6823  0.3967  1.3224
12952TIP3   OH260270   5.001   6.052   4.424 -0.6914 -0.1628 -0.2035
12952TIP3    H160271   4.947   5.999   4.482 -0.3385 -0.5220 -0.1984
12952TIP3    H260272   5.089   6.048   4.464 -0.8568  1.1849  0.3096
12953TIP3   OH260273   0.320   3.590   0.063 -0.5831 -0.6550  0.1503
12953TIP3    H160274   0.393   3.531   0.083 -0.1921  0.3171  1.6636
12953TIP3    H260275   0.354   3.648  -0.005 -0.1867 -0.6684  0.3351
12954TIP3   OH260276   0.925   1.793   4.201 -0.1834  0.8259  0.2328
12954TIP3    H160277   0.916   1.882   4.234 -0.1050  0.7291  0.5109
12954TIP3    H260278   0.912   1.737   4.277 -1.0439  0.5687 -0.0846
12955TIP3   OH260279   1.025   6.480   2.975 -0.0006  0.3484  0.3294
12955TIP3    H160280   1.087   6.552   2.986  0.0197  0.3266  0.3539
12955TIP3    H260281   0.953   6.500   3.035  0.6148 -0.3231  1.2948
12956TIP3   OH260282   2.638   5.379  11.210 -0.4998  0.3594 -0.0964
12956TIP3    H160283   2.711   5.322  11.235 -1.4582 -1.0359 -0.4221
12956TIP3    H260284   2.590   5.393  11.291 -0.3288  0.6191 -0.0392
12957TIP3   OH260285   4.209   5.860  13.396  0.2864 -0.6388  0.2449
12957TIP3    H160286   4.199   5.793  13.328  0.0125  1.7816 -2.1842
12957TIP3    H260287   4.216   5.942  13.347 -0.7446  1.2647  3.1868
12958TIP3   OH260288   1.916   4.398  11.569 -0.3201 -0.0186  0.6608
12958TIP3    H160289   2.000   4.400  11.524 -1.3055  0.2352 -1.2166
12958TIP3    H260290   1.921   4.320  11.625  2.0958  1.3846  2.4971
12959TIP3   OH260291   3.348   3.987  11.297  0.4805  0.2827  0.3131
12959TIP3    H160292   3.394   3.973  11.214  0.8404 -1.2671  0.7608
12959TIP3    H260293   3.342   3.900  11.336 -0.7789  0.8195  1.3468
12960TIP3   OH260294   0.342   2.504  14.658 -0.6160 -0.6556  0.0179
12960TIP3    H160295   0.406   2.562  14.616 -1.8535  0.6580 -0.0978
12960TIP3    H260296   0.359   2.514  14.752  0.8359 -2.0648 -0.0802
12961TIP3   OH260297   1.388   2.651   2.016 -0.2183  0.0967 -0.6311
12961TIP3    H160298   1.329   2.718   1.981 -0.0457  0.6758  0.1691
12961TIP3    H260299   1.335   2.572   2.021 -0.9652  0.6357  0.1767
12962TIP3   OH260300   3.663   1.249   0.277 -0.4169 -0.1375  0.3638
12962TIP3    H160301   3.703   1.316   0.222  0.3986 -0.8983  0.0364
12962TIP3    H260302   3.647   1.294   0.360  0.2492  0.4256  0.1932
12963TIP3   OH260303   0.789   6.134   1.157 -0.2107  0.3058 -0.4197
12963TIP3    H160304   0.828   6.167   1.076 -0.5974  1.5550 -0.1024
12963TIP3    H260305   0.831   6.183   1.227 -0.1873 -0.4698  0.1219
12964TIP3   OH260306   3.934   3.106  15.517  0.0362 -0.7141  0.3993
12964TIP3    H160307   3.872   3.117  15.445 -2.6910 -0.3260  2.7203
12964TIP3    H260308   4.003   3.170  15.500 -2.3589  1.8175 -0.0641
12965TIP3   OH260309   6.442   5.711  14.299 -0.2810  0.0727 -0.1793
12965TIP3    H160310   6.535   5.687  14.303 -0.5324 -1.4975 -2.2694
12965TIP3    H260311   6.442   5.805  14.283  0.9691  0.0753 -0.2181
12966TIP3   OH260312   2.114   5.123  15.885  0.1385  0.2323  1.0438
12966TIP3    H160313   2.122   5.170  15.968 -2.2380  2.2477  0.1649
12966TIP3    H260314   2.025   5.141  15.855  0.3145 -2.0755 -1.0034
12967TIP3   OH260315   6.150   1.836   3.340  0.3074 -0.2071 -0.0963
12967TIP3    H160316   6.159   1.796   3.254  2.5806 -0.6594  0.3400
12967TIP3    H260317   6.055   1.837   3.356  0.0549 -3.0641 -1.1988
12968TIP3   OH260318   3.736   4.474  16.358  0.5973 -0.1387 -0.0596
12968TIP3    H160319   3.782   4.408  16.411  1.9007  1.2458  0.5781
12968TIP3    H260320   3.692   4.424  16.289  1.0687 -1.7189  0.7665
12969TIP3   OH260321   2.464   6.465   2.160 -0.3938  0.4396  0.3161
12969TIP3    H160322   2.428   6.433   2.078  1.6383 -1.6675  0.1922
12969TIP3    H260323   2.473   6.560   2.148 -4.0709  0.7527 -0.2849
12970TIP3   OH260324   0.685   1.344  15.611 -0.2329  0.2086 -0.0618
12970TIP3    H160325   0.617   1.404  15.580  0.1388  0.1201 -1.0524
12970TIP3    H260326   0.719   1.385  15.691 -1.4086  0.2785  0.4117
12971TIP3   OH260327   1.255   3.740   3.764  0.5972  0.0503  0.4073
12971TIP3    H160328   1.299   3.819   3.731  0.0128  1.2436  2.3740
12971TIP3    H260329   1.170   3.740   3.719  0.4763  0.7201  0.6243
12972TIP3   OH260330   6.151   1.896   5.855 -0.2121 -0.0994 -0.0770
12972TIP3    H160331   6.161   1.845   5.936  1.9512  2.2698  1.2101
12972TIP3    H260332   6.057   1.913   5.849 -0.2373  1.1832  2.9297
12973TIP3   OH260333   3.704   5.886   2.871  0.0810 -0.2174  0.0936
12973TIP3    H160334   3.638   5.827   2.907 -1.4463  1.3227 -0.0728
12973TIP3    H260335   3.657   5.937   2.805  1.4757  0.8326 -0.1181
12974TIP3   OH260336   0.046   2.616  12.069  0.1344 -0.8085  0.2156
12974TIP3    H160337   0.072   2.546  12.010  1.7721 -0.9003  1.0324
12974TIP3    H260338   0.044   2.695  12.014  0.4077 -1.1093 -0.2247
12975TIP3   OH260339   1.579   4.285  13.073 -0.7502 -0.5347  0.4489
12975TIP3    H160340   1.585   4.375  13.106  0.5380 -0.1301 -0.8451
12975TIP3    H260341   1.573   4.231  13.152  1.7729  0.4487  1.3728
12976TIP3   OH260342   2.489   3.600   0.242  0.3923  0.4051 -0.0713
12976TIP3    H160343   2.489   3.652   0.322 -2.6917 -2.1595  1.7437
12976TIP3    H260344   2.426   3.644   0.184  1.3059  1.2869 -0.3935
12977TIP3   OH260345   5.538   6.539   6.530 -0.4315  0.1197  0.3092
12977TIP3    H160346   5.622   6.582   6.516 -0.0253 -1.1182 -1.1051
12977TIP3    H260347   5.551   6.487   6.609  0.5470 -1.0941 -0.6417
12978TIP3   OH260348   3.799   5.940  11.767  0.5210  0.5454  0.0496
12978TIP3    H160349   3.873   5.998  11.786  1.2214 -0.1150 -0.6821
12978TIP3    H260350   3.823   5.895  11.687 -0.5132  0.0417  0.0167
12979TIP3   OH260351   1.975   4.414   1.646  0.2625 -0.1925  0.2865
12979TIP3    H160352   2.048   4.472   1.626  1.2206 -1.4142  0.2023
12979TIP3    H260353   1.993   4.383   1.735  2.3588 -4.1421 -1.3986
12980TIP3   OH260354   4.722   4.090   0.754  0.2922 -0.4244  0.0408
12980TIP3    H160355   4.816   4.101   0.745  0.1874 -0.2826 -0.8420
12980TIP3    H260356   4.699   4.024   0.689 -0.1710 -0.7231  0.4981
12981TIP3   OH260357   0.736   0.583  12.183  0.1090 -0.8098  0.0304
12981TIP3    H160358   0.796   0.542  12.120 -0.3536 -0.1329 -0.8638
12981TIP3    H260359   0.774   0.670  12.199  0.6372 -1.2604  1.2809
12982TIP3   OH260360   1.209   5.933   5.487  0.0818 -0.7498  0.2759
12982TIP3    H160361   1.257   5.965   5.410  0.6006 -1.6731  0.2062
12982TIP3    H260362   1.270   5.874   5.530 -1.0905 -2.1880  0.0219
12983TIP3   OH260363   0.260   3.603   0.655  0.0854 -0.1116  0.4358
12983TIP3    H160364   0.182   3.651   0.682 -0.5465 -0.5599 -0.5900
12983TIP3    H260365   0.267   3.533   0.720 -0.5169 -0.2258  0.3845
12984TIP3   OH260366   5.476   5.297  15.339 -0.0717  0.0177  0.1508
12984TIP3    H160367   5.450   5.387  15.357  0.2452  0.2488 -0.5688
12984TIP3    H260368   5.393   5.248  15.342 -0.3240  0.4276 -0.1021
12985TIP3   OH260369   1.854   1.056   3.368  0.0483 -0.3293 -0.7785
12985TIP3    H160370   1.796   1.020   3.435 -0.6139  0.9917 -0.6252
12985TIP3    H260371   1.806   1.044   3.286 -0.5501  0.9571 -0.6264
12986TIP3   OH260372   0.228   2.849   0.535 -0.4746  0.4364 -0.1103
12986TIP3    H160373   0.195   2.812   0.454 -1.8308  0.5306  0.3850
12986TIP3    H260374   0.151   2.856   0.592  0.5107  0.0172  1.3207
12987TIP3   OH260375   2.416   6.340   0.212 -0.3013 -0.6250  0.2667
12987TIP3    H160376   2.453   6.253   0.194  0.0116 -0.5602  0.5844
12987TIP3    H260377   2.439   6.392   0.136 -2.4264 -1.4133 -0.9596
12988TIP3   OH260378   0.871   3.104   4.111 -0.1734  0.0508 -0.5790
12988TIP3    H160379   0.941   3.155   4.071  0.8643 -1.1247 -0.2841
12988TIP3    H260380   0.891   3.103   4.205  1.9523 -3.9964 -0.9498
12989TIP3   OH260381   4.954   0.531   1.293  0.0972 -0.5484  0.0339
12989TIP3    H160382   4.918   0.528   1.382 -2.3005  0.2526 -0.8760
12989TIP3    H260383   4.993   0.618   1.286  1.9854 -1.2887  0.8982
12990TIP3   OH260384   3.870   4.416   5.868  0.5151  0.1577  0.4572
12990TIP3    H160385   3.939   4.414   5.935  1.1895  0.0924 -0.2287
12990TIP3    H260386   3.904   4.362   5.797  0.7553  1.9850 -0.8476
12991TIP3   OH260387   1.249   1.752   1.843 -0.2875  0.6871 -0.1395
12991TIP3    H160388   1.203   1.773   1.762 -0.9297  0.7508  0.2356
12991TIP3    H260389   1.327   1.808   1.842  0.8437 -0.8708 -1.7420
12992TIP3   OH260390   3.446   1.465   0.781 -0.4988  0.0990  0.5131
12992TIP3    H160391   3.396   1.537   0.742  1.6253  2.4182  1.9461
12992TIP3    H260392   3.379   1.401   0.806 -2.3903  1.3296 -1.2142
12993TIP3   OH260393   0.004   4.272  14.383  0.0498 -0.0529 -0.3743
12993TIP3    H160394  -0.078   4.224  14.388  0.7150 -1.1267  0.4577
12993TIP3    H260395   0.072   4.204  14.378  0.9285  0.8097 -0.3525
12994TIP3   OH260396   1.344   2.785  11.329 -0.3823  0.1841  0.1573
12994TIP3    H160397   1.376   2.706  11.286  1.6902  1.0489  0.0369
12994TIP3    H260398   1.289   2.827  11.262  0.2244 -0.0955 -0.5296
12995TIP3   OH260399   6.673   4.647  14.417 -0.0619 -0.4169  0.2998
12995TIP3    H160400   6.610   4.683  14.355 -0.6117 -2.9894 -0.6659
12995TIP3    H260401   6.717   4.724  14.454 -0.1620  1.1937 -2.7885
12996TIP3   OH260402   3.492   0.175  13.483  0.0807 -0.3402  0.1449
12996TIP3    H160403   3.577   0.134  13.465 -0.5731 -0.7552 -2.1463
12996TIP3    H260404   3.428   0.106  13.466 -0.7954  0.3862  0.4492
12997TIP3   OH260405   4.868   5.651   3.919  0.0109  0.3753  0.5818
12997TIP3    H160406   4.836   5.573   3.964  1.2883 -0.7276 -0.3987
12997TIP3    H260407   4.932   5.688   3.979 -0.4533  0.5743  0.9614
12998TIP3   OH260408   1.428   2.665  13.746  0.2383  0.3491 -0.6314
12998TIP3    H160409   1.516   2.628  13.751 -0.0403 -0.5654 -2.0158
12998TIP3    H260410   1.426   2.710  13.662 -0.4560  0.8083 -0.3737
12999TIP3   OH260411   4.248   3.327  15.915 -0.3886 -0.0982 -0.1555
12999TIP3    H160412   4.226   3.414  15.948  2.5930  0.4943  0.4332
12999TIP3    H260413   4.190   3.267  15.962 -2.4740  1.5466 -0.5711
13000TIP3   OH260414   5.124   1.580   3.177 -0.0557 -0.2265 -0.5335
13000TIP3    H160415   5.041   1.628   3.168 -1.1300 -2.3092 -2.1300
13000TIP3    H260416   5.105   1.510   3.239  0.7357 -0.2175 -0.2786
13001TIP3   OH260417   5.653   2.116   5.549 -0.3636  0.0376 -0.1135
13001TIP3    H160418   5.573   2.065   5.560 -0.6272  0.2020 -1.1389
13001TIP3    H260419   5.635   2.172   5.473  0.5680  0.3737 -0.0954
13002TIP3   OH260420   6.075   2.431  15.545 -0.1383  0.0858  0.0378
13002TIP3    H160421   6.079   2.371  15.471  0.8239 -0.8494  0.8408
13002TIP3    H260422   5.991   2.413  15.586 -0.4198  0.1985 -0.4889
13003TIP3   OH260423   5.817   1.355   0.719  0.5962 -0.4102  0.1241
13003TIP3    H160424   5.869   1.423   0.762  0.2446  0.6184 -1.0518
13003TIP3    H260425   5.874   1.279   0.717  1.9677  0.6318 -0.9322
13004TIP3   OH260426   4.271   4.597  15.949 -0.0794 -0.5461  0.1306
13004TIP3    H160427   4.298   4.573  15.860 -0.6682  1.6322 -0.6659
13004TIP3    H260428   4.332   4.667  15.973 -0.3443 -0.6829  1.1826
13005TIP3   OH260429   4.654   3.575  14.608 -0.4287  0.0070  0.0033
13005TIP3    H160430   4.677   3.666  14.592 -1.9377  0.1899 -1.2843
13005TIP3    H260431   4.603   3.577  14.689  0.7455  0.1124  0.7415
13006TIP3   OH260432   4.338   4.184   1.025 -0.1759  0.3826 -1.0301
13006TIP3    H160433   4.346   4.161   1.117 -1.8763  3.0443 -0.1478
13006TIP3    H260434   4.331   4.100   0.979  0.3356 -0.9678  1.2816
13007TIP3   OH260435   3.185   3.409   6.568 -0.3748  0.0227 -0.4556
13007TIP3    H160436   3.132   3.457   6.505  1.1416 -0.2153 -1.9213
13007TIP3    H260437   3.256   3.371   6.517  1.9447  1.3598  1.6764
13008TIP3   OH260438   1.031   5.336   1.836 -0.0451 -0.5104  0.0874
13008TIP3    H160439   0.964   5.306   1.775  0.2544 -1.3183  0.1479
13008TIP3    H260440   1.021   5.431   1.839 -0.7946 -0.5777 -0.3570
13009TIP3   OH260441   1.898   6.566   3.675 -0.0232  0.5215 -0.5350
13009TIP3    H160442   1.869   6.599   3.590  0.9098 -0.0974 -1.1063
13009TIP3    H260443   1.860   6.626   3.739 -0.0945  1.4362 -1.4314
13010TIP3   OH260444   6.639   1.119  15.732 -0.0690  0.1092  0.1757
13010TIP3    H160445   6.734   1.107  15.733  0.1279  1.5321  0.2995
13010TIP3    H260446   6.627   1.212  15.750 -1.6001 -0.6336  3.2091
13011TIP3   OH260447   3.575   0.397  11.491  0.3252  0.1152 -0.2510
13011TIP3    H160448   3.527   0.371  11.570  0.8563  0.7978  0.3106
13011TIP3    H260449   3.573   0.320  11.435  0.1788 -0.4726  0.5481
13012TIP3   OH260450   2.038   6.639  14.546  0.1870  0.5423 -0.3971
13012TIP3    H160451   1.945   6.625  14.527  0.2782 -1.5800  0.6284
13012TIP3    H260452   2.083   6.615  14.466 -0.1173  1.2810 -0.7949
13013TIP3   OH260453   5.486   0.117   5.156  0.4051  0.4115 -0.0074
13013TIP3    H160454   5.408   0.065   5.137 -0.1846  1.5734 -0.8006
13013TIP3    H260455   5.458   0.178   5.225  0.4863  1.1043 -0.5800
13014TIP3   OH260456   0.505   6.002  17.193 -0.1274 -0.1796  0.0005
13014TIP3    H160457   0.442   5.934  17.169  1.5475 -1.7049 -0.2107
13014TIP3    H260458   0.520   6.050  17.112  0.1821 -0.8418 -0.3443
13015TIP3   OH260459   3.471   2.442  12.550 -0.0525  0.1973  0.3917
13015TIP3    H160460   3.474   2.370  12.613 -1.7517  1.0351  1.4753
13015TIP3    H260461   3.453   2.520  12.604  0.2763  1.2054 -0.9240
13016TIP3   OH260462   1.488   0.176  16.788  0.5819  0.3192  0.3712
13016TIP3    H160463   1.462   0.258  16.746  0.6734 -0.7638 -1.8995
13016TIP3    H260464   1.417   0.115  16.767  0.4913 -0.1788  2.0700
13017TIP3   OH260465   5.014   6.613  16.860 -0.5971 -0.3022 -0.2646
13017TIP3    H160466   5.044   6.619  16.769  0.5056  0.8306  0.1399
13017TIP3    H260467   4.990   6.703  16.882 -0.2576 -0.4604  0.7524
13018TIP3   OH260468   1.550   2.231   3.829 -0.0586 -0.2871  0.3548
13018TIP3    H160469   1.614   2.301   3.826  0.7632 -1.0607 -0.4164
13018TIP3    H260470   1.594   2.160   3.877 -0.4426 -0.7124  0.0841
13019TIP3   OH260471   0.958   4.029  15.117 -0.2646 -0.0388  0.3007
13019TIP3    H160472   1.039   3.980  15.103 -0.7743 -0.4178 -1.3678
13019TIP3    H260473   0.974   4.114  15.075 -0.9917 -0.3768 -0.6573
13020TIP3   OH260474   3.402   2.722  14.710  0.1770 -0.0417  0.1213
13020TIP3    H160475   3.454   2.696  14.787  0.7172 -0.7281 -0.4696
13020TIP3    H260476   3.358   2.641  14.683 -0.3372  0.2945 -0.0407
13021TIP3   OH260477   1.773   0.626  10.626  0.4382  0.3547  0.3361
13021TIP3    H160478   1.832   0.701  10.612  1.1548  0.1446  2.1046
13021TIP3    H260479   1.706   0.636  10.558  0.9046  2.2182  0.1025
13022TIP3   OH260480   2.776   6.782   0.594 -0.1797  0.4294  0.3233
13022TIP3    H160481   2.823   6.707   0.629  0.9902  1.0620  0.1498
13022TIP3    H260482   2.689   6.776   0.633 -1.0091 -2.5459 -1.8601
13023TIP3   OH260483   4.952   3.911   1.767 -0.3129 -0.0718 -0.2778
13023TIP3    H160484   4.870   3.868   1.791 -0.9106  0.7366 -0.8814
13023TIP3    H260485   4.942   3.932   1.674  0.0692  1.1671 -0.0455
13024TIP3   OH260486   5.966   6.335   4.016 -0.0644  0.3752 -0.1254
13024TIP3    H160487   5.927   6.415   3.981 -0.6110 -0.3049 -1.0879
13024TIP3    H260488   6.034   6.312   3.953  0.1562  0.1387  0.1988
13025TIP3   OH260489   3.163   0.480   1.084 -0.1594 -0.3171  0.5422
13025TIP3    H160490   3.186   0.388   1.098  2.9382  0.3311  0.1756
13025TIP3    H260491   3.214   0.505   1.007 -0.0783  2.0106  1.3334
13026TIP3   OH260492   3.860   2.946  13.428 -0.4643 -0.2515 -0.3578
13026TIP3    H160493   3.943   2.912  13.396  0.6896  2.6431 -0.5476
13026TIP3    H260494   3.855   2.916  13.519  1.4350  0.7166  0.0711
13027TIP3   OH260495   5.115   6.551   0.927  0.5406  0.1269 -0.7530
13027TIP3    H160496   5.068   6.576   0.848  1.9663  2.6174 -0.8521
13027TIP3    H260497   5.134   6.458   0.915 -2.7247 -0.5328 -1.5075
13028TIP3   OH260498   0.370   4.225   1.262 -0.0174  0.0187 -0.0021
13028TIP3    H160499   0.365   4.316   1.291 -0.3410  0.0283 -0.0890
13028TIP3    H260500   0.289   4.211   1.213 -0.1021 -0.4044  0.2566
13029TIP3   OH260501   1.352   4.027   0.646  0.4670 -0.1383  0.2358
13029TIP3    H160502   1.330   3.955   0.705  0.3830 -1.3226 -1.1899
13029TIP3    H260503   1.340   3.990   0.558  2.9923  0.7900 -0.5455
13030TIP3   OH260504   1.800   5.865   2.570 -0.3600  0.2737 -0.4084
13030TIP3    H160505   1.760   5.873   2.484 -0.3044 -2.8689 -0.7658
13030TIP3    H260506   1.730   5.836   2.627  0.6115 -2.1561 -0.3880
13031TIP3   OH260507   0.754   4.679   0.563  0.3794  0.1499  0.1800
13031TIP3    H160508   0.706   4.663   0.482  1.1699 -1.1515 -0.0355
13031TIP3    H260509   0.846   4.668   0.539  0.5803 -1.0876  1.4340
13032TIP3   OH260510   4.203   4.959  11.753  0.2309 -0.1612 -0.0587
13032TIP3    H160511   4.149   5.006  11.691 -0.3205 -1.5895 -0.6784
13032TIP3    H260512   4.268   4.914  11.700  1.3978  0.7102  0.6015
13033TIP3   OH260513   1.914   3.469  12.036 -0.0548  0.5796  0.1292
13033TIP3    H160514   1.928   3.456  12.130 -0.4503  0.2323  0.1429
13033TIP3    H260515   1.839   3.413  12.015  0.8906 -0.4232 -0.6683
13034TIP3   OH260516   4.607   5.846  15.065  0.1668 -0.2379  0.1522
13034TIP3    H160517   4.653   5.803  15.137  1.6533  1.1780  0.0757
13034TIP3    H260518   4.623   5.788  14.990  2.0757  0.3439  0.0708
13035TIP3   OH260519   1.074   5.754   3.239  0.1094 -0.0018 -0.0450
13035TIP3    H160520   1.035   5.786   3.320 -0.1102 -0.3500 -0.0102
13035TIP3    H260521   1.147   5.699   3.268 -0.5107 -0.8413 -0.0519
13036TIP3   OH260522   3.590   0.139   4.875 -0.3183 -0.0239 -0.1190
13036TIP3    H160523   3.582   0.095   4.960  2.4077 -1.4214 -0.5071
13036TIP3    H260524   3.544   0.081   4.814  1.4856 -1.3652 -0.2744
13037TIP3   OH260525   4.007   2.319  15.821 -0.1317  0.7763 -0.0855
13037TIP3    H160526   4.009   2.231  15.783  1.1806  0.1712  1.3360
13037TIP3    H260527   4.086   2.361  15.787  0.7192  0.4392  1.4466
13038TIP3   OH260528   3.999   2.344   5.145  0.5917  0.6168 -0.1265
13038TIP3    H160529   4.031   2.406   5.079  0.2590  0.8102 -0.1100
13038TIP3    H260530   4.067   2.277   5.150 -0.3109 -0.5376 -2.2086
13039TIP3   OH260531   4.907   1.510  15.957  0.0428 -0.6118  0.1328
13039TIP3    H160532   4.965   1.481  16.027  0.7410 -2.4079 -1.1600
13039TIP3    H260533   4.928   1.603  15.946  0.7826 -0.6063  1.4784
13040TIP3   OH260534   0.346   1.561   3.169  0.1345  0.6285  0.3242
13040TIP3    H160535   0.343   1.603   3.083  0.7172 -0.7517 -0.3865
13040TIP3    H260536   0.296   1.619   3.226 -0.3874  1.4785 -0.9771
13041TIP3   OH260537   3.388   1.774   5.066  0.2231 -0.0312  0.1360
13041TIP3    H160538   3.452   1.761   5.135  2.2703  0.6974 -1.5828
13041TIP3    H260539   3.411   1.857   5.026 -1.7355  0.1934 -0.5996
13042TIP3   OH260540   0.104   2.783  13.122  0.1544  0.1790  0.3691
13042TIP3    H160541   0.013   2.807  13.107 -0.1606 -0.7247  0.8181
13042TIP3    H260542   0.106   2.749  13.211  0.8749 -0.0875  0.2577
13043TIP3   OH260543   0.092   2.219   0.898  0.4537  0.1625  0.8415
13043TIP3    H160544   0.108   2.232   0.805 -0.1795 -0.6524  0.6135
13043TIP3    H260545   0.161   2.160   0.927  0.3561  0.0133  0.7731
13044TIP3   OH260546   4.856   1.940   3.020 -1.0500 -0.4109 -0.0048
13044TIP3    H160547   4.867   1.847   3.039 -2.0906 -0.8209 -1.2868
13044TIP3    H260548   4.872   1.985   3.103 -1.9425 -1.8387  0.9585
13045TIP3   OH260549   6.344   5.156  13.772  0.1712  0.2591  0.0220
13045TIP3    H160550   6.255   5.136  13.744  0.5833  1.5119 -2.3405
13045TIP3    H260551   6.379   5.213  13.703  2.3873  0.7878  1.5087
13046TIP3   OH260552   5.177   1.007  12.951  0.1236  0.5097 -0.0411
13046TIP3    H160553   5.110   0.938  12.946  1.5026 -0.9044  0.6218
13046TIP3    H260554   5.144   1.068  13.017 -0.8217  0.1844 -0.2001
13047TIP3   OH260555   4.136   4.457  15.194  0.2713  0.1796 -0.4901
13047TIP3    H160556   4.230   4.474  15.190  0.2923  0.0661 -0.4745
13047TIP3    H260557   4.128   4.363  15.184  0.3076 -0.1150  1.8729
13048TIP3   OH260558   0.017   0.518   1.713 -0.1264  0.0897  0.1295
13048TIP3    H160559   0.012   0.518   1.618 -0.6071 -1.7644  0.1397
13048TIP3    H260560  -0.058   0.570   1.742 -0.8146 -0.5743 -0.4682
13049TIP3   OH260561   4.708   5.738  11.972 -0.1702 -0.2164  0.2323
13049TIP3    H160562   4.763   5.696  11.906  0.2626 -0.2218  0.6012
13049TIP3    H260563   4.697   5.828  11.939 -1.0877 -0.6007 -0.5462
13050TIP3   OH260564   1.781   5.666   3.684  0.2387 -0.3783  0.3188
13050TIP3    H160565   1.769   5.575   3.659 -0.0756 -0.1555 -0.3382
13050TIP3    H260566   1.783   5.714   3.602 -2.7410  0.5968  0.7440
13051TIP3   OH260567   2.076   1.842   0.974 -0.1053 -0.2310  0.0658
13051TIP3    H160568   2.047   1.914   0.917 -0.7080 -1.0707 -0.7053
13051TIP3    H260569   2.090   1.883   1.059  1.4535  1.1889 -0.8257
13052TIP3   OH260570   4.452   5.266   2.575 -0.0773  0.1441  0.1487
13052TIP3    H160571   4.417   5.253   2.487  1.6941  1.0580 -0.7228
13052TIP3    H260572   4.419   5.192   2.626  0.9472 -1.7983 -1.9294
13053TIP3   OH260573   2.377   4.690   4.128 -0.9316  1.5633  0.3421
13053TIP3    H160574   2.295   4.736   4.110 -0.7905  2.1214  1.0690
13053TIP3    H260575   2.439   4.760   4.150 -0.3799  1.1143  0.2208
13054TIP3   OH260576   5.382   5.193  11.313  0.2834 -0.1484  0.3982
13054TIP3    H160577   5.371   5.164  11.223  0.8143 -0.8815  0.5688
13054TIP3    H260578   5.301   5.240  11.333  0.7289  1.1838 -0.8948
13055TIP3   OH260579   3.542   5.677   3.643 -0.6448  0.1335  1.1116
13055TIP3    H160580   3.526   5.585   3.618 -0.5112  0.3135  0.3398
13055TIP3    H260581   3.575   5.718   3.563 -2.4118  1.2784  0.9388
13056TIP3   OH260582   5.603   2.113  14.242  0.1625  0.0711  0.3248
13056TIP3    H160583   5.575   2.069  14.162 -1.7899 -0.5392  1.3032
13056TIP3    H260584   5.617   2.042  14.304 -2.4329  0.7139  1.7393
13057TIP3   OH260585   3.197   5.441  14.613 -0.2967  0.0413  0.2438
13057TIP3    H160586   3.218   5.415  14.523 -0.3903  1.1742 -0.1147
13057TIP3    H260587   3.184   5.536  14.608 -0.4612  0.0869  1.4236
13058TIP3   OH260588   3.835   4.823   3.825 -0.4157  0.1467  0.4147
13058TIP3    H160589   3.815   4.820   3.918 -0.3009  0.9827  0.4692
13058TIP3    H260590   3.773   4.887   3.789  0.0837  0.4380  0.0570
13059TIP3   OH260591   6.164   2.856   0.904 -0.2062  0.6727  0.2693
13059TIP3    H160592   6.191   2.930   0.957  0.8999  0.7398 -0.3702
13059TIP3    H260593   6.121   2.895   0.828 -1.5320  0.5847  0.9594
13060TIP3   OH260594   0.518   5.469   5.834 -0.2921 -0.3354 -0.3822
13060TIP3    H160595   0.561   5.405   5.889 -1.1446  1.2157  2.1818
13060TIP3    H260596   0.574   5.547   5.840 -1.9167  0.7741  0.6838
13061TIP3   OH260597   4.286   0.475   3.570 -0.2912  0.9483  0.3610
13061TIP3    H160598   4.256   0.447   3.484 -1.0905  1.3939  0.4844
13061TIP3    H260599   4.378   0.449   3.574 -0.1375  1.3097 -0.7895
13062TIP3   OH260600   6.396   2.261   3.739 -0.3815  0.3093  0.3166
13062TIP3    H160601   6.486   2.293   3.731 -0.6533  1.4612  1.6645
13062TIP3    H260602   6.347   2.334   3.776 -1.5347 -0.8274  1.1252
13063TIP3   OH260603   1.133   5.556   0.215 -0.0279  0.5742  0.1270
13063TIP3    H160604   1.102   5.631   0.164 -1.3309 -0.8161 -1.2100
13063TIP3    H260605   1.225   5.546   0.190 -0.6884 -0.1921 -2.1668
13064TIP3   OH260606   0.290   4.025   3.371  0.1769  0.3904 -0.5399
13064TIP3    H160607   0.281   4.013   3.277  1.8504  0.8903 -0.7826
13064TIP3    H260608   0.319   4.115   3.381  1.1602 -0.0196  0.3824
13065TIP3   OH260609   2.458   1.473  16.712 -0.4187  0.3992  0.4243
13065TIP3    H160610   2.537   1.517  16.680 -1.0951  0.7005 -0.8346
13065TIP3    H260611   2.468   1.383  16.682 -0.6526  0.4811  0.1100
13066TIP3   OH260612   0.120   5.169  15.135 -0.3317 -0.0581  0.2898
13066TIP3    H160613   0.131   5.080  15.102 -0.4765 -0.5496  1.5632
13066TIP3    H260614   0.030   5.192  15.112 -0.7320 -0.7440  1.1610
13067TIP3   OH260615   0.743   5.825   5.299 -0.0295  0.5183 -0.2131
13067TIP3    H160616   0.779   5.913   5.305 -0.0256  0.4265  1.4982
13067TIP3    H260617   0.812   5.768   5.333  0.0623 -0.1662 -1.5496
13068TIP3   OH260618   5.758   5.524  13.836  0.2160 -0.4113  0.6417
13068TIP3    H160619   5.756   5.604  13.784 -0.7352  0.5697  2.1401
13068TIP3    H260620   5.678   5.528  13.888  0.7572 -1.7660  1.5991
13069TIP3   OH260621   0.221   5.004  17.029 -0.2419 -0.0752  0.3955
13069TIP3    H160622   0.134   4.963  17.026 -0.2279 -0.1920  1.5458
13069TIP3    H260623   0.246   5.001  17.121  0.6935  0.5797  0.1678
13070TIP3   OH260624   2.458   0.146   1.473  0.0136 -0.3465 -0.1891
13070TIP3    H160625   2.516   0.077   1.441  1.8350  1.1174 -0.0939
13070TIP3    H260626   2.516   0.212   1.510 -1.8503 -0.0436  2.3247
13071TIP3   OH260627   3.816   2.819   0.676  0.7038  0.2839  0.5071
13071TIP3    H160628   3.845   2.854   0.592  2.1834 -0.0527  0.8741
13071TIP3    H260629   3.879   2.750   0.696 -0.0920 -0.1458  1.5277
13072TIP3   OH260630   2.083   6.755  13.104 -1.0767  0.4293 -0.0838
13072TIP3    H160631   2.096   6.846  13.078  0.2773  1.4552  3.8056
13072TIP3    H260632   1.997   6.754  13.145 -0.8296  0.1057  0.4377
13073TIP3   OH260633   2.299   6.762   0.776 -0.9161 -0.1970  0.4052
13073TIP3    H160634   2.215   6.806   0.775 -1.1600 -0.6671 -0.6969
13073TIP3    H260635   2.321   6.750   0.684  2.4461  3.8338  0.5766
13074TIP3   OH260636   0.487   6.779   4.012 -0.5818  0.3171  0.1153
13074TIP3    H160637   0.554   6.713   4.028 -1.2678  0.0246  1.8595
13074TIP3    H260638   0.528   6.862   4.038 -0.0715  0.4712 -1.1269
13075TIP3   OH260639   4.060   1.024   2.226  0.4356  0.0440  0.4745
13075TIP3    H160640   4.154   1.006   2.230  0.3353 -0.6329 -0.1822
13075TIP3    H260641   4.043   1.045   2.134 -0.3204 -1.3350  0.2818
13076TIP3   OH260642   1.459   0.491  15.562  0.5279  0.4784  0.4572
13076TIP3    H160643   1.411   0.436  15.624 -1.1216  2.5781  1.1075
13076TIP3    H260644   1.513   0.547  15.618 -1.0750  2.4780  0.0631
13077TIP3   OH260645   3.206   2.305  11.047  0.0021  0.1632 -0.7499
13077TIP3    H160646   3.163   2.372  11.100  0.1779  1.3938 -2.1426
13077TIP3    H260647   3.135   2.261  11.001 -0.1270 -0.7292  0.2818
13078TIP3   OH260648   6.643   2.449   3.874  0.5428  0.9842  0.4611
13078TIP3    H160649   6.720   2.431   3.928 -0.8253 -0.6038  1.9582
13078TIP3    H260650   6.569   2.421   3.929 -0.8907 -0.6908 -2.2250
13079TIP3   OH260651   3.731   3.166   5.143  0.1348 -0.2448 -0.3257
13079TIP3    H160652   3.714   3.250   5.185 -1.2975 -0.8281  0.2879
13079TIP3    H260653   3.819   3.141   5.173  0.7279  1.2082 -0.8346
13080TIP3   OH260654   2.974   4.046   5.668  0.1019 -0.3379 -0.3589
13080TIP3    H160655   3.034   4.062   5.741  1.4145  1.4255 -1.7814
13080TIP3    H260656   2.904   3.993   5.706  0.4093  1.1133  2.3214
13081TIP3   OH260657   4.443   4.370   1.733  0.3454  0.2132  0.6147
13081TIP3    H160658   4.409   4.384   1.644 -0.8707 -0.5713  0.9448
13081TIP3    H260659   4.448   4.274   1.741  0.6822  0.2929  1.2956
13082TIP3   OH260660   3.652   3.322   0.723 -0.4050 -0.2138 -0.0271
13082TIP3    H160661   3.748   3.324   0.729 -0.1250  0.1199 -3.6181
13082TIP3    H260662   3.623   3.377   0.795  2.2562  2.7206 -1.0822
13083TIP3   OH260663   1.683   4.126  16.712 -0.7457  0.3375 -0.3883
13083TIP3    H160664   1.757   4.165  16.758  0.0302 -0.5538 -0.8813
13083TIP3    H260665   1.620   4.198  16.703 -0.2452  0.9135  0.6519
13084TIP3   OH260666   5.470   3.605   0.263  0.5422  0.3927 -0.3252
13084TIP3    H160667   5.396   3.653   0.227  0.1960 -0.1748 -0.3719
13084TIP3    H260668   5.433   3.553   0.334  0.9420  0.3123 -0.1746
13085TIP3   OH260669   5.419   4.522   5.204 -0.4903 -0.1083  0.3532
13085TIP3    H160670   5.377   4.603   5.174 -2.9628 -1.3378  0.3604
13085TIP3    H260671   5.467   4.549   5.282 -1.8752  1.2458  0.7799
13086TIP3   OH260672   2.312   3.033  16.875  0.1436 -0.1464 -0.7414
13086TIP3    H160673   2.330   3.111  16.822 -0.0421  0.3737 -0.0496
13086TIP3    H260674   2.240   3.060  16.933  0.9129 -0.4417  0.3572
13087TIP3   OH260675   2.268   2.176   2.981  0.3031 -0.0341  0.6760
13087TIP3    H160676   2.325   2.208   3.051 -0.8354  2.1179  0.6635
13087TIP3    H260677   2.187   2.150   3.025  0.4393 -0.9401  0.4173
13088TIP3   OH260678   2.250   0.103  11.045  0.1764  0.3317  0.0956
13088TIP3    H160679   2.211   0.163  10.981 -1.2129 -0.9226 -0.2509
13088TIP3    H260680   2.328   0.070  11.001 -0.2439  0.2156 -0.5732
13089TIP3   OH260681   5.103   1.148   3.100  0.3127  0.1355  0.8607
13089TIP3    H160682   5.099   1.179   3.010  0.6262 -1.2856  0.3464
13089TIP3    H260683   5.100   1.227   3.153  0.5693  1.0023 -0.4097
13090TIP3   OH260684   5.893   2.284   0.753 -0.2737  0.3036  0.2316
13090TIP3    H160685   5.975   2.244   0.781 -0.8258  0.0206  1.4878
13090TIP3    H260686   5.919   2.364   0.708  0.8676 -1.4211 -2.3062
13091TIP3   OH260687   5.507   2.002  12.145 -0.1833  0.2733 -0.1321
13091TIP3    H160688   5.524   1.908  12.132 -0.0246  0.4718 -1.3854
13091TIP3    H260689   5.441   2.024  12.079 -0.3265  1.0164  0.2527
13092TIP3   OH260690   3.109   6.334   5.116  0.0950 -0.2378  0.2221
13092TIP3    H160691   3.191   6.303   5.079  1.5428  1.0755  2.2561
13092TIP3    H260692   3.115   6.315   5.209 -0.3310  3.0607  1.0063
13093TIP3   OH260693   4.746   1.759   4.483  0.1459  0.1701 -0.5096
13093TIP3    H160694   4.716   1.695   4.549 -0.4628  1.2076  0.2284
13093TIP3    H260695   4.721   1.844   4.519  3.5624  1.0660 -0.0725
13094TIP3   OH260696   0.046   4.396  12.791  0.3854  0.1948  0.1227
13094TIP3    H160697   0.141   4.386  12.796  0.9269  3.7279 -1.5341
13094TIP3    H260698   0.020   4.340  12.717  1.0648 -1.1438  0.8686
13095TIP3   OH260699   5.805   3.630   6.034 -0.1500  0.5319 -0.0686
13095TIP3    H160700   5.731   3.650   5.977  0.6403 -0.0551 -1.3144
13095TIP3    H260701   5.782   3.670   6.118 -1.1974  1.6537 -0.8716
13096TIP3   OH260702   1.362   6.472  11.475  0.3871 -0.4242  0.7640
13096TIP3    H160703   1.290   6.413  11.496 -0.2652  0.1537  0.1603
13096TIP3    H260704   1.388   6.509  11.560 -0.2857 -0.3345  0.9328
13097TIP3   OH260705   2.110   2.396  10.642  0.1805  0.2434  0.4502
13097TIP3    H160706   2.129   2.469  10.702  0.9505  1.1039 -0.8181
13097TIP3    H260707   2.059   2.435  10.571 -2.4751 -1.1700  1.5158
13098TIP3   OH260708   3.556   1.013  15.425 -0.5691  0.3410  0.3112
13098TIP3    H160709   3.571   1.082  15.360 -0.4932  1.0633  1.0849
13098TIP3    H260710   3.526   0.937  15.374  1.2571  0.3244 -0.7578
13099TIP3   OH260711   3.266   4.140   3.588 -0.0883 -0.6392  0.2410
13099TIP3    H160712   3.211   4.161   3.663  0.2218  0.4299  0.1797
13099TIP3    H260713   3.235   4.198   3.519  0.4139 -0.7801 -0.1020
13100TIP3   OH260714   6.690   6.719   4.018  0.1265  0.5328 -0.7459
13100TIP3    H160715   6.779   6.753   4.008  0.6524 -0.6493 -0.2104
13100TIP3    H260716   6.639   6.767   3.953  0.6435  2.9460  0.5630
13101TIP3   OH260717   2.955   6.115   2.990  0.5103  0.7816  1.1093
13101TIP3    H160718   3.029   6.176   2.994 -0.2644  1.7304  1.0411
13101TIP3    H260719   2.883   6.166   2.953 -0.1243 -0.1967  0.9684
13102TIP3   OH260720   0.951   2.732  14.980 -0.2291 -0.1535 -0.3585
13102TIP3    H160721   1.005   2.693  14.911 -0.4906  0.7806 -1.1005
13102TIP3    H260722   0.861   2.726  14.946 -0.3431  0.4215 -0.1604
13103TIP3   OH260723   4.934   2.832  11.430 -0.2804  0.3485 -0.3722
13103TIP3    H160724   4.855   2.847  11.378 -0.2451  3.3904  0.3549
13103TIP3    H260725   4.903   2.791  11.511 -1.0478  1.1015 -0.2865
13104TIP3   OH260726   6.234   5.159   4.424 -0.1352  0.2079 -0.4358
13104TIP3    H160727   6.203   5.235   4.375  0.6350  1.0616  0.3839
13104TIP3    H260728   6.271   5.195   4.504  2.3510 -0.8593 -1.0563
13105TIP3   OH260729   4.190   1.413  15.920  0.2814 -0.0246  0.5131
13105TIP3    H160730   4.222   1.366  15.997  0.2374  0.4827  0.8473
13105TIP3    H260731   4.269   1.449  15.880  0.3182 -0.4135  0.2397
13106TIP3   OH260732   0.589   1.820   1.539 -0.4298 -0.1029 -0.3637
13106TIP3    H160733   0.545   1.772   1.469  0.1557  1.2382 -1.6683
13106TIP3    H260734   0.523   1.881   1.572 -0.5413 -0.3625 -0.1040
13107TIP3   OH260735   0.897   6.514   0.142 -0.6188 -0.8136 -0.0569
13107TIP3    H160736   0.989   6.518   0.116 -0.6238  1.7133  0.2731
13107TIP3    H260737   0.849   6.516   0.059 -0.4652  1.4169 -0.1050
13108TIP3   OH260738   1.365   3.912   0.369 -0.4242 -0.0408 -0.2896
13108TIP3    H160739   1.309   3.839   0.345 -1.2579  0.5947 -0.2767
13108TIP3    H260740   1.385   3.956   0.286  1.5913 -1.3458 -0.5410
13109TIP3   OH260741   1.074   3.248   0.605  0.4756 -0.8943 -0.5348
13109TIP3    H160742   1.094   3.321   0.664  0.2124 -2.0272  0.9845
13109TIP3    H260743   1.134   3.179   0.632 -1.8578 -2.5482  0.6186
13110TIP3   OH260744   0.009   0.572   0.753  0.7620 -0.1732  0.1831
13110TIP3    H160745  -0.064   0.531   0.800 -0.9356  0.9195 -1.4414
13110TIP3    H260746   0.043   0.503   0.696 -0.4551 -0.0526 -0.6971
13111TIP3   OH260747   6.498   5.737  16.995  0.0304 -0.0582  0.3516
13111TIP3    H160748   6.565   5.682  16.956  0.0157  0.3670 -0.2800
13111TIP3    H260749   6.416   5.689  16.983  0.1186 -0.2415  0.4789
13112TIP3   OH260750   2.511   1.786  15.288  0.2437  0.7141 -0.1731
13112TIP3    H160751   2.450   1.735  15.340  0.2543 -1.1026 -1.8842
13112TIP3    H260752   2.597   1.753  15.312  0.4946  2.1864  1.0713
13113TIP3   OH260753   3.411   1.304  13.552 -0.0701  0.2043  0.3031
13113TIP3    H160754   3.403   1.247  13.475 -0.3082 -0.0003  0.4789
13113TIP3    H260755   3.486   1.268  13.599  0.1431  0.3955  0.1125
13114TIP3   OH260756   0.582   4.217  16.857  0.3439 -0.0594  0.2155
13114TIP3    H160757   0.603   4.310  16.864 -2.8802  0.7207  0.4064
13114TIP3    H260758   0.621   4.189  16.775  0.3878  1.7649 -0.3938
13115TIP3   OH260759   6.053   2.517  13.935  0.1086 -0.0745  0.2473
13115TIP3    H160760   6.022   2.584  13.874 -1.0203  0.3927  1.3106
13115TIP3    H260761   5.973   2.472  13.964  0.7491 -1.1302  0.4171
13116TIP3   OH260762   2.021   0.016  12.281  0.6836 -0.0874 -0.0803
13116TIP3    H160763   2.116   0.018  12.268  0.8333  0.4286  1.0224
13116TIP3    H260764   2.009   0.030  12.375 -0.4663 -0.7093 -0.1204
13117TIP3   OH260765   4.792   1.264  11.838 -0.8580  0.4007  0.2598
13117TIP3    H160766   4.706   1.223  11.828 -0.2818 -1.0781  1.2295
13117TIP3    H260767   4.812   1.298  11.751 -1.1141 -1.8817 -0.7335
13118TIP3   OH260768   0.660   2.275   0.873 -0.1345 -0.1888  0.3747
13118TIP3    H160769   0.657   2.265   0.778 -0.8872  0.2605  0.3502
13118TIP3    H260770   0.621   2.361   0.889  1.1887  0.3144  0.9859
13119TIP3   OH260771   1.954   0.754   0.145  0.2267 -0.3430  0.3475
13119TIP3    H160772   2.027   0.815   0.143 -0.1059  0.0763  0.7209
13119TIP3    H260773   1.912   0.770   0.230  1.0373 -2.1585  1.1337
13120TIP3   OH260774   2.407   0.035   5.164 -0.0679 -0.3053 -0.6020
13120TIP3    H160775   2.379   0.115   5.209  0.8333  0.3948 -1.2440
13120TIP3    H260776   2.420   0.064   5.073  2.4983 -0.6560 -0.3608
13121TIP3   OH260777   6.522   5.319   4.402  0.2179 -0.4304  0.0526
13121TIP3    H160778   6.452   5.293   4.462  1.0397 -0.9603  0.7883
13121TIP3    H260779   6.581   5.372   4.456  0.9606 -0.9063 -0.2885
13122TIP3   OH260780   0.990   6.655   6.545  0.2019 -0.1351 -0.2373
13122TIP3    H160781   0.946   6.722   6.492  0.0916 -0.1148 -0.1199
13122TIP3    H260782   0.955   6.572   6.511  0.2321 -0.1272 -0.2868
13123TIP3   OH260783   5.102   1.292  15.611  0.1239 -0.0934 -0.4572
13123TIP3    H160784   5.192   1.295  15.579 -0.3629 -0.2985 -1.8691
13123TIP3    H260785   5.078   1.384  15.623  0.4494 -0.0331 -0.2603
13124TIP3   OH260786   2.522   5.987  12.993 -0.3680 -0.2801  0.4350
13124TIP3    H160787   2.447   5.927  12.994  0.2459 -1.0444  2.8052
13124TIP3    H260788   2.483   6.074  12.996 -1.1867 -0.6259  0.0065
13125TIP3   OH260789   2.075   0.289   6.911  0.5977 -0.3692 -0.2347
13125TIP3    H160790   2.024   0.347   6.855  0.1816 -1.2203 -0.7530
13125TIP3    H260791   2.101   0.217   6.853  0.0958 -1.3054  0.6762
13126TIP3   OH260792   0.661   6.160   4.539 -0.1934  0.0464  0.8640
13126TIP3    H160793   0.643   6.171   4.445 -0.1017 -0.2318  0.8120
13126TIP3    H260794   0.753   6.185   4.548 -0.7790  2.1554  1.2513
13127TIP3   OH260795   3.652   3.237  16.740 -0.1647 -0.6278 -0.2090
13127TIP3    H160796   3.684   3.229  16.650 -0.5666 -0.3433 -0.3807
13127TIP3    H260797   3.731   3.249  16.793  0.0564 -0.5789 -0.5477
13128TIP3   OH260798   1.065   5.618  14.285 -0.0013  0.8618 -0.2360
13128TIP3    H160799   1.020   5.702  14.292  0.4701  0.9865  1.5268
13128TIP3    H260800   1.128   5.618  14.358  1.0504 -0.3871 -1.1174
13129TIP3   OH260801   2.895   2.036  16.283 -0.1243 -0.1571  0.5318
13129TIP3    H160802   2.906   1.942  16.269 -0.4269 -0.1027 -0.0863
13129TIP3    H260803   2.862   2.044  16.372 -1.9760 -0.7464 -0.0931
13130TIP3   OH260804   6.665   1.751  10.300  0.5408 -0.2216  0.0336
13130TIP3    H160805   6.643   1.831  10.347  1.5059  0.5331 -0.7727
13130TIP3    H260806   6.582   1.720  10.264 -0.1692 -0.6634  1.9763
13131TIP3   OH260807   0.615   1.466   1.082 -0.1183  0.0860  0.1119
13131TIP3    H160808   0.566   1.385   1.067  0.3324 -0.6120  2.2462
13131TIP3    H260809   0.707   1.440   1.074  0.0151  0.5066  0.2705
13132TIP3   OH260810   4.936   6.607  11.658  0.0618  0.3852  0.3875
13132TIP3    H160811   4.964   6.518  11.680  0.4231  0.5320  0.5282
13132TIP3    H260812   5.010   6.643  11.609  0.3491  0.9655  1.2377
13133TIP3   OH260813   3.380   1.324   3.472 -0.1483 -0.2226  0.0178
13133TIP3    H160814   3.322   1.377   3.418 -0.6804 -0.4450  0.3657
13133TIP3    H260815   3.368   1.234   3.440  0.3737 -0.2035 -0.2373
13134TIP3   OH260816   5.743   5.641  15.716 -0.7676  0.7280  0.0954
13134TIP3    H160817   5.709   5.730  15.711  0.2073  0.9738 -2.8311
13134TIP3    H260818   5.832   5.647  15.682 -0.2518 -1.1564  1.0410
13135TIP3   OH260819   6.761   3.649  12.322  0.2618 -0.2935 -0.5731
13135TIP3    H160820   6.751   3.744  12.314  1.4390 -0.2816 -2.0786
13135TIP3    H260821   6.813   3.624  12.246 -1.2463 -2.3456 -0.9713
13136TIP3   OH260822   0.952   0.301   3.510  0.2032 -0.1489 -0.7969
13136TIP3    H160823   1.017   0.281   3.578 -1.4824 -1.6307  0.4255
13136TIP3    H260824   0.934   0.217   3.469 -0.7693  0.2950 -1.2888
13137TIP3   OH260825   2.867   6.488  14.668 -0.2446 -0.8295 -0.0506
13137TIP3    H160826   2.822   6.434  14.733  2.1415 -1.9293  0.7555
13137TIP3    H260827   2.804   6.556  14.645 -1.9404 -1.7522  1.7357
13138TIP3   OH260828   0.530   1.243   1.299  0.4410 -0.3138  0.0405
13138TIP3    H160829   0.625   1.235   1.288  0.5826 -1.7342  2.2303
13138TIP3    H260830   0.494   1.203   1.220  1.6125 -2.4460  0.5670
13139TIP3   OH260831   6.443   2.428  17.129  0.3837 -0.3440  0.2705
13139TIP3    H160832   6.380   2.500  17.141 -0.7942 -1.2719 -0.2726
13139TIP3    H260833   6.506   2.463  17.066  0.3803  0.5708  0.7564
13140TIP3   OH260834   2.436   4.985   3.025  0.3591  0.2518 -0.1740
13140TIP3    H160835   2.428   4.902   3.073 -2.8929  0.4456 -0.2736
13140TIP3    H260836   2.504   5.033   3.072  1.6064 -2.0590  0.4877
13141TIP3   OH260837   6.490   2.763   1.340  0.1149 -0.2229 -0.3074
13141TIP3    H160838   6.569   2.790   1.387 -0.1759 -0.5624  0.3794
13141TIP3    H260839   6.521   2.740   1.252  0.7239 -0.0108 -0.1489
13142TIP3   OH260840   5.265   2.163  16.837 -0.2072 -0.5151 -0.5227
13142TIP3    H160841   5.277   2.224  16.764 -1.3219 -0.4858 -0.7011
13142TIP3    H260842   5.298   2.210  16.913 -0.3383  0.0176 -0.7853
13143TIP3   OH260843   1.075   3.969  11.461  0.0516 -0.1845 -0.0468
13143TIP3    H160844   1.070   4.045  11.519  1.5548 -1.0020  1.1697
13143TIP3    H260845   1.025   3.996  11.383 -1.3403  1.1955  1.2817
13144TIP3   OH260846   3.770   0.978  11.842 -0.2882  0.1634 -0.2515
13144TIP3    H160847   3.691   1.028  11.866 -1.0738 -0.0450 -2.2572
13144TIP3    H260848   3.745   0.887  11.855  0.4457  0.1937  1.4177
13145TIP3   OH260849   0.206   3.651   4.583 -0.4134  0.6685  0.0094
13145TIP3    H160850   0.177   3.661   4.674  0.5782 -0.3288  0.4499
13145TIP3    H260851   0.130   3.674   4.530 -1.6514 -0.8550  1.1114
13146TIP3   OH260852   4.000   4.196   2.826  0.7697 -0.0074 -0.1753
13146TIP3    H160853   3.988   4.291   2.824  0.6993  0.0045  0.5812
13146TIP3    H260854   4.073   4.183   2.887 -1.3736 -0.6431  2.3232
13147TIP3   OH260855   0.440   2.858  14.729 -0.1776 -0.4297  0.2584
13147TIP3    H160856   0.450   2.790  14.662  4.2190 -1.3105  1.6528
13147TIP3    H260857   0.504   2.925  14.704 -0.3649  0.4650  2.1165
13148TIP3   OH260858   1.092   1.328  13.124  0.3984 -0.2719  0.6499
13148TIP3    H160859   1.170   1.376  13.098 -1.0852  1.0254 -1.5724
13148TIP3    H260860   1.121   1.237  13.131  1.9770  0.0920 -0.8098
13149TIP3   OH260861   5.202   0.400  12.813  0.1782 -0.1481 -0.0242
13149TIP3    H160862   5.176   0.385  12.722  1.9867  0.2623 -0.6265
13149TIP3    H260863   5.183   0.492  12.828  0.5250 -0.0401 -0.2235
13150TIP3   OH260864   4.339   2.433   5.615 -0.1088  0.1312  0.0867
13150TIP3    H160865   4.417   2.405   5.663 -0.8549 -3.6216 -0.7271
13150TIP3    H260866   4.369   2.445   5.525 -0.0488  0.7481  0.1874
13151TIP3   OH260867   4.456   2.724  16.312  0.5794 -0.6019  0.6840
13151TIP3    H160868   4.389   2.702  16.247  1.5015 -1.1787 -0.0851
13151TIP3    H260869   4.424   2.687  16.394 -0.6525  0.2365  0.5972
13152TIP3   OH260870   6.114   2.814   4.683  1.1104  0.0662  0.1907
13152TIP3    H160871   6.027   2.827   4.646  1.1700 -0.5647 -0.1661
13152TIP3    H260872   6.097   2.780   4.771  0.9932  0.5417  0.3580
13153TIP3   OH260873   5.269   5.264  12.336 -0.0663  0.4836  0.3034
13153TIP3    H160874   5.222   5.185  12.310 -1.3708  1.0482  0.9143
13153TIP3    H260875   5.323   5.286  12.260  2.1810 -2.3592  0.9940
13154TIP3   OH260876   1.804   2.935   3.023 -0.4141  0.5514 -0.2983
13154TIP3    H160877   1.774   3.009   3.077  2.0435  1.9473 -0.8027
13154TIP3    H260878   1.899   2.934   3.035 -0.2220 -1.2921 -1.9034
13155TIP3   OH260879   0.437   5.742   1.140  0.5727 -0.6685 -0.1126
13155TIP3    H160880   0.480   5.696   1.212  1.5781 -1.3581 -1.1330
13155TIP3    H260881   0.495   5.815   1.119 -0.4870  0.4667  0.7828
13156TIP3   OH260882   3.400   2.199  12.065 -0.3464 -0.3325  0.0910
13156TIP3    H160883   3.433   2.256  12.134 -1.4423 -0.6327  0.8648
13156TIP3    H260884   3.306   2.215  12.063 -0.5455 -1.5029 -0.2433
13157TIP3   OH260885   0.454   2.647  15.156 -0.4166  0.4694  0.4554
13157TIP3    H160886   0.380   2.642  15.217 -1.3945 -0.6919 -0.7879
13157TIP3    H260887   0.438   2.727  15.106 -0.1256  0.9128  1.0640
13158TIP3   OH260888   6.320   5.470  12.325  0.5541 -0.1936 -0.6738
13158TIP3    H160889   6.319   5.495  12.233 -1.1218 -0.1469 -0.6658
13158TIP3    H260890   6.230   5.483  12.354  1.3574  1.0975  1.3380
13159TIP3   OH260891   3.968   0.574  11.271 -0.1213 -0.5514 -0.4354
13159TIP3    H160892   3.874   0.560  11.262 -0.4620  0.7157  1.1239
13159TIP3    H260893   3.978   0.630  11.347  1.8405  0.1566 -1.1630
13160TIP3   OH260894   2.140   4.645  14.694 -0.5165 -0.0529 -0.4501
13160TIP3    H160895   2.147   4.553  14.722 -1.6793 -0.1900 -0.5762
13160TIP3    H260896   2.090   4.688  14.764 -1.3408  0.1280 -1.1346
13161TIP3   OH260897   3.773   6.232  14.263  0.6791 -0.1694 -0.6514
13161TIP3    H160898   3.698   6.180  14.290  1.3352 -0.2161  1.1495
13161TIP3    H260899   3.758   6.251  14.171 -2.0791  0.7238 -0.0448
13162TIP3   OH260900   2.466   6.312  12.148 -0.4366  0.4925 -0.1265
13162TIP3    H160901   2.384   6.361  12.158 -0.5154  0.2144  0.6244
13162TIP3    H260902   2.520   6.339  12.222 -1.1215 -1.7779  1.2522
13163TIP3   OH260903   2.030   3.004  15.317 -0.0803  0.1583 -0.2266
13163TIP3    H160904   2.040   3.092  15.279 -0.0451  1.1061  1.9088
13163TIP3    H260905   2.119   2.970  15.320  0.0708  0.5822  0.1670
13164TIP3   OH260906   0.582   1.639  16.178 -0.4743 -0.5062 -0.6878
13164TIP3    H160907   0.663   1.677  16.213 -0.3210 -1.0494 -0.4447
13164TIP3    H260908   0.574   1.677  16.091 -0.2063 -0.0850 -0.5313
13165TIP3   OH260909   0.132   4.846  14.517 -0.5635 -0.2157  0.1907
13165TIP3    H160910   0.158   4.854  14.425 -0.5030  1.4934  0.3360
13165TIP3    H260911   0.210   4.815  14.562 -0.8771 -2.0136 -0.4782
13166TIP3   OH260912   4.940   2.993   1.116 -0.7648  0.3898  0.3381
13166TIP3    H160913   5.026   2.961   1.090 -0.9590 -0.1877  0.4144
13166TIP3    H260914   4.895   3.012   1.033 -0.3893  1.1654  0.3050
13167TIP3   OH260915   3.649   6.318  16.914  0.4343  0.2179 -0.2598
13167TIP3    H160916   3.591   6.390  16.938 -2.3149 -1.4064 -1.7585
13167TIP3    H260917   3.705   6.355  16.846  0.3574  1.4679  0.3274
13168TIP3   OH260918   3.367   3.978   4.061  0.1089 -0.4457  0.3974
13168TIP3    H160919   3.423   3.984   4.138 -2.2753  1.1329  2.1007
13168TIP3    H260920   3.394   3.897   4.017  3.7543  0.3556  1.0384
13169TIP3   OH260921   1.801   1.059  11.037 -0.3749  0.1986 -0.2132
13169TIP3    H160922   1.854   1.082  10.961  0.2461 -1.9166 -0.4390
13169TIP3    H260923   1.712   1.051  11.002 -0.0135 -1.2691 -0.8478
13170TIP3   OH260924   1.946   2.063  13.967  0.0458 -0.1339 -0.1485
13170TIP3    H160925   1.893   1.986  13.989 -1.4018  0.8967  0.0453
13170TIP3    H260926   1.894   2.137  13.996  0.9222  0.9793 -1.3574
13171TIP3   OH260927   5.256   5.711   4.427 -1.2941  0.3842 -0.0877
13171TIP3    H160928   5.321   5.692   4.359 -1.1522 -0.3634  0.2609
13171TIP3    H260929   5.304   5.758   4.495 -1.7267  2.3936 -1.1260
13172TIP3   OH260930   4.091   4.960  12.506 -0.6353  0.1267 -0.3266
13172TIP3    H160931   4.122   5.048  12.484 -2.2972  0.7918 -0.1040
13172TIP3    H260932   4.118   4.906  12.433  0.2241  0.8730 -0.5656
13173TIP3   OH260933   4.043   2.994   1.832  0.0316 -0.8175  0.2938
13173TIP3    H160934   4.009   2.993   1.921  0.7593  1.5854  0.6488
13173TIP3    H260935   4.000   3.069   1.791  3.1898  0.9734  0.1124
13174TIP3   OH260936   3.706   1.949   5.443 -0.2256 -0.4583 -0.0536
13174TIP3    H160937   3.748   1.884   5.386  1.4296  1.2611 -0.8738
13174TIP3    H260938   3.764   2.026   5.438 -1.2162  0.4840  2.2361
13175TIP3   OH260939   1.387   0.274  17.218  0.4286  0.5041  0.0177
13175TIP3    H160940   1.303   0.320  17.215 -0.7005 -1.4756  0.0718
13175TIP3    H260941   1.416   0.281  17.309 -0.0737  0.5251  0.1760
13176TIP3   OH260942   5.251   5.491   0.591  0.4052 -0.5583  0.2563
13176TIP3    H160943   5.312   5.419   0.604 -0.5230 -1.5419 -0.6278
13176TIP3    H260944   5.177   5.451   0.544 -0.8145  0.6373  1.1166
13177TIP3   OH260945   4.452   2.654   2.621  0.2685 -0.1387  0.5014
13177TIP3    H160946   4.472   2.623   2.532 -1.0186 -0.4856  0.3140
13177TIP3    H260947   4.499   2.737   2.629  1.0902 -0.5363 -0.1967
13178TIP3   OH260948   6.135   1.173  12.323 -0.1071 -0.3543 -0.3514
13178TIP3    H160949   6.192   1.245  12.295 -0.2461 -0.7871 -1.7842
13178TIP3    H260950   6.093   1.143  12.242 -0.6423 -1.5269  0.3518
13179TIP3   OH260951   4.067   5.666  12.413  0.3640  0.4826 -0.3566
13179TIP3    H160952   4.149   5.654  12.460  2.1710  3.0819 -2.6642
13179TIP3    H260953   4.054   5.584  12.366  0.0821 -1.0246  2.2806
13180TIP3   OH260954   3.767   5.865  16.024  0.3523  0.0921  0.3755
13180TIP3    H160955   3.769   5.930  15.954 -3.0516  0.9303  0.9496
13180TIP3    H260956   3.825   5.900  16.092  2.9561 -0.2897 -1.5785
13181TIP3   OH260957   4.259   5.289   5.535  0.4533 -0.6522  0.5689
13181TIP3    H160958   4.289   5.378   5.555 -0.5206 -0.3341  0.6094
13181TIP3    H260959   4.293   5.271   5.448  1.3891 -0.5691  0.9077
13182TIP3   OH260960   3.200   6.231   2.995 -0.2587 -0.3112  0.3116
13182TIP3    H160961   3.266   6.281   3.043 -1.1578  1.5227 -0.3024
13182TIP3    H260962   3.244   6.150   2.971  1.1367  0.0282  1.6248
13183TIP3   OH260963   2.348   4.538  12.112  0.1870 -0.0834  0.3282
13183TIP3    H160964   2.268   4.582  12.082 -0.0440  0.1956  1.3477
13183TIP3    H260965   2.333   4.521  12.205  0.7499 -1.2837  0.2057
13184TIP3   OH260966   6.363   0.929   1.737 -0.2818 -0.3382  0.2321
13184TIP3    H160967   6.421   0.997   1.770  0.7297 -0.6964 -0.7573
13184TIP3    H260968   6.275   0.965   1.746  0.3812  2.3030 -2.8995
13185TIP3   OH260969   3.208   4.343   5.723  0.3432 -0.0008  0.0715
13185TIP3    H160970   3.149   4.407   5.684 -0.1165  1.1603  2.5888
13185TIP3    H260971   3.268   4.319   5.652  0.0731  2.6757 -1.1028
13186TIP3   OH260972   3.095   2.323  16.492  0.1493  0.1231  0.4478
13186TIP3    H160973   3.004   2.293  16.497  0.3830 -1.0451 -2.1142
13186TIP3    H260974   3.146   2.248  16.523  0.3831 -0.0253 -0.3077
13187TIP3   OH260975   3.892   0.942  12.724 -0.0775  0.7112  0.2127
13187TIP3    H160976   3.915   0.963  12.633 -0.7764 -1.2575 -0.4342
13187TIP3    H260977   3.922   0.852  12.736  1.5231  1.4978  2.4844
13188TIP3   OH260978   0.685   3.255   5.453 -0.2201  0.1554  0.4235
13188TIP3    H160979   0.727   3.260   5.368  0.1391 -2.6825  0.3849
13188TIP3    H260980   0.627   3.331   5.456 -0.0670  0.4099 -2.2464
13189TIP3   OH260981   1.302   2.427   1.088 -0.2815  0.1924  0.2474
13189TIP3    H160982   1.323   2.366   1.159  0.9270 -1.3715 -1.4127
13189TIP3    H260983   1.245   2.492   1.129  0.6782 -0.4583  2.7461
13190TIP3   OH260984   1.302   2.762  12.287 -0.1335 -0.2522  0.0723
13190TIP3    H160985   1.218   2.715  12.295 -1.8522  2.7045  0.0011
13190TIP3    H260986   1.324   2.755  12.194 -1.5143  0.9638 -0.3563
13191TIP3   OH260987   1.068   0.962   3.774  0.1786 -0.2342  0.1129
13191TIP3    H160988   1.064   0.985   3.867 -0.1141  1.1272 -0.2347
13191TIP3    H260989   0.996   1.011   3.734  0.6017 -0.4456 -0.9069
13192TIP3   OH260990   3.504   0.426   1.175  0.3865  0.4594  0.2532
13192TIP3    H160991   3.593   0.450   1.150  0.4913  0.9195  1.0555
13192TIP3    H260992   3.452   0.506   1.160  0.3313  0.5456  0.9149
13193TIP3   OH260993   5.272   6.677   4.100  0.5061 -0.0782 -0.7309
13193TIP3    H160994   5.196   6.714   4.054 -0.6637 -0.7192  0.6384
13193TIP3    H260995   5.268   6.583   4.079  0.1721 -0.3158  0.3959
13194TIP3   OH260996   0.486   1.886   5.770  0.8521 -1.1186 -0.8982
13194TIP3    H160997   0.494   1.966   5.821  0.7229 -0.7288 -1.4770
13194TIP3    H260998   0.523   1.909   5.684  0.1455 -1.4579 -1.2968
13195TIP3   OH260999   5.760   4.027   1.611  0.4194  0.1494  0.0101
13195TIP3    H161000   5.852   4.050   1.599  0.4674 -0.7585 -1.5503
13195TIP3    H261001   5.754   3.999   1.702  1.9744 -1.0232 -0.2244
13196TIP3   OH261002   1.302   6.081  12.566  0.3336 -0.0751 -0.3152
13196TIP3    H161003   1.207   6.085  12.551  0.1583  1.2198  0.9981
13196TIP3    H261004   1.314   6.004  12.621  0.3077 -1.4474 -2.1737
13197TIP3   OH261005   1.450   4.115   4.719 -0.3632 -0.3801  0.2665
13197TIP3    H161006   1.442   4.070   4.803  0.3264  2.1573  1.7449
13197TIP3    H261007   1.418   4.052   4.654 -3.3566 -1.4669  2.6995
13198TIP3   OH261008   2.021   5.614   6.164 -0.9268 -0.3909 -0.1737
13198TIP3    H161009   1.991   5.658   6.244 -2.4791 -0.5619 -0.6668
13198TIP3    H261010   2.032   5.523   6.190  1.9638  0.1426  0.7571
13199TIP3   OH261011   2.943   0.013   1.733 -0.2610 -0.6513 -0.1039
13199TIP3    H161012   2.923  -0.038   1.654 -1.4178  0.3648 -0.4740
13199TIP3    H261013   3.025   0.058   1.712 -0.3074 -0.7646 -0.5307
13200TIP3   OH261014   3.370   3.529   3.893  0.4698 -0.2991 -0.0320
13200TIP3    H161015   3.285   3.508   3.932  0.3753 -0.0201 -0.0876
13200TIP3    H261016   3.376   3.472   3.816  0.5885 -0.7376  0.2970
13201TIP3   OH261017   5.153   3.936  13.422 -0.3907 -0.3188  0.0322
13201TIP3    H161018   5.127   3.852  13.384  1.0521 -0.7172 -0.0921
13201TIP3    H261019   5.175   3.990  13.346 -1.7629  0.3358  0.0871
13202TIP3   OH261020   5.454   1.083   2.017  0.1760  0.7882  0.1634
13202TIP3    H161021   5.525   1.050   1.962  0.2253  0.7804  0.2326
13202TIP3    H261022   5.474   1.049   2.105 -0.4103 -0.0011  0.0014
13203TIP3   OH261023   4.272   1.605  13.604 -0.0306 -0.2186  0.4758
13203TIP3    H161024   4.235   1.580  13.520 -2.0056  1.3469  0.8327
13203TIP3    H261025   4.280   1.701  13.599 -1.8555  0.1055  2.6577
13204TIP3   OH261026   3.786   4.617   2.707  0.4523  0.4267  0.3554
13204TIP3    H161027   3.870   4.597   2.748 -0.1637 -0.9044  1.0109
13204TIP3    H261028   3.766   4.539   2.654  0.6019  1.5756 -1.4473
13205TIP3   OH261029   0.933   0.863  12.791  0.3715  0.4229 -0.0900
13205TIP3    H161030   0.941   0.824  12.704 -0.0750 -0.8080  0.4140
13205TIP3    H261031   0.840   0.878  12.802  0.1701 -1.5455  1.0801
13206TIP3   OH261032   2.762   6.350   2.305 -0.3286 -0.3228  0.2223
13206TIP3    H161033   2.692   6.381   2.363 -1.9391 -2.0126 -0.7617
13206TIP3    H261034   2.803   6.430   2.272 -1.4553  0.6955  1.2161
13207TIP3   OH261035   0.099   0.851  16.583 -0.0611  0.4939  0.2211
13207TIP3    H161036   0.026   0.905  16.552 -2.3072 -1.6396  1.6462
13207TIP3    H261037   0.087   0.766  16.541  0.8242 -0.3024  1.5284
13208TIP3   OH261038   6.092   5.187   5.757  0.4370  0.5046 -0.0717
13208TIP3    H161039   6.157   5.178   5.828  0.4544  1.5857  0.0515
13208TIP3    H261040   6.060   5.277   5.765 -1.6925 -0.2508  0.3918
13209TIP3   OH261041   1.372   5.879   2.124  0.0451  0.3907 -0.1648
13209TIP3    H161042   1.277   5.878   2.133  0.0640 -0.1963 -0.0276
13209TIP3    H261043   1.399   5.960   2.168 -0.4652  1.0333 -1.0083
13210TIP3   OH261044   2.578   0.261  12.854  0.4188 -0.2673  0.3746
13210TIP3    H161045   2.601   0.229  12.942  4.2474  1.2515  0.0482
13210TIP3    H261046   2.626   0.203  12.794 -0.1369  0.2763 -0.5990
13211TIP3   OH261047   0.296   3.498   5.235  0.2598 -0.5084 -0.6681
13211TIP3    H161048   0.211   3.453   5.231  0.6302 -1.0222 -3.0428
13211TIP3    H261049   0.273   3.591   5.239 -0.4321 -0.6803 -0.4902
13212TIP3   OH261050   3.881   3.947   5.632  0.5791  0.3375 -0.2796
13212TIP3    H161051   3.834   3.894   5.568 -0.2864  0.5196  0.2006
13212TIP3    H261052   3.887   3.891   5.710  1.0279  0.3719 -0.2882
13213TIP3   OH261053   2.650   6.149   4.667 -1.0664  0.1714 -0.2200
13213TIP3    H161054   2.595   6.206   4.720 -1.2705 -0.8757  0.7159
13213TIP3    H261055   2.589   6.105   4.607 -1.3991 -1.5532  1.3221
13214TIP3   OH261056   5.782   6.262   2.892  0.1729  0.1863  0.0111
13214TIP3    H161057   5.708   6.226   2.844  0.4301  0.1404 -0.3520
13214TIP3    H261058   5.802   6.196   2.958  1.1638 -0.7290 -1.1810
13215TIP3   OH261059   0.484   4.358   2.350  0.0745 -0.2476 -0.4592
13215TIP3    H161060   0.442   4.320   2.274 -0.8900  1.1510 -0.6532
13215TIP3    H261061   0.576   4.364   2.326  0.1461 -1.9302 -0.6221
13216TIP3   OH261062   4.020   4.970  16.627 -0.4991 -0.2604 -0.0548
13216TIP3    H161063   4.044   4.881  16.653  1.2855 -0.4141 -2.0901
13216TIP3    H261064   4.026   5.021  16.708 -0.9072 -1.8366  0.9999
13217TIP3   OH261065   3.970   1.851  10.405  0.8423  1.3409 -0.7952
13217TIP3    H161066   4.024   1.930  10.403  1.7036  0.7915  0.4494
13217TIP3    H261067   4.003   1.800  10.479 -0.1331  0.1099 -1.1768
13218TIP3   OH261068   4.903   5.038   1.349  0.3472  0.0620 -0.0889
13218TIP3    H161069   4.926   4.984   1.274  2.2608  1.4888 -0.5651
13218TIP3    H261070   4.857   5.113   1.311 -1.0189 -0.4887  0.4347
13219TIP3   OH261071   5.842   5.161   5.883  0.3138  0.0418 -0.2813
13219TIP3    H161072   5.931   5.158   5.847  0.1450 -2.0902 -0.5527
13219TIP3    H261073   5.787   5.119   5.817 -1.0223  1.8735 -0.3845
13220TIP3   OH261074   0.290   6.507   5.384 -0.6873  0.3550 -0.0048
13220TIP3    H161075   0.350   6.567   5.428  0.0902  0.0810 -0.6589
13220TIP3    H261076   0.221   6.489   5.448  0.8456 -0.6979  1.4007
13221TIP3   OH261077   5.161   5.069   2.958  0.3837  0.2345  0.2812
13221TIP3    H161078   5.231   5.131   2.981  0.4750  0.6821 -1.1738
13221TIP3    H261079   5.204   4.984   2.961  0.7496  0.4167  0.3667
13222TIP3   OH261080   3.874   3.282  12.996 -0.0135 -0.1635 -0.1711
13222TIP3    H161081   3.912   3.360  12.955  2.0510 -1.9673 -1.8135
13222TIP3    H261082   3.857   3.308  13.086 -0.6350  2.5857 -1.0288
13223TIP3   OH261083   3.901   4.231  13.521  0.0405 -0.3561  0.5007
13223TIP3    H161084   3.972   4.226  13.457 -0.9583  0.5099 -0.7014
13223TIP3    H261085   3.904   4.147  13.566 -0.2586 -1.6456 -1.7884
13224TIP3   OH261086   6.418   0.065   4.121 -0.1893 -0.3786 -0.2290
13224TIP3    H161087   6.477   0.088   4.193  2.4047 -1.2001 -2.0325
13224TIP3    H261088   6.409  -0.030   4.126  0.2033 -0.4656 -1.1401
13225TIP3   OH261089   6.530   0.895  12.562  0.1804 -0.2044  0.1242
13225TIP3    H161090   6.493   0.839  12.630  0.5110 -0.8746 -0.2508
13225TIP3    H261091   6.614   0.855  12.541  0.1261  0.0692 -0.6105
13226TIP3   OH261092   1.075   0.321  13.444  0.3887  0.7995 -0.1116
13226TIP3    H161093   1.017   0.335  13.369  1.0587  1.3528 -0.5330
13226TIP3    H261094   1.081   0.406  13.487  0.8600  0.7372 -0.0475
13227TIP3   OH261095   0.061   1.962   5.151 -0.1032 -0.0921  0.3047
13227TIP3    H161096   0.121   2.036   5.161 -0.0218  0.0457 -1.0474
13227TIP3    H261097  -0.009   1.996   5.095  0.8242 -1.5062 -1.7909
13228TIP3   OH261098   2.921   4.912  16.995  0.2121 -0.2367 -0.6716
13228TIP3    H161099   2.928   4.988  16.937  0.5964 -1.5569 -2.3743
13228TIP3    H261100   2.909   4.837  16.936 -1.2261 -1.3826  1.0354
13229TIP3   OH261101   3.110   2.006  13.304 -0.1159  0.6520 -0.2115
13229TIP3    H161102   3.029   1.961  13.329 -0.3743  1.2239  0.0023
13229TIP3    H261103   3.117   1.993  13.209 -0.0729 -0.0152 -0.1190
13230TIP3   OH261104   0.688   4.195   2.794  0.4531  0.0244 -0.5637
13230TIP3    H161105   0.735   4.276   2.817  0.8011 -0.2566 -0.2878
13230TIP3    H261106   0.749   4.125   2.816  0.5844 -0.2785 -1.8786
13231TIP3   OH261107   2.202   2.875   4.974  0.0509  0.2397  0.8489
13231TIP3    H161108   2.210   2.798   5.030  0.6610 -0.9147 -0.7845
13231TIP3    H261109   2.272   2.864   4.909 -1.8025  0.5882 -1.2410
13232TIP3   OH261110   3.717   1.175   5.274 -0.2921 -0.2067 -0.4526
13232TIP3    H161111   3.751   1.096   5.314 -0.0106  0.0895 -0.1021
13232TIP3    H261112   3.792   1.213   5.228 -0.1015  0.5134  0.4235
13233TIP3   OH261113   3.793   6.760  14.227  0.6495  0.0984 -0.2764
13233TIP3    H161114   3.775   6.778  14.319 -0.0169  0.8883 -0.5541
13233TIP3    H261115   3.817   6.667  14.225  0.4206  0.0133  0.6589
13234TIP3   OH261116   0.415   1.895   4.111  0.1243 -0.0612  0.0632
13234TIP3    H161117   0.355   1.821   4.101  1.5238 -0.9255 -2.2903
13234TIP3    H261118   0.380   1.963   4.055  0.6266 -0.1056 -0.3072
13235TIP3   OH261119   2.699   2.831  13.511  0.2861  0.2201  0.0344
13235TIP3    H161120   2.684   2.912  13.462 -1.9572 -0.1580  0.0270
13235TIP3    H261121   2.638   2.836  13.585 -0.6500 -1.9184 -0.5504
13236TIP3   OH261122   1.943   3.989   3.421 -0.0795  0.0840 -0.0704
13236TIP3    H161123   1.986   4.067   3.456  0.2090 -0.1817  0.1752
13236TIP3    H261124   2.015   3.927   3.407 -0.2318  0.0736 -0.8286
13237TIP3   OH261125   2.839   3.172  11.515  0.0224 -0.1217 -0.4282
13237TIP3    H161126   2.779   3.237  11.478 -2.1725 -1.6852  0.3326
13237TIP3    H261127   2.874   3.215  11.593  0.2796  0.9638 -1.1114
13238TIP3   OH261128   3.114   2.631   0.034 -0.0258 -0.5511 -0.2408
13238TIP3    H161129   3.081   2.649  -0.054 -0.3921  0.9169  0.1910
13238TIP3    H261130   3.122   2.717   0.075 -0.3990 -1.2691  1.3588
13239TIP3   OH261131   2.305   1.385   0.916  0.9963 -0.2742 -0.4493
13239TIP3    H161132   2.220   1.356   0.884  0.3870  0.2675  0.6229
13239TIP3    H261133   2.306   1.479   0.897  0.4920  0.1229  1.3258
13240TIP3   OH261134   2.670   3.403  11.480 -0.3310 -0.1286 -0.5759
13240TIP3    H161135   2.631   3.449  11.405 -0.8216 -0.1022 -0.3075
13240TIP3    H261136   2.595   3.371  11.530  0.0035 -0.9079 -0.5623
13241TIP3   OH261137   0.273   0.403   4.424 -0.4095 -0.0150 -0.2682
13241TIP3    H161138   0.287   0.335   4.358  1.4642  1.3649 -1.3358
13241TIP3    H261139   0.320   0.371   4.501  0.7001  0.1606 -0.8539
13242TIP3   OH261140   2.548   3.887  15.717 -0.6619  0.4641  0.3607
13242TIP3    H161141   2.610   3.953  15.748 -0.4545  0.7436 -0.6263
13242TIP3    H261142   2.463   3.931  15.720 -0.4081  1.0509 -1.0962
13243TIP3   OH261143   2.139   2.085   2.625  0.1001 -0.3208 -0.0291
13243TIP3    H161144   2.198   2.059   2.695 -1.1455  1.0030  1.5513
13243TIP3    H261145   2.192   2.078   2.545  2.0930 -0.0490  1.2335
13244TIP3   OH261146   4.224   2.216   2.133  0.2069 -0.4391 -0.4011
13244TIP3    H161147   4.151   2.265   2.097 -0.9323 -0.9758  1.1091
13244TIP3    H261148   4.190   2.180   2.215  2.5864  0.4615  1.0259
13245TIP3   OH261149   5.758   6.164  16.442 -0.0414 -0.2819 -0.1741
13245TIP3    H161150   5.727   6.076  16.464  1.0087 -0.8242 -0.8571
13245TIP3    H261151   5.797   6.197  16.523  0.2286 -0.7292 -0.1213
13246TIP3   OH261152   0.634   6.073  13.684  0.0158  0.9151 -0.3118
13246TIP3    H161153   0.593   6.017  13.618 -0.5946  0.7392  0.2160
13246TIP3    H261154   0.704   6.019  13.721 -1.1092  0.2075  0.7785
13247TIP3   OH261155   1.373   6.693   5.426  0.5393 -0.3410  0.1971
13247TIP3    H161156   1.392   6.743   5.347  4.2251 -0.2781  1.0431
13247TIP3    H261157   1.438   6.722   5.490 -1.5219 -1.3489  2.8627
13248TIP3   OH261158   0.477   4.683   2.049  0.0835 -1.0132 -0.5203
13248TIP3    H161159   0.383   4.681   2.028  0.0811 -0.4822 -0.5576
13248TIP3    H261160   0.481   4.683   2.144  0.0339 -0.3250 -0.5208
13249TIP3   OH261161   5.872   0.208   1.968 -0.0752 -0.4834 -0.2377
13249TIP3    H161162   5.917   0.188   2.050 -1.3296 -2.5933 -0.0224
13249TIP3    H261163   5.841   0.298   1.979  2.3693  0.3129  0.3700
13250TIP3   OH261164   3.417   6.329   4.967  0.1417  0.8663 -0.0666
13250TIP3    H161165   3.477   6.382   5.020  0.6118  0.2269  0.0538
13250TIP3    H261166   3.444   6.345   4.876 -0.2256  1.4414 -0.0713
13251TIP3   OH261167   6.047   2.280   3.836  0.4793 -0.1796  0.1368
13251TIP3    H161168   6.008   2.219   3.898  1.0752 -1.4718 -0.7448
13251TIP3    H261169   6.078   2.225   3.764  2.5702  0.9558  0.1188
13252TIP3   OH261170   1.878   4.279   2.413  0.3482 -0.8108  0.2896
13252TIP3    H161171   1.807   4.340   2.394 -0.3259 -0.7944  2.7415
13252TIP3    H261172   1.846   4.194   2.382 -1.1548 -0.9802  2.2415
13253TIP3   OH261173   3.201   5.066  16.144 -0.0558  0.1081 -0.1203
13253TIP3    H161174   3.256   5.025  16.077 -0.0471  2.1542 -1.4147
13253TIP3    H261175   3.237   5.154  16.153 -2.0943  0.9207  0.2254
13254TIP3   OH261176   6.420   0.533   2.295  0.1445  0.1556 -0.3819
13254TIP3    H161177   6.505   0.568   2.322 -1.3573  1.7101  2.6112
13254TIP3    H261178   6.405   0.457   2.352 -0.6685  0.1761 -0.5542
13255TIP3   OH261179   6.088   5.222  14.242 -0.1245 -0.2778 -0.1080
13255TIP3    H161180   6.021   5.157  14.264  0.2290 -0.5878  0.0648
13255TIP3    H261181   6.131   5.185  14.164  0.5533 -0.5977  0.4214
13256TIP3   OH261182   5.323   5.509   4.690 -0.2354 -0.7728 -0.3341
13256TIP3    H161183   5.409   5.538   4.661 -0.7817  0.5010 -0.7285
13256TIP3    H261184   5.300   5.437   4.632  0.3304 -0.7544 -0.5802
13257TIP3   OH261185   0.377   5.119   2.753  0.0146  0.4545 -0.3090
13257TIP3    H161186   0.351   5.057   2.820  0.2969 -0.4252 -1.0091
13257TIP3    H261187   0.470   5.134   2.768  0.1246  0.0992 -0.6281
13258TIP3   OH261188   5.347   6.542  11.896 -0.1190 -0.1463  0.0890
13258TIP3    H161189   5.260   6.502  11.902 -1.3188  2.3874  0.2127
13258TIP3    H261190   5.396   6.504  11.969 -1.0852 -1.6279 -0.0065
13259TIP3   OH261191   5.460   2.048  13.367 -0.1044 -0.2045 -0.0385
13259TIP3    H161192   5.536   2.107  13.370  0.3734 -0.8197  0.1306
13259TIP3    H261193   5.456   2.019  13.276  1.5784 -2.3562  0.5233
13260TIP3   OH261194   3.604   3.743  11.341 -0.1728 -0.6596 -0.1707
13260TIP3    H161195   3.536   3.732  11.274  1.6593  0.4838 -2.2996
13260TIP3    H261196   3.623   3.837  11.340  2.0896 -1.0953 -0.2865
13261TIP3   OH261197   5.541   6.261  13.467  0.2923  0.1643  0.2780
13261TIP3    H161198   5.601   6.211  13.412  0.6598  0.0365  0.7934
13261TIP3    H261199   5.592   6.283  13.545 -0.8752 -1.5414  1.5680
13262TIP3   OH261200   0.018   5.022   0.817  0.2316 -0.4120 -0.4312
13262TIP3    H161201  -0.005   5.113   0.832  1.6359 -0.3929  1.9505
13262TIP3    H261202  -0.065   4.979   0.796 -0.7211  1.0949  0.1907
13263TIP3   OH261203   0.061   4.647  13.132  0.1033  0.0481 -0.2458
13263TIP3    H161204   0.047   4.601  13.216  2.9433 -2.9395 -1.3123
13263TIP3    H261205   0.126   4.714  13.152  1.3256 -1.1403 -0.1843
13264TIP3   OH261206   3.971   3.043   5.300 -0.5309 -0.3357  0.0667
13264TIP3    H161207   3.893   3.030   5.353 -0.8068  0.5186 -0.1128
13264TIP3    H261208   4.044   3.034   5.361 -0.8768  1.5352  0.7895
13265TIP3   OH261209   2.779   4.100   2.188  0.0394  0.0851  1.0066
13265TIP3    H161210   2.701   4.105   2.243  0.6025 -0.7678  1.8959
13265TIP3    H261211   2.833   4.174   2.216  0.1066 -0.0592  1.2598
13266TIP3   OH261212   0.695   5.593  12.179 -0.5502 -0.4687 -0.0959
13266TIP3    H161213   0.771   5.539  12.198 -0.1762 -0.8420 -2.4921
13266TIP3    H261214   0.625   5.531  12.160 -1.2316 -0.1234  1.2334
13267TIP3   OH261215   0.984   2.693  17.177  0.1617 -0.2414  0.0632
13267TIP3    H161216   1.017   2.777  17.145  0.8888 -0.4952  0.1347
13267TIP3    H261217   0.990   2.635  17.100  0.4085 -0.4342  0.2264
13268TIP3   OH261218   3.203   6.651   4.764  0.7452 -0.1941  0.3825
13268TIP3    H161219   3.146   6.574   4.777  1.3343 -0.6488  0.2772
13268TIP3    H261220   3.153   6.724   4.802 -0.6720 -0.2832 -1.2125
13269TIP3   OH261221   6.748   5.182   2.914  1.0160 -0.0634  0.6440
13269TIP3    H161222   6.788   5.248   2.972  1.5670 -0.3149  0.5571
13269TIP3    H261223   6.711   5.233   2.842  2.4232  0.0840  0.0043
13270TIP3   OH261224   1.304   5.048  13.308  0.6541  0.1889  0.1866
13270TIP3    H161225   1.325   5.142  13.305  1.0644  0.0500 -2.3188
13270TIP3    H261226   1.390   5.005  13.314  0.4605 -0.0412  1.4615
13271TIP3   OH261227   6.565   1.028  14.995 -0.5474 -0.3896  0.5138
13271TIP3    H161228   6.650   1.020  15.039 -0.8089 -0.8997  0.9293
13271TIP3    H261229   6.587   1.039  14.902  0.0277  1.0457  0.7916
13272TIP3   OH261230   3.896   5.043   0.931  0.6449 -0.2984  0.1895
13272TIP3    H161231   3.846   5.107   0.983  1.3160 -1.0324  1.7729
13272TIP3    H261232   3.962   5.095   0.886  0.2907  0.3052  0.3549
13273TIP3   OH261233   6.571   4.843  16.822  0.1252  0.0316  0.3919
13273TIP3    H161234   6.526   4.854  16.905  1.7616  2.3780  1.0055
13273TIP3    H261235   6.584   4.932  16.789  0.3906 -0.8147 -1.8967
13274TIP3   OH261236   2.677   5.332   2.909  0.0663  0.7383 -0.1212
13274TIP3    H161237   2.747   5.281   2.867  0.0739  1.6211 -1.2256
13274TIP3    H261238   2.619   5.355   2.836 -2.1526 -1.1629  0.9816
13275TIP3   OH261239   5.769   1.644  13.120  0.5054  0.2038 -0.1889
13275TIP3    H161240   5.795   1.572  13.177 -2.1960 -0.1037  0.7366
13275TIP3    H261241   5.715   1.701  13.176  1.3522  2.1505 -1.3046
13276TIP3   OH261242   1.886   2.353  14.008 -0.2639 -0.1722 -0.4256
13276TIP3    H161243   1.845   2.427  14.054  1.7261  0.0839  1.0305
13276TIP3    H261244   1.936   2.394  13.938  0.2320 -0.1819 -0.0827
13277TIP3   OH261245   1.847   6.118   5.372 -0.1608  0.5473  0.0599
13277TIP3    H161246   1.766   6.165   5.352 -0.9322 -0.3837  0.9134
13277TIP3    H261247   1.916   6.184   5.364 -1.1724  1.7277  0.8608
13278TIP3   OH261248   3.244   2.988  15.769 -0.0408  0.2151  0.6520
13278TIP3    H161249   3.312   2.969  15.833 -0.2901  0.3246  0.9470
13278TIP3    H261250   3.219   3.078  15.786 -0.0409  0.2742  0.3381
13279TIP3   OH261251   2.230   6.021  12.621 -0.0924  0.9121  0.6278
13279TIP3    H161252   2.209   6.014  12.714 -0.0075 -2.0279  0.4789
13279TIP3    H261253   2.147   6.006  12.576  0.0541  1.3697  0.1972
13280TIP3   OH261254   3.982   0.782  16.735  0.0904 -0.6779  0.4592
13280TIP3    H161255   4.075   0.805  16.740  0.0847 -0.9076  2.0821
13280TIP3    H261256   3.982   0.694  16.697  0.4703 -0.3014 -0.4298
13281TIP3   OH261257   1.241   6.771  14.245 -0.3427 -0.2584 -0.9188
13281TIP3    H161258   1.185   6.843  14.214  1.2412  1.2887 -0.3044
13281TIP3    H261259   1.270   6.728  14.165 -0.5396  0.4044 -1.3531
13282TIP3   OH261260   2.416   1.667   1.671 -0.1520 -0.4472 -0.2583
13282TIP3    H161261   2.447   1.582   1.639  0.0880 -0.1257 -0.8979
13282TIP3    H261262   2.332   1.679   1.628  0.0397 -0.1428 -0.5521
13283TIP3   OH261263   5.966   0.479  13.056 -0.6467 -0.5233 -0.2003
13283TIP3    H161264   6.033   0.528  13.104 -2.4698 -0.6725  2.6417
13283TIP3    H261265   5.899   0.544  13.034 -0.9080 -0.8962 -0.5187
13284TIP3   OH261266   0.672   5.559   2.914 -0.2490  0.4566 -0.2035
13284TIP3    H161267   0.727   5.489   2.878 -0.9883 -0.6997  0.8622
13284TIP3    H261268   0.709   5.639   2.878  1.5431 -0.3656 -0.2569
13285TIP3   OH261269   3.598   6.639  11.596  0.2312 -0.4746 -0.4146
13285TIP3    H161270   3.658   6.640  11.521  1.0985  2.6061  0.2269
13285TIP3    H261271   3.649   6.599  11.667  0.6957 -0.0617 -0.5117
13286TIP3   OH261272   1.073   1.536  12.875 -0.2977 -0.5475 -0.5327
13286TIP3    H161273   1.123   1.512  12.796 -1.1094 -0.4706 -1.0742
13286TIP3    H261274   1.028   1.456  12.901  0.3209 -0.6896  0.1222
13287TIP3   OH261275   1.965   5.135   0.258  0.1776  0.2047  0.6404
13287TIP3    H161276   2.023   5.185   0.316  0.5178 -0.1413  0.6017
13287TIP3    H261277   1.996   5.157   0.169  0.4953 -0.2729  0.6312
13288TIP3   OH261278   1.747   3.265   3.001 -0.0412  0.3420  0.1021
13288TIP3    H161279   1.821   3.295   2.948 -0.0285  0.4880  0.2013
13288TIP3    H261280   1.673   3.317   2.971 -0.5666 -1.2194 -1.4244
13289TIP3   OH261281   4.371   3.974   2.440 -0.0776 -0.9017  0.3007
13289TIP3    H161282   4.293   3.940   2.396 -0.0531  2.5477 -2.6325
13289TIP3    H261283   4.338   4.043   2.498  0.8144  1.2201 -1.6534
13290TIP3   OH261284   4.065   0.681   3.999 -0.3870 -0.2182 -0.6612
13290TIP3    H161285   4.055   0.641   4.085 -0.3475  1.2670  0.0465
13290TIP3    H261286   4.105   0.613   3.945  1.2309 -0.5601  0.9521
13291TIP3   OH261287   1.170   6.194  12.848  0.1158  0.2186 -0.4243
13291TIP3    H161288   1.076   6.177  12.860  0.2640 -0.6149 -0.3925
13291TIP3    H261289   1.213   6.119  12.889  0.7937  0.4881 -0.6365
13292TIP3   OH261290   6.037   4.426  14.350 -0.4110  0.2528  0.2325
13292TIP3    H161291   6.108   4.368  14.376 -1.0207  0.8300  3.4529
13292TIP3    H261292   6.014   4.398  14.261  1.1364 -2.6062  0.6660
13293TIP3   OH261293   0.528   1.530  15.513  0.5240 -0.3775 -0.3469
13293TIP3    H161294   0.563   1.587  15.444 -0.1644 -0.4178 -0.7401
13293TIP3    H261295   0.435   1.553  15.517  0.9886  1.3272  2.2014
13294TIP3   OH261296   4.009   4.480   2.869  0.0093  0.2810 -0.3122
13294TIP3    H161297   4.104   4.487   2.868  0.1210 -1.1267 -0.0108
13294TIP3    H261298   3.984   4.502   2.959 -0.0189  1.2862 -0.5520
13295TIP3   OH261299   3.399   4.941  15.560 -0.2933 -0.8367  0.1768
13295TIP3    H161300   3.479   4.965  15.607  0.2084 -1.4354 -0.3566
13295TIP3    H261301   3.367   4.863  15.606 -2.1997  1.0785  2.2228
13296TIP3   OH261302   3.284   3.705   5.272  0.2817 -0.1334 -0.2165
13296TIP3    H161303   3.244   3.791   5.281  0.1227 -0.2572  0.3068
13296TIP3    H261304   3.210   3.645   5.263  0.4155 -0.1065 -1.6792
13297TIP3   OH261305   1.714   4.227  13.529  0.1649 -0.1699  0.0718
13297TIP3    H161306   1.665   4.275  13.595  0.5830 -1.5381  1.4193
13297TIP3    H261307   1.760   4.294  13.480  1.1904  0.8023  2.2793
13298TIP3   OH261308   4.850   3.845  15.600  0.5603  0.2284 -0.2086
13298TIP3    H161309   4.899   3.915  15.558  0.7688 -0.0068 -0.3642
13298TIP3    H261310   4.866   3.857  15.694  1.3603 -0.1686 -0.2911
13299TIP3   OH261311   2.974   2.848  12.209 -0.1456  0.0150 -0.1542
13299TIP3    H161312   2.988   2.942  12.194  0.2105 -0.2254 -1.3777
13299TIP3    H261313   3.024   2.805  12.139  1.1134 -1.1431  1.4261
13300TIP3   OH261314   4.528   3.764  16.295 -0.3433 -0.2813  0.3643
13300TIP3    H161315   4.520   3.722  16.209  1.2382  0.3222 -0.0921
13300TIP3    H261316   4.612   3.734  16.329 -0.0224  1.0858  0.8128
13301TIP3   OH261317   0.108   0.600   0.137 -0.2323  0.0388  0.0253
13301TIP3    H161318   0.149   0.680   0.104 -0.3657  0.9412  1.9560
13301TIP3    H261319   0.023   0.597   0.094 -0.4757  1.2830  0.4011
13302TIP3   OH261320   2.892   1.465  17.084 -0.0737 -0.4626 -0.1525
13302TIP3    H161321   2.919   1.448  16.994  0.6734  2.2753 -0.4950
13302TIP3    H261322   2.802   1.496  17.077  0.8059  2.1728 -0.2464
13303TIP3   OH261323   1.968   2.080  14.844 -0.1011  0.4687  0.1636
13303TIP3    H161324   1.979   2.140  14.770 -1.0942 -0.0055 -0.3802
13303TIP3    H261325   1.950   2.137  14.919  1.2562  0.9703  0.1142
13304TIP3   OH261326   6.198   1.284  15.198 -0.0718  0.3537 -0.0968
13304TIP3    H161327   6.236   1.225  15.263 -1.3727 -0.7334 -0.3136
13304TIP3    H261328   6.261   1.282  15.125 -1.0388 -2.2988 -0.9125
13305TIP3   OH261329   5.793   1.052  15.128  0.1901  0.2040 -0.2504
13305TIP3    H161330   5.865   1.061  15.190  0.6423 -0.5499 -0.6589
13305TIP3    H261331   5.815   1.112  15.057  0.0081  0.5664 -0.0064
13306TIP3   OH261332   2.004   0.765  17.004 -0.3095  0.1512  0.2657
13306TIP3    H161333   1.998   0.672  17.027  0.8288 -0.1261 -0.5267
13306TIP3    H261334   2.062   0.767  16.928 -0.3754  1.5111  0.2433
13307TIP3   OH261335   4.304   3.856  10.464 -0.0688 -0.4584  0.3448
13307TIP3    H161336   4.294   3.913  10.541  1.5137 -0.9921  0.9541
13307TIP3    H261337   4.263   3.773  10.490  1.3863 -0.9839  1.0095
13308TIP3   OH261338   4.351   5.378  14.036 -0.1823 -0.5684  0.1615
13308TIP3    H161339   4.277   5.427  14.072  0.4376 -0.1138  0.8120
13308TIP3    H261340   4.369   5.421  13.953 -0.9953 -1.0232 -0.2645
13309TIP3   OH261341   4.567   3.966   3.403 -0.3449  0.1795 -0.3646
13309TIP3    H161342   4.566   3.871   3.403 -1.9224  0.1436 -2.3712
13309TIP3    H261343   4.532   3.991   3.489  1.7054 -1.0056  0.8427
13310TIP3   OH261344   4.418   2.116   1.649  0.1583 -0.1787 -0.5569
13310TIP3    H161345   4.356   2.122   1.577  0.6689 -1.1065 -1.0940
13310TIP3    H261346   4.486   2.180   1.627  0.5473 -0.7855 -1.1454
13311TIP3   OH261347   2.510   2.282   3.109  0.1155  0.4283 -0.4292
13311TIP3    H161348   2.567   2.357   3.125  0.1628  0.1716  0.6718
13311TIP3    H261349   2.505   2.237   3.194 -0.4446 -0.4384 -0.9089
13312TIP3   OH261350   1.125   2.425   5.146  0.0263  0.4596 -0.8646
13312TIP3    H161351   1.103   2.517   5.161  1.5146  0.7672 -0.5404
13312TIP3    H261352   1.068   2.376   5.206 -1.5944  1.0809 -1.8459
13313TIP3   OH261353   4.631   0.612   4.058 -0.5199  0.3766  0.6961
13313TIP3    H161354   4.714   0.592   4.101 -0.2780  1.1415  0.5994
13313TIP3    H261355   4.571   0.629   4.130 -0.1098  1.6752  0.7471
13314TIP3   OH261356   0.634   0.962   4.687  0.5577  0.2889 -0.1258
13314TIP3    H161357   0.567   1.004   4.634  0.7124 -0.0440 -0.5931
13314TIP3    H261358   0.588   0.933   4.766 -0.4148 -2.1676 -1.5312
13315TIP3   OH261359   4.776   2.353   5.122  0.1233  0.0063 -0.1462
13315TIP3    H161360   4.788   2.444   5.095 -1.0638  0.6392  1.3578
13315TIP3    H261361   4.690   2.329   5.088 -0.1935 -0.0703  0.6861
13316TIP3   OH261362   1.810   6.256  12.943 -0.7449 -0.6629  0.3135
13316TIP3    H161363   1.740   6.274  13.006  0.4130 -0.7580  1.6699
13316TIP3    H261364   1.826   6.340  12.900 -0.4534 -0.1988  1.3091
13317TIP3   OH261365   4.802   2.620   1.003 -0.6688 -0.4264  0.9084
13317TIP3    H161366   4.830   2.709   1.027  1.2388 -0.7398 -0.0111
13317TIP3    H261367   4.764   2.584   1.083  1.1189  0.2451  2.1030
13318TIP3   OH261368   2.148   6.544  16.488 -0.5365  0.4769  0.5696
13318TIP3    H161369   2.078   6.563  16.551  0.6013 -1.2821  2.4404
13318TIP3    H261370   2.158   6.449  16.493  1.8493  0.6914  0.1846
13319TIP3   OH261371   0.270   0.938  13.411 -0.1305 -0.2859 -0.1620
13319TIP3    H161372   0.243   0.938  13.503 -2.1634 -0.3008 -0.7272
13319TIP3    H261373   0.189   0.956  13.363  0.8883 -0.4236 -1.9518
13320TIP3   OH261374   6.136   3.997  11.037  0.2716  0.0341  0.5384
13320TIP3    H161375   6.058   3.948  11.009 -0.7717  0.8909  1.8978
13320TIP3    H261376   6.151   4.060  10.966  0.3719 -0.8426 -0.2310
13321TIP3   OH261377   6.340   1.142  15.390 -0.2239  0.1787  0.3998
13321TIP3    H161378   6.427   1.146  15.350 -0.8006 -1.8072 -1.1606
13321TIP3    H261379   6.352   1.088  15.468 -0.2336 -1.0413 -0.4192
13322TIP3   OH261380   1.443   5.409  11.533  0.1344  0.2548 -0.3211
13322TIP3    H161381   1.490   5.400  11.616 -3.7550  2.3161  2.2552
13322TIP3    H261382   1.355   5.375  11.552 -0.2441 -1.2075 -4.2509
13323TIP3   OH261383   5.991   2.224  12.097 -0.0893  0.2440  0.1173
13323TIP3    H161384   6.082   2.198  12.113 -0.1501 -0.6850 -1.0095
13323TIP3    H261385   5.940   2.162  12.148 -0.1104  0.4171  0.3062
13324TIP3   OH261386   0.561   3.993  13.464 -0.0136  0.0171 -0.3167
13324TIP3    H161387   0.516   3.948  13.536 -0.2395  0.7118 -0.0166
13324TIP3    H261388   0.654   3.987  13.486  0.0621 -1.5230 -0.9941
13325TIP3   OH261389   4.894   2.708  16.597  0.1649  0.2943  0.2299
13325TIP3    H161390   4.857   2.773  16.657 -0.8674 -0.8202  0.8297
13325TIP3    H261391   4.821   2.685  16.539  0.0890 -1.3422  0.9192
13326TIP3   OH261392   1.275   3.071  14.007  0.8690  0.6733 -0.2212
13326TIP3    H161393   1.188   3.103  13.985  0.3073 -0.7548 -0.1032
13326TIP3    H261394   1.329   3.150  14.013 -0.4979  1.5944  0.1137
13327TIP3   OH261395   3.980   3.956  16.083 -0.2351  0.1930 -0.7112
13327TIP3    H161396   3.949   3.887  16.142 -0.7629  0.8999 -0.1429
13327TIP3    H261397   4.003   3.911  16.002 -1.3970 -0.5363 -0.6422
13328TIP3   OH261398   5.171   2.858   6.732 -0.6484 -0.3044 -0.0071
13328TIP3    H161399   5.244   2.809   6.770 -0.2874 -0.1155 -0.4463
13328TIP3    H261400   5.157   2.819   6.646  0.7558  1.4190 -1.0687
13329TIP3   OH261401   1.893   4.068  12.313 -0.3050 -0.4519  0.1189
13329TIP3    H161402   1.823   4.061  12.247  1.0305  0.3451 -1.4325
13329TIP3    H261403   1.924   3.978  12.324  0.5330 -0.3970 -1.5751
13330TIP3   OH261404   1.247   6.533  12.779  0.7000 -0.1491 -0.3604
13330TIP3    H161405   1.284   6.473  12.844  2.0008 -2.0384 -2.7517
13330TIP3    H261406   1.164   6.563  12.818  2.3281  0.2755  2.9339
13331TIP3   OH261407   0.368   0.122  12.113  0.0951  0.3222 -1.3555
13331TIP3    H161408   0.292   0.073  12.083 -0.1251 -0.0443 -0.2379
13331TIP3    H261409   0.443   0.066  12.090 -0.3311 -2.2107  2.8811
13332TIP3   OH261410   4.100   6.486   2.861  0.4199 -0.1849  0.5736
13332TIP3    H161411   4.006   6.477   2.844  0.5993 -0.3338 -0.3811
13332TIP3    H261412   4.106   6.506   2.954 -0.5541 -0.3111  0.6674
13333TIP3   OH261413   2.250   5.612  11.764 -0.1945  0.0841  0.1724
13333TIP3    H161414   2.266   5.696  11.806  0.3266  0.5829 -0.9948
13333TIP3    H261415   2.177   5.574  11.812  1.1599  0.0891  2.2881
13334TIP3   OH261416   4.584   1.061  15.123 -0.3510  0.2349 -0.8125
13334TIP3    H161417   4.535   1.045  15.043 -2.5803  3.1348 -0.1424
13334TIP3    H261418   4.599   1.156  15.124  1.1913  0.0248  1.3178
13335TIP3   OH261419   4.812   1.310  16.694  0.6727 -0.0965 -0.4073
13335TIP3    H161420   4.900   1.326  16.729  0.9879 -2.0141 -0.2398
13335TIP3    H261421   4.757   1.378  16.734  2.0566  1.0877 -0.4836
13336TIP3   OH261422   2.957   2.985  17.218  0.1833 -0.1380 -0.4973
13336TIP3    H161423   2.875   3.029  17.194  1.0012  0.4055 -2.3970
13336TIP3    H261424   3.015   3.056  17.244  0.6485 -0.3442 -0.9632
13337TIP3   OH261425   2.154   0.909  12.754  0.1670 -0.6593 -0.5160
13337TIP3    H161426   2.140   0.858  12.834 -0.1742 -0.3315 -0.3608
13337TIP3    H261427   2.159   1.000  12.785  1.1503 -0.6310 -0.7475
13338TIP3   OH261428   2.117   6.245   4.063 -0.0237 -0.0195  0.1366
13338TIP3    H161429   2.052   6.215   3.999 -1.3723  1.7714  0.6075
13338TIP3    H261430   2.082   6.215   4.147  0.9310 -1.0022  0.1828
13339TIP3   OH261431   6.072   3.344  12.673  0.5966  0.0143 -0.3729
13339TIP3    H161432   6.131   3.400  12.623  0.4405  0.4780 -0.0366
13339TIP3    H261433   5.998   3.329  12.615 -0.9395  2.8973  0.7427
13340TIP3   OH261434   3.975   5.647  15.543 -0.4822 -0.0527  0.5768
13340TIP3    H161435   3.928   5.691  15.472 -0.0831  0.1425  0.4334
13340TIP3    H261436   4.061   5.688  15.544 -0.9221  0.8382  2.0311
13341TIP3   OH261437   1.973   1.345  15.624 -0.4848 -0.3615 -0.6292
13341TIP3    H161438   1.926   1.301  15.695 -1.2041  3.3748  1.3185
13341TIP3    H261439   1.905   1.369  15.561 -0.4245  0.0053 -0.5589
13342TIP3   OH261440   5.046   5.732  11.955  0.0850  0.0617 -0.0926
13342TIP3    H161441   4.999   5.676  11.893  0.2625 -1.4675  1.1242
13342TIP3    H261442   5.007   5.712  12.040  1.0356  0.8480  0.5442
13343TIP3   OH261443   5.054   1.827  11.641  0.7984 -0.0215 -0.1026
13343TIP3    H161444   4.985   1.869  11.692  0.5570 -1.4979  0.8483
13343TIP3    H261445   5.025   1.736  11.633  2.3930 -0.5489 -0.0901
13344TIP3   OH261446   2.898   0.783  14.470  0.2256  0.1004 -0.1795
13344TIP3    H161447   2.930   0.846  14.535 -2.0740  0.6479  0.4713
13344TIP3    H261448   2.940   0.810  14.389 -0.5181  2.3414  0.1425
13345TIP3   OH261449   2.579   0.707  10.997  0.5154 -0.5463  0.2870
13345TIP3    H161450   2.527   0.637  10.957  1.4634  0.0676 -2.0909
13345TIP3    H261451   2.641   0.661  11.054  0.7377 -1.6040 -0.7996
13346TIP3   OH261452   1.219   2.063  11.722 -0.4283  0.0451 -0.3176
13346TIP3    H161453   1.269   2.005  11.780 -1.6073 -0.8840 -0.2177
13346TIP3    H261454   1.274   2.071  11.644  0.6589  0.4100  0.4785
13347TIP3   OH261455   4.744   5.883   2.174  0.1639  0.0578  0.0058
13347TIP3    H161456   4.693   5.956   2.209  0.4706  1.2761 -2.0050
13347TIP3    H261457   4.832   5.919   2.163  0.0293 -0.2474 -2.1523
13348TIP3   OH261458   1.101   0.420  16.608  0.3814  0.4465  0.2714
13348TIP3    H161459   1.175   0.375  16.650 -0.6521 -2.2422 -0.6641
13348TIP3    H261460   1.140   0.498  16.568  2.8358 -1.2874 -0.8387
13349TIP3   OH261461   2.567   1.975   4.708  0.1058 -0.1215  0.4767
13349TIP3    H161462   2.494   2.037   4.715 -0.2943 -0.5418  0.0772
13349TIP3    H261463   2.632   2.006   4.771  0.2316  1.1593 -0.2639
13350TIP3   OH261464   0.494   1.926   3.155 -0.7123  0.0141  0.0283
13350TIP3    H161465   0.525   2.016   3.166  0.1089 -0.3420  0.7181
13350TIP3    H261466   0.527   1.900   3.069  0.1831 -0.0622  0.3850
13351TIP3   OH261467   1.001   3.915  12.063 -0.2606  0.0974  0.1496
13351TIP3    H161468   1.074   3.854  12.060  0.1142  0.4268  1.7836
13351TIP3    H261469   0.994   3.939  12.156 -0.8824  1.9389 -0.3504
13352TIP3   OH261470   0.147   1.270   4.241  0.5354 -0.3005 -0.0256
13352TIP3    H161471   0.223   1.320   4.272  1.4118 -1.5070 -0.1711
13352TIP3    H261472   0.120   1.219   4.317  0.0423 -0.0723 -0.0517
13353TIP3   OH261473   1.653   3.065   4.689  0.8045  0.3759 -0.4982
13353TIP3    H161474   1.569   3.110   4.699  1.1744  1.3871 -1.6686
13353TIP3    H261475   1.673   3.031   4.776 -0.0262  1.5705  0.1851
13354TIP3   OH261476   2.750   2.443   5.221 -0.1047 -0.2591  0.1078
13354TIP3    H161477   2.765   2.402   5.135  0.5002  0.2487 -0.0273
13354TIP3    H261478   2.717   2.371   5.276  0.2107 -0.7530 -0.3438
13355TIP3   OH261479   0.854   4.395  12.570 -0.1771  0.1875 -0.6803
13355TIP3    H161480   0.788   4.340  12.612  1.3520  1.0124  3.0000
13355TIP3    H261481   0.833   4.484  12.598  1.3942  0.6779 -0.9673
13356TIP3   OH261482   0.874   5.977  11.996  0.0501  0.4479  0.3364
13356TIP3    H161483   0.931   5.981  12.072 -1.9550  1.0848  1.8567
13356TIP3    H261484   0.857   5.883  11.984  2.0119  0.1864 -0.6291
13357TIP3   OH261485   2.763   0.157  15.926 -1.0203 -0.0951 -0.3445
13357TIP3    H161486   2.795   0.095  15.861  0.8672 -0.8156  1.2123
13357TIP3    H261487   2.811   0.237  15.909 -0.9037 -0.1276 -0.1721
13358TIP3   OH261488   1.525   4.573  13.518  0.0290  0.3825  0.0383
13358TIP3    H161489   1.437   4.547  13.545 -0.1131 -0.2911 -1.0632
13358TIP3    H261490   1.581   4.546  13.590 -0.7281  1.3050  0.9915
13359TIP3   OH261491   2.111   6.529  10.787  0.2549 -0.0764 -0.1846
13359TIP3    H161492   2.063   6.461  10.740 -0.3387  1.0142 -1.1843
13359TIP3    H261493   2.051   6.604  10.788  0.9029  0.4399  0.8813
13360TIP3   OH261494   4.496   2.917  14.007 -0.4932 -0.1560  0.4108
13360TIP3    H161495   4.582   2.932  14.046 -0.2340  0.2989 -0.3371
13360TIP3    H261496   4.468   3.003  13.977  0.6827 -0.9356 -3.2276
13361TIP3   OH261497   0.422   1.425   1.442  0.0128 -0.2853  0.1497
13361TIP3    H161498   0.449   1.339   1.411  1.0808 -0.3366  1.1951
13361TIP3    H261499   0.495   1.483   1.418 -1.1787  0.5776 -1.5807
13362TIP3   OH261500   1.807   3.271   1.909 -0.2763  0.1606  0.0496
13362TIP3    H161501   1.779   3.249   1.997  0.5240  0.5005  0.3955
13362TIP3    H261502   1.726   3.289   1.861 -0.6694  0.6409  0.8964
13363TIP3   OH261503   1.231   4.932   1.788 -0.1019  0.2924  0.4850
13363TIP3    H161504   1.270   5.019   1.796  0.7681  0.1031 -1.4592
13363TIP3    H261505   1.144   4.948   1.753 -0.0452  0.4042  0.3945
13364TIP3   OH261506   0.019   4.584  10.708  0.3040  0.2437  0.1451
13364TIP3    H161507   0.066   4.664  10.731 -1.6761  1.3699  0.4217
13364TIP3    H261508  -0.016   4.602  10.620  0.5585 -0.6446 -0.1358
13365TIP3   OH261509   1.972   2.298  15.838 -0.2292 -0.1621  0.1656
13365TIP3    H161510   2.026   2.219  15.840 -1.0992 -0.7633 -0.1140
13365TIP3    H261511   1.945   2.311  15.929 -1.0076 -0.8206  0.0295
13366TIP3   OH261512   0.441   1.138   2.236  0.1837 -0.3802 -0.2202
13366TIP3    H161513   0.472   1.144   2.326 -0.9822  0.4622  0.1465
13366TIP3    H261514   0.349   1.113   2.244  0.4403 -1.6917 -1.2281
13367TIP3   OH261515   2.916   3.802  11.358  0.0995 -0.3899 -0.5362
13367TIP3    H161516   2.937   3.835  11.271  1.2345 -0.2483 -0.2192
13367TIP3    H261517   2.938   3.875  11.417  0.9929 -1.1057  0.0203
13368TIP3   OH261518   0.729   1.303  15.938  0.2235 -0.1152  0.4559
13368TIP3    H161519   0.754   1.243  15.867  0.5470 -0.0156  0.4848
13368TIP3    H261520   0.754   1.390  15.906 -0.8613  0.0808  0.1353
13369TIP3   OH261521   4.106   6.624   5.130  0.5543  0.4455 -0.1910
13369TIP3    H161522   4.022   6.614   5.085  0.5174 -1.0438  0.1674
13369TIP3    H261523   4.101   6.562   5.204  0.3801  3.2508  2.2343
13370TIP3   OH261524   2.500   1.087   0.464 -0.1990 -0.5977 -0.3347
13370TIP3    H161525   2.586   1.068   0.427 -0.6758  0.4392 -2.0208
13370TIP3    H261526   2.515   1.158   0.526  0.2505 -0.7988 -0.2152
13371TIP3   OH261527   4.238   1.910   5.047  0.0981 -0.1669  0.0019
13371TIP3    H161528   4.306   1.910   4.979 -0.8299 -0.0353 -0.9441
13371TIP3    H261529   4.161   1.874   5.003 -0.4621 -0.2521  1.0472
13372TIP3   OH261530   1.210   5.311  11.614 -0.5204 -0.3941  0.0971
13372TIP3    H161531   1.119   5.300  11.584 -0.4635 -0.4384 -0.0581
13372TIP3    H261532   1.225   5.237  11.672  0.2911 -1.8894 -1.9512
13373TIP3   OH261533   2.295   2.271  13.024  0.3120  0.2709 -0.6359
13373TIP3    H161534   2.358   2.247  13.092 -1.4071 -1.6191  0.3520
13373TIP3    H261535   2.339   2.252  12.942  1.8075  1.0194 -0.0361
13374TIP3   OH261536   3.104   1.482  12.510 -0.3159 -0.0183 -0.1612
13374TIP3    H161537   3.033   1.429  12.474  0.6022 -2.9519  2.1317
13374TIP3    H261538   3.182   1.453  12.463 -0.2416  1.4894 -0.9986
13375TIP3   OH261539   3.368   4.982  13.422  0.4408 -0.1960  0.6299
13375TIP3    H161540   3.334   5.054  13.475  2.1638  1.7658 -0.8066
13375TIP3    H261541   3.300   4.967  13.355  0.5037  0.7888  0.3389
13376TIP3   OH261542   5.527   6.282   1.086 -0.0243  0.2911 -0.2461
13376TIP3    H161543   5.458   6.246   1.141 -0.1822  0.1401 -0.5408
13376TIP3    H261544   5.530   6.375   1.109 -0.6670  0.4006 -0.5953
13377TIP3   OH261545   5.769   2.749   0.936  0.0170 -0.0830  0.8978
13377TIP3    H161546   5.859   2.717   0.933 -0.3616 -1.0344 -0.7349
13377TIP3    H261547   5.740   2.750   0.845 -1.4433  0.7562  1.3466
13378TIP3   OH261548   6.266   0.702  14.059 -0.1236  0.2033 -0.0239
13378TIP3    H161549   6.174   0.706  14.034 -0.1310 -0.1441 -0.0606
13378TIP3    H261550   6.276   0.617  14.101  0.4748 -0.3572 -1.2637
13379TIP3   OH261551   1.929   2.473  13.407  0.1413  0.4887  0.3658
13379TIP3    H161552   2.002   2.535  13.405 -1.7498  2.7506 -0.5928
13379TIP3    H261553   1.938   2.423  13.326  0.3777  1.0367  0.0494
13380TIP3   OH261554   5.560   6.707   3.199 -0.3720  0.2075  0.4460
13380TIP3    H161555   5.554   6.766   3.124  0.5467 -0.9100 -0.5241
13380TIP3    H261556   5.469   6.686   3.220 -0.6313  0.3387 -0.5080
13381TIP3   OH261557   4.260   6.100  13.269 -0.2661  0.4687  0.5028
13381TIP3    H161558   4.254   6.125  13.176  0.4800  0.0798  0.3410
13381TIP3    H261559   4.222   6.173  13.316  0.0533  1.0126 -0.0766
13382TIP3   OH261560   1.598   3.446   0.591 -0.0302 -0.9281  0.1655
13382TIP3    H161561   1.640   3.437   0.505  0.8928  1.6536  0.3093
13382TIP3    H261562   1.527   3.508   0.577  0.9999  0.5846  1.5592
13383TIP3   OH261563   1.184   1.820   0.330  0.5284 -0.2382  0.6427
13383TIP3    H161564   1.151   1.762   0.399 -0.2074  0.4255  0.8546
13383TIP3    H261565   1.115   1.819   0.263 -0.2809  1.7175  1.4091
13384TIP3   OH261566   2.587   3.851   1.882 -0.2346  0.7602 -0.0925
13384TIP3    H161567   2.650   3.804   1.936  1.2891  1.1820 -1.4627
13384TIP3    H261568   2.574   3.794   1.806 -1.7514  0.5437  0.3079
13385TIP3   OH261569   0.880   2.389   6.447  0.4129 -0.5149  0.6218
13385TIP3    H161570   0.909   2.451   6.515 -0.4619 -0.2209  0.7283
13385TIP3    H261571   0.946   2.397   6.378  0.3673  0.4641  0.6856
13386TIP3   OH261572   3.711   0.004  15.728 -0.5245 -0.0703  0.0720
13386TIP3    H161573   3.678   0.073  15.785 -0.3083  0.5473 -0.5503
13386TIP3    H261574   3.767  -0.049  15.785 -0.6590  0.2890  0.5430
13387TIP3   OH261575   5.078   3.873  15.793 -0.1818  0.3917  0.3959
13387TIP3    H161576   5.071   3.833  15.880  0.6111  1.7357  1.0855
13387TIP3    H261577   5.047   3.963  15.805 -0.1667  0.5597 -0.7401
13388TIP3   OH261578   1.538   0.023  12.176  0.0305 -0.2122 -0.2573
13388TIP3    H161579   1.608  -0.043  12.180  0.8576  0.7208  2.0830
13388TIP3    H261580   1.583   0.103  12.149 -0.3635  0.1092  0.0349
13389TIP3   OH261581   5.599   1.187  15.589 -0.3867  0.3813  0.2801
13389TIP3    H161582   5.581   1.173  15.682 -0.2166 -1.5655  0.0429
13389TIP3    H261583   5.518   1.161  15.544  0.5194 -1.4796 -0.3007
13390TIP3   OH261584   6.311   2.520   3.752 -0.7274 -0.0132  0.2320
13390TIP3    H161585   6.279   2.594   3.700  0.8285  0.5380  0.0327
13390TIP3    H261586   6.253   2.517   3.828 -2.6283 -0.4274 -1.2093
13391TIP3   OH261587   1.135   0.834   6.033 -0.4773 -0.0228  0.5214
13391TIP3    H161588   1.137   0.804   5.942 -0.2787 -1.1125  0.8799
13391TIP3    H261589   1.087   0.765   6.080  0.4198 -0.0300  1.4435
13392TIP3   OH261590   0.425   1.700  11.157 -0.3191  0.1922 -0.5398
13392TIP3    H161591   0.369   1.777  11.161 -0.0232  0.4615 -1.6483
13392TIP3    H261592   0.379   1.639  11.100  0.1523  0.1232 -0.8542
13393TIP3   OH261593   1.602   6.265   5.359 -0.3871 -0.5191 -0.3576
13393TIP3    H161594   1.617   6.349   5.316  1.2780  0.0076  1.2037
13393TIP3    H261595   1.518   6.274   5.403  0.1389  0.5726  0.4104
13394TIP3   OH261596   6.073   3.457   1.050 -0.0044 -0.2557 -0.1974
13394TIP3    H161597   6.072   3.369   1.087 -0.5484 -0.0931  0.1757
13394TIP3    H261598   5.984   3.470   1.017  0.2401 -0.0743 -0.8015
13395TIP3   OH261599   0.661   2.109  13.385  0.4045  0.1202 -0.6235
13395TIP3    H161600   0.592   2.061  13.339  1.1172  2.0386 -3.9032
13395TIP3    H261601   0.614   2.171  13.440 -0.5133 -0.3858 -0.8338
13396TIP3   OH261602   5.275   0.542  13.390  0.2308 -0.3773 -0.0156
13396TIP3    H161603   5.311   0.604  13.453 -0.7183  0.6867 -0.5045
13396TIP3    H261604   5.311   0.569  13.305  0.7862 -1.2487 -0.0618
13397TIP3   OH261605   3.428   3.800  16.245 -0.6573  0.1279  0.3760
13397TIP3    H161606   3.403   3.710  16.226 -0.7966  0.3375 -0.4548
13397TIP3    H261607   3.353   3.852  16.218  0.3853  0.6983 -1.4662
13398TIP3   OH261608   3.872   1.097   2.839  0.1007  0.0843  0.6644
13398TIP3    H161609   3.939   1.105   2.907  1.9465  1.0377 -1.2450
13398TIP3    H261610   3.903   1.150   2.767 -4.1545  3.0194  0.7862
13399TIP3   OH261611   1.633   2.211  12.791 -0.2446  0.2895 -0.0403
13399TIP3    H161612   1.641   2.238  12.699 -1.2116 -0.3012 -0.3018
13399TIP3    H261613   1.625   2.294  12.839  0.0712  0.5936 -0.5046
13400TIP3   OH261614   2.077   3.731   4.948 -0.3522 -0.2288 -0.2164
13400TIP3    H161615   2.105   3.657   5.001 -0.7725 -0.1363  0.1380
13400TIP3    H261616   2.113   3.714   4.861  1.2278  0.1296  0.3455
13401TIP3   OH261617   6.603   1.825   1.007 -0.1968 -0.2391  0.0988
13401TIP3    H161618   6.594   1.902   1.064  0.2182 -0.0666 -0.0637
13401TIP3    H261619   6.676   1.776   1.046 -0.8125 -0.8244  0.5143
13402TIP3   OH261620   1.415   0.087   3.799 -0.3336 -0.3172  1.1543
13402TIP3    H161621   1.360   0.122   3.869 -1.0639 -2.4802  1.6979
13402TIP3    H261622   1.452   0.007   3.835  2.8455  0.8588  0.6128
13403TIP3   OH261623   6.710   1.058   5.129 -0.1387 -0.2483  0.3187
13403TIP3    H161624   6.736   1.144   5.162 -1.2666  0.3239 -0.2561
13403TIP3    H261625   6.738   0.996   5.197 -0.6440  0.7232  1.4269
13404TIP3   OH261626   2.758   1.718  16.769  0.4521 -0.0632  0.2741
13404TIP3    H161627   2.812   1.675  16.836  0.4340 -0.3713  0.0921
13404TIP3    H261628   2.722   1.645  16.718  2.1063  0.2292 -1.3504
13405TIP3   OH261629   1.537   5.375  14.375  0.4843 -0.6555 -0.5884
13405TIP3    H161630   1.545   5.280  14.365 -0.2142 -0.9061  1.0631
13405TIP3    H261631   1.444   5.389  14.394  0.8385  0.2239  0.5510
13406TIP3   OH261632   6.554   3.053   3.414 -0.1430  0.0020  0.0503
13406TIP3    H161633   6.499   3.003   3.353 -0.2499 -0.2209  0.3227
13406TIP3    H261634   6.618   3.097   3.359  1.0778 -1.8671 -0.0583
13407TIP3   OH261635   1.154   1.503   2.692 -0.1113 -0.2575 -0.0523
13407TIP3    H161636   1.138   1.469   2.780  0.1919 -1.6757 -0.5324
13407TIP3    H261637   1.081   1.470   2.640 -1.0699  1.7790 -0.0423
13408TIP3   OH261638   1.632   5.145   0.968 -0.1999  0.1490 -0.4381
13408TIP3    H161639   1.630   5.206   1.041 -0.0087  0.9144 -1.0700
13408TIP3    H261640   1.709   5.090   0.985 -0.6913 -0.2948  0.4164
13409TIP3   OH261641   4.656   1.535  12.463  0.3201 -0.2182 -0.3482
13409TIP3    H161642   4.742   1.576  12.470 -0.1927  0.3412  3.1671
13409TIP3    H261643   4.600   1.604  12.429  1.0506 -0.3468 -1.8683
13410TIP3   OH261644   5.623   4.262  17.216  0.5583 -0.2078  0.5388
13410TIP3    H161645   5.690   4.240  17.281 -0.9759 -0.3180  2.1259
13410TIP3    H261646   5.653   4.345  17.179  1.0119  0.3194  2.0368
13411TIP3   OH261647   1.059   5.324  16.114  0.2920 -0.4528 -0.3749
13411TIP3    H161648   0.967   5.303  16.096  0.0055  0.1063  0.4356
13411TIP3    H261649   1.103   5.239  16.116 -0.0136 -0.6669 -1.7751
13412TIP3   OH261650   5.087   5.936   0.727  0.2316  0.3744 -1.0866
13412TIP3    H161651   5.182   5.949   0.732  0.6164 -2.0135 -1.5507
13412TIP3    H261652   5.074   5.887   0.646 -1.3621  0.2757 -0.7821
13413TIP3   OH261653   2.372   5.572  16.914  0.2518 -0.3393 -0.0364
13413TIP3    H161654   2.433   5.532  16.852  1.8202  1.6981  0.1315
13413TIP3    H261655   2.357   5.504  16.980  2.1652 -0.9868 -0.2210
13414TIP3   OH261656   3.837   4.250  15.458  0.4903  0.6491  0.0454
13414TIP3    H161657   3.800   4.338  15.449 -0.6470 -0.0357 -2.2140
13414TIP3    H261658   3.791   4.213  15.533 -3.0615  0.0400 -2.3517
13415TIP3   OH261659   0.866   4.164   6.056  0.5502 -0.1485 -0.1925
13415TIP3    H161660   0.945   4.124   6.092  0.4081 -1.1845 -1.0113
13415TIP3    H261661   0.898   4.231   5.996  0.7889  0.8333  0.9978
13416TIP3   OH261662   0.537   6.319  12.500  0.4124 -0.0572 -0.1644
13416TIP3    H161663   0.562   6.363  12.582 -0.5846 -0.4553  0.3611
13416TIP3    H261664   0.603   6.347  12.437 -0.2426  2.3061  0.1273
13417TIP3   OH261665   0.675   4.880  14.921 -0.6563 -0.3771 -0.0737
13417TIP3    H161666   0.582   4.901  14.925 -0.4247  0.6600  0.0117
13417TIP3    H261667   0.696   4.850  15.009 -0.8086 -0.1956  0.0248
13418TIP3   OH261668   2.263   2.529  14.058 -0.3766  0.3552 -0.6684
13418TIP3    H161669   2.355   2.509  14.075 -0.8401  0.6142  2.3611
13418TIP3    H261670   2.254   2.621  14.082 -1.2413  0.5839 -1.8503
13419TIP3   OH261671   1.412   6.675   2.892 -0.3282 -0.6749 -0.1290
13419TIP3    H161672   1.317   6.666   2.880 -0.4068 -0.5602  0.3616
13419TIP3    H261673   1.422   6.761   2.933 -0.2950 -1.9410  2.6859
13420TIP3   OH261674   0.553   4.330  13.485  0.0766  0.3371 -0.1454
13420TIP3    H161675   0.577   4.245  13.521 -0.6891  0.3817  0.4524
13420TIP3    H261676   0.458   4.329  13.480  0.0638  1.1668 -0.1242
13421TIP3   OH261677   5.815   6.639   6.511  0.2229  0.1458  0.4725
13421TIP3    H161678   5.830   6.733   6.509 -0.2806  0.2430  1.1493
13421TIP3    H261679   5.883   6.603   6.454  0.7749  0.8696  0.6594
13422TIP3   OH261680   0.826   4.967  15.215  0.1074 -0.3377 -0.2879
13422TIP3    H161681   0.828   4.879  15.178  1.9227  0.7381 -2.9275
13422TIP3    H261682   0.905   4.973  15.269  0.0318 -0.2815 -0.1824
13423TIP3   OH261683   6.498   4.169   1.118 -0.7269  0.4198  0.0969
13423TIP3    H161684   6.529   4.226   1.188 -0.4321 -0.7598  0.9176
13423TIP3    H261685   6.534   4.208   1.038  0.0296  0.9969  0.7164
13424TIP3   OH261686   2.948   1.293  16.189  0.2063 -0.4809  0.4710
13424TIP3    H161687   2.898   1.223  16.148 -0.1661  0.8592 -1.4142
13424TIP3    H261688   2.966   1.355  16.118 -0.0473  1.6735  2.2189
13425TIP3   OH261689   0.228   4.190  12.313 -0.1156 -0.0445 -0.8083
13425TIP3    H161690   0.175   4.251  12.262 -1.0161 -1.1586 -1.2494
13425TIP3    H261691   0.311   4.186  12.266  0.2180  1.4270 -0.3333
13426TIP3   OH261692   2.475   4.015  12.272 -0.4408 -0.7112  0.4076
13426TIP3    H161693   2.505   4.102  12.296 -0.9951 -0.8078  1.5356
13426TIP3    H261694   2.537   3.956  12.315  2.0221 -0.8820 -3.2354
13427TIP3   OH261695   2.542   2.357  14.878 -0.6289  0.5001 -0.3333
13427TIP3    H161696   2.577   2.364  14.789  2.5856 -1.8092  0.6916
13427TIP3    H261697   2.513   2.267  14.886 -3.6917  1.4552  0.0495
13428TIP3   OH261698   0.542   5.443   4.526  0.1021  0.3030 -0.8357
13428TIP3    H161699   0.518   5.354   4.502 -0.2224  0.1464  0.0818
13428TIP3    H261700   0.542   5.491   4.442 -0.9436 -0.2640 -1.1621
13429TIP3   OH261701   2.877   4.095   3.324  0.0954  0.1021  0.3265
13429TIP3    H161702   2.926   4.040   3.385  1.3030  0.6411 -0.1343
13429TIP3    H261703   2.942   4.122   3.259 -1.2122 -0.6538 -1.3379
13430TIP3   OH261704   6.108   6.453   5.206  0.1618 -0.2270  0.1751
13430TIP3    H161705   6.050   6.497   5.144 -0.0536 -1.4526 -0.4956
13430TIP3    H261706   6.097   6.360   5.188  0.2207 -0.5903  1.9585
13431TIP3   OH261707   0.903   0.369  11.619  0.0715 -0.3510  0.4314
13431TIP3    H161708   0.990   0.384  11.581 -1.0026  1.2062 -1.5019
13431TIP3    H261709   0.917   0.376  11.714  2.1158 -0.4675  0.1612
13432TIP3   OH261710   4.787   2.417  13.341  0.4363  0.3546 -0.6280
13432TIP3    H161711   4.722   2.467  13.292  0.8982  2.9293  1.3123
13432TIP3    H261712   4.871   2.454  13.314  0.9990 -1.5746 -1.5865
13433TIP3   OH261713   6.274   3.389   0.017 -0.2697 -0.8183  0.5457
13433TIP3    H161714   6.341   3.401   0.084 -0.3164  1.1879  0.2707
13433TIP3    H261715   6.232   3.307   0.040  0.5967 -0.8255  2.2084
13434TIP3   OH261716   1.179   3.922   4.922  0.3012  0.2715  0.4822
13434TIP3    H161717   1.138   3.993   4.872 -0.2954 -0.2835  0.1731
13434TIP3    H261718   1.128   3.845   4.899  1.9499 -0.5645 -0.4247
13435TIP3   OH261719   2.687   0.349   6.219  0.0111  0.2973  0.6689
13435TIP3    H161720   2.760   0.320   6.274  1.2661 -1.4858 -1.8613
13435TIP3    H261721   2.714   0.435   6.186  0.5074  0.1062  0.5777
13436TIP3   OH261722   5.850   6.400  14.958  0.1529 -0.5447 -0.5464
13436TIP3    H161723   5.831   6.344  14.882  1.9088 -1.2535 -0.4934
13436TIP3    H261724   5.858   6.488  14.922  2.6653 -1.1177 -1.4776
13437TIP3   OH261725   3.775   5.966  17.086  0.2186 -0.2859 -0.0535
13437TIP3    H161726   3.843   5.954  17.019  0.3240 -1.8323  0.3061
13437TIP3    H261727   3.791   5.896  17.149 -0.7155  0.3333  0.8914
13438TIP3   OH261728   5.305   3.980  16.714 -0.5876 -0.0741 -0.4208
13438TIP3    H161729   5.308   4.011  16.805 -0.1477  1.5724 -0.9713
13438TIP3    H261730   5.279   4.057  16.664 -3.0399 -1.5405 -1.4532
13439TIP3   OH261731   1.430   3.141   5.071 -0.7101  0.1985 -0.4357
13439TIP3    H161732   1.518   3.137   5.107 -0.6642  0.0513 -0.5647
13439TIP3    H261733   1.423   3.065   5.014 -0.5001  0.8659 -1.3771
13440TIP3   OH261734   5.768   5.460  11.941  0.0076 -0.2279 -0.3461
13440TIP3    H161735   5.682   5.439  11.978 -0.0456  0.9601  0.2191
13440TIP3    H261736   5.768   5.556  11.933  0.9942 -0.2752 -1.0501
13441TIP3   OH261737   5.295   2.967  10.787 -0.2082 -0.0491 -0.2109
13441TIP3    H161738   5.348   2.992  10.711 -0.4767  0.3178 -0.2789
13441TIP3    H261739   5.208   2.948  10.751 -0.2096 -0.3429 -0.0586
13442TIP3   OH261740   2.041   0.474   3.359  0.0148  0.1565 -0.3039
13442TIP3    H161741   2.006   0.385   3.353  2.7875 -0.9528 -0.8240
13442TIP3    H261742   2.133   0.465   3.335  0.6603  2.9718  0.9288
13443TIP3   OH261743   3.789   5.239  14.282 -0.4429 -0.8436 -0.3174
13443TIP3    H161744   3.712   5.260  14.229 -1.2154  0.3120  1.2212
13443TIP3    H261745   3.833   5.323  14.295 -0.6830 -0.9664  1.4838
13444TIP3   OH261746   2.614   1.213  13.048  0.0218 -0.3837 -0.0054
13444TIP3    H161747   2.547   1.145  13.051 -0.3473 -0.0758 -0.8879
13444TIP3    H261748   2.696   1.165  13.041 -0.2361 -0.7547 -0.6034
13445TIP3   OH261749   6.262   0.089   1.888 -0.5010 -0.0504 -0.1223
13445TIP3    H161750   6.281   0.025   1.956 -2.2122  1.2672  1.6507
13445TIP3    H261751   6.316   0.165   1.910  1.9092 -0.9581 -2.5034
13446TIP3   OH261752   1.377   6.384   5.454  0.3079  0.0749 -1.0121
13446TIP3    H161753   1.393   6.477   5.440  2.6276  0.0369  1.0859
13446TIP3    H261754   1.336   6.380   5.541  1.7109 -0.9544 -0.3724
13447TIP3   OH261755   6.685   2.736   0.341  0.2094  0.2689  0.0598
13447TIP3    H161756   6.680   2.641   0.354  0.2794  0.2792  0.1640
13447TIP3    H261757   6.602   2.769   0.376  0.3288  0.2802  0.3320
13448TIP3   OH261758   1.139   2.364  14.906 -0.4386 -0.4827  0.3844
13448TIP3    H161759   1.202   2.418  14.954 -1.6844  0.5878  0.8499
13448TIP3    H261760   1.159   2.380  14.814 -1.2146  1.3106  0.5086
13449TIP3   OH261761   5.169   2.536   1.106 -0.1547 -0.0828 -0.6037
13449TIP3    H161762   5.079   2.518   1.079  0.2363 -0.8930 -1.3921
13449TIP3    H261763   5.220   2.463   1.070  0.8209  0.3851 -0.1871
13450TIP3   OH261764   0.104   5.561  16.075  0.0835 -0.5629  0.2009
13450TIP3    H161765   0.184   5.559  16.023 -0.5259  0.1306 -0.8061
13450TIP3    H261766   0.085   5.470  16.095 -0.8487 -1.0603 -2.6995
13451TIP3   OH261767   2.607   3.255  15.644 -0.6483 -0.1313  0.2259
13451TIP3    H161768   2.641   3.311  15.714 -0.1956 -2.2757  1.7424
13451TIP3    H261769   2.512   3.264  15.651 -0.5667  1.1018 -0.0928
13452TIP3   OH261770   2.238   4.017  16.806  0.3778  0.0385  0.8362
13452TIP3    H161771   2.242   4.102  16.850 -0.5266  0.6406 -0.2276
13452TIP3    H261772   2.310   4.020  16.743  2.1821 -1.1354  2.7652
13453TIP3   OH261773   4.862   2.459  15.762  0.2302  0.7323  0.0774
13453TIP3    H161774   4.806   2.393  15.721 -0.5877  0.8662  0.9757
13453TIP3    H261775   4.831   2.542  15.725  0.0917  0.7706  0.2798
13454TIP3   OH261776   3.465   0.738   3.444  0.3408  0.1437  0.0276
13454TIP3    H161777   3.470   0.681   3.521  0.7362 -1.4796 -1.1751
13454TIP3    H261778   3.396   0.699   3.391 -2.5691  3.4236  1.2543
13455TIP3   OH261779   4.601   4.063   1.007 -0.6807  0.3458 -0.1080
13455TIP3    H161780   4.605   4.092   0.916 -0.5005  0.5975 -0.0205
13455TIP3    H261781   4.631   4.138   1.057 -0.6300  0.1530  0.1509
13456TIP3   OH261782   6.255   5.944  15.628  0.0976 -0.2081  0.5582
13456TIP3    H161783   6.272   6.013  15.692  0.8740 -0.7478  0.9259
13456TIP3    H261784   6.263   5.989  15.543  0.3917  0.2014  0.8008
13457TIP3   OH261785   6.382   1.711  13.398 -0.0683  0.3586  0.2396
13457TIP3    H161786   6.388   1.656  13.476  3.2484 -1.2322 -1.0155
13457TIP3    H261787   6.346   1.654  13.330 -0.4539  0.9357 -0.0450
13458TIP3   OH261788   0.640   1.612  14.497 -0.3264 -0.3242  0.0501
13458TIP3    H161789   0.679   1.696  14.520 -0.4536 -0.8787  2.4099
13458TIP3    H261790   0.711   1.549  14.508 -0.5651 -0.6977 -0.5235
13459TIP3   OH261791   3.156   4.697  10.802 -0.1278 -0.3737 -0.7233
13459TIP3    H161792   3.073   4.744  10.800 -0.3627 -0.7878 -0.6665
13459TIP3    H261793   3.136   4.614  10.845  0.2186 -0.6636 -1.1201
13460TIP3   OH261794   4.802   3.635  10.365  0.2543  0.0237  0.0264
13460TIP3    H161795   4.782   3.650  10.458  1.5624 -2.0598  0.6706
13460TIP3    H261796   4.738   3.569  10.337  1.1300 -0.8013 -0.0260
13461TIP3   OH261797   3.851   0.577  11.556  0.0687 -0.8365 -0.2976
13461TIP3    H161798   3.778   0.633  11.530  1.4128  0.7289 -0.7420
13461TIP3    H261799   3.821   0.534  11.636 -1.0198  0.4190 -0.0241
13462TIP3   OH261800   2.756   5.706   1.789 -0.0978  0.3682 -0.4562
13462TIP3    H161801   2.732   5.629   1.841 -2.0085 -1.1754 -3.4718
13462TIP3    H261802   2.697   5.775   1.819  0.2598  0.1105  0.8718
13463TIP3   OH261803   4.015   6.045   4.335  0.2531  0.8055  0.0446
13463TIP3    H161804   4.010   5.967   4.281  2.1106  0.2194  0.7109
13463TIP3    H261805   3.924   6.076   4.340 -0.1726 -0.0612 -2.0047
13464TIP3   OH261806   5.115   4.484   5.637  0.6388  0.4681 -0.6529
13464TIP3    H161807   5.201   4.448   5.656 -0.0790 -1.1488 -0.3945
13464TIP3    H261808   5.081   4.512   5.722 -1.0008 -3.2619  0.0271
13465TIP3   OH261809   2.827   2.113  11.456 -0.8099  0.0711 -0.3248
13465TIP3    H161810   2.761   2.124  11.524  1.6410 -1.1046  2.3788
13465TIP3    H261811   2.857   2.201  11.435  0.3271  0.3115  2.1649
13466TIP3   OH261812   4.461   3.963   6.712 -0.5924  0.7341  0.1809
13466TIP3    H161813   4.377   3.927   6.684  0.4068 -0.5433 -1.2528
13466TIP3    H261814   4.493   3.903   6.779 -0.0308  0.2424 -0.5149
13467TIP3   OH261815   5.047   5.446  14.628  0.5397 -0.4003 -0.2406
13467TIP3    H161816   5.129   5.492  14.645  1.2423 -1.8574  0.3214
13467TIP3    H261817   5.056   5.362  14.672 -1.0202 -0.8179 -0.6758
13468TIP3   OH261818   1.587   5.099   5.728 -0.4161 -0.2397  0.0193
13468TIP3    H161819   1.673   5.129   5.698 -0.5023 -0.0062  0.0070
13468TIP3    H261820   1.602   5.008   5.755 -0.3762 -0.4942 -0.8561
13469TIP3   OH261821   1.264   1.075  15.908  0.0845  0.2282 -0.2460
13469TIP3    H161822   1.325   1.021  15.856 -0.4683 -0.4914 -0.1464
13469TIP3    H261823   1.322   1.130  15.962  0.6827 -2.5396  2.0365
13470TIP3   OH261824   1.108   0.461  16.151  0.1890 -0.3959  0.0365
13470TIP3    H161825   1.056   0.446  16.072  0.0419  0.1966  0.0224
13470TIP3    H261826   1.192   0.492  16.119 -0.4527  1.5369  0.1641
13471TIP3   OH261827   2.706   4.711  16.580  0.3501 -0.4714 -0.1999
13471TIP3    H161828   2.737   4.764  16.653 -0.9993  1.5883 -1.0643
13471TIP3    H261829   2.740   4.755  16.502 -1.2790 -0.5181 -0.9551
13472TIP3   OH261830   0.267   1.621  15.518  0.3584 -0.5306  0.0163
13472TIP3    H161831   0.252   1.680  15.592 -0.6219 -1.5602  0.6488
13472TIP3    H261832   0.197   1.642  15.456  0.8447 -0.0622 -0.3805
13473TIP3   OH261833   5.619   3.736   3.979  0.3416 -0.1888  0.2358
13473TIP3    H161834   5.566   3.724   3.900  1.3727  0.5757 -0.5916
13473TIP3    H261835   5.620   3.650   4.022  0.0561 -0.6910 -0.7648
13474TIP3   OH261836   6.728   4.726   5.024 -0.1904  0.7292  0.3913
13474TIP3    H161837   6.793   4.666   4.989  0.6736  1.3517  0.9300
13474TIP3    H261838   6.646   4.698   4.983  0.0988 -1.1553  1.0539
13475TIP3   OH261839   0.714   4.409   2.993  0.6831  0.4021 -0.2648
13475TIP3    H161840   0.669   4.465   2.930 -1.7778 -0.6902  0.4787
13475TIP3    H261841   0.768   4.470   3.044  0.9306  1.5815 -1.8622
13476TIP3   OH261842   2.395   1.685   2.964  0.2316  0.6811 -0.1634
13476TIP3    H161843   2.446   1.646   3.034  2.0341  0.6806 -1.4464
13476TIP3    H261844   2.307   1.696   3.001 -0.0848 -3.5814  0.5562
13477TIP3   OH261845   0.477   4.473  12.493 -0.0395  0.1860 -0.3661
13477TIP3    H161846   0.528   4.536  12.543 -0.3896  2.1126 -2.3448
13477TIP3    H261847   0.500   4.491  12.401 -2.7705 -0.1933 -1.1875
13478TIP3   OH261848   0.183   0.254  16.095  0.2367  0.3069  0.3129
13478TIP3    H161849   0.168   0.161  16.076  0.3506 -0.0193  1.7335
13478TIP3    H261850   0.096   0.292  16.100  0.1933  0.2896 -0.3758
13479TIP3   OH261851   2.629   4.899   1.575 -0.2406  0.1281  0.7079
13479TIP3    H161852   2.602   4.822   1.626  1.5712  0.6431  2.5098
13479TIP3    H261853   2.556   4.960   1.584 -0.4331 -0.2420  1.7066
13480TIP3   OH261854   1.707   5.750   3.421  0.4103  0.7100  0.1873
13480TIP3    H161855   1.727   5.843   3.429 -2.8406  1.5634 -0.9861
13480TIP3    H261856   1.760   5.720   3.348 -1.0477  2.4625 -1.6452
13481TIP3   OH261857   0.949   4.522  13.552 -0.0365 -0.2159 -0.3603
13481TIP3    H161858   0.854   4.531  13.560  0.1417  0.6489  0.8901
13481TIP3    H261859   0.985   4.577  13.622  1.3820 -0.6692 -0.7064
13482TIP3   OH261860   6.026   4.537  13.052 -0.2500 -0.2797  0.5264
13482TIP3    H161861   6.086   4.470  13.084  0.8629  0.1886 -0.5414
13482TIP3    H261862   6.032   4.607  13.118  1.7078  0.4926 -0.4099
13483TIP3   OH261863   1.734   6.396   1.848 -0.3476 -0.3432 -0.1698
13483TIP3    H161864   1.728   6.435   1.761  2.0880 -0.4445 -0.4112
13483TIP3    H261865   1.674   6.448   1.901  0.6997  1.9326 -1.1371
13484TIP3   OH261866   3.654   5.467   6.122  0.0093  0.3069 -0.1343
13484TIP3    H161867   3.594   5.539   6.137  0.3230  0.2176  1.5890
13484TIP3    H261868   3.711   5.466   6.198  1.3312 -0.4729 -1.1041
13485TIP3   OH261869   6.733   1.413  10.992 -0.2969 -0.8638  0.8798
13485TIP3    H161870   6.648   1.447  10.964  1.8433  2.8733 -1.4252
13485TIP3    H261871   6.770   1.372  10.914  1.1889  0.0290  1.0961
13486TIP3   OH261872   0.888   3.265  12.361  0.0986 -0.6018 -0.0175
13486TIP3    H161873   0.859   3.313  12.284 -0.7090 -0.3114  0.4694
13486TIP3    H261874   0.984   3.272  12.359  0.0341  0.1575 -0.5006
13487TIP3   OH261875   5.885   1.176  14.918  0.1069  0.5515  0.1159
13487TIP3    H161876   5.857   1.167  14.827  0.8660  0.7176 -0.1420
13487TIP3    H261877   5.956   1.112  14.928 -1.0666 -0.6115  1.0616
13488TIP3   OH261878   6.061   3.670  16.322  0.0190  0.7952  0.0315
13488TIP3    H161879   6.041   3.633  16.236 -0.3592  0.7218  0.1487
13488TIP3    H261880   6.082   3.761  16.305  2.0295  0.2802 -0.4066
13489TIP3   OH261881   1.419   5.393  13.816  0.2910 -0.4732  0.7117
13489TIP3    H161882   1.359   5.322  13.790 -0.2150  0.4360 -0.6599
13489TIP3    H261883   1.393   5.414  13.905  1.0225 -2.6106  1.4730
13490TIP3   OH261884   0.819   3.138  15.142 -0.4578  0.4439  0.4571
13490TIP3    H161885   0.872   3.118  15.065 -0.3836  0.5861  0.4709
13490TIP3    H261886   0.872   3.108  15.216 -1.4363 -1.6924  0.3560
13491TIP3   OH261887   4.882   2.211   5.329 -0.1554  0.2358 -0.2500
13491TIP3    H161888   4.846   2.261   5.256 -0.7003  0.6886  0.3289
13491TIP3    H261889   4.806   2.191   5.384  0.1632 -0.6284 -0.1238
13492TIP3   OH261890   4.233   2.359  12.692 -0.6195  0.0457  0.3563
13492TIP3    H161891   4.321   2.387  12.665 -0.2160 -0.1362  1.4796
13492TIP3    H261892   4.176   2.393  12.623  0.3834 -0.2938 -0.6747
13493TIP3   OH261893   2.739   0.892   2.017  0.5865  0.1666 -0.0161
13493TIP3    H161894   2.786   0.945   2.081  0.8779 -0.5382  0.3493
13493TIP3    H261895   2.705   0.818   2.067 -1.8327  1.2016 -0.0369
13494TIP3   OH261896   0.291   4.801   5.430  0.1600  0.0791 -0.2450
13494TIP3    H161897   0.382   4.792   5.401  0.0702  1.8467 -1.1384
13494TIP3    H261898   0.246   4.841   5.356 -1.4869 -1.3358 -0.0308
13495TIP3   OH261899   0.114   4.235   4.132  0.1866  0.8307  0.2140
13495TIP3    H161900   0.204   4.221   4.162  0.1329 -0.8050 -0.3353
13495TIP3    H261901   0.064   4.162   4.170 -0.4985  0.5708 -1.1345
13496TIP3   OH261902   4.834   3.006  12.168 -0.8656  0.0067 -0.3373
13496TIP3    H161903   4.873   3.018  12.255 -0.3294 -0.9460 -0.4338
13496TIP3    H261904   4.795   3.091  12.147  1.4103  1.0873 -0.3539
13497TIP3   OH261905   3.155   0.960  13.543  0.0077 -0.2145 -0.1823
13497TIP3    H161906   3.250   0.953  13.546 -0.1477 -2.4543  0.5640
13497TIP3    H261907   3.135   1.038  13.595  1.3675 -0.4242  0.6853
13498TIP3   OH261908   6.094   2.209  14.195 -0.9260  0.0221  0.3352
13498TIP3    H161909   6.124   2.157  14.270 -0.2932  0.5904  0.4813
13498TIP3    H261910   6.095   2.299  14.226 -1.6381  0.1622 -0.0443
13499TIP3   OH261911   3.260   4.392   0.765  0.2405 -0.0740 -0.2858
13499TIP3    H161912   3.338   4.448   0.759 -0.8842  1.3031 -3.0261
13499TIP3    H261913   3.191   4.451   0.795 -0.2076 -0.8223  0.1667
13500TIP3   OH261914   4.018   0.432   3.414  0.1924  0.1908 -0.1946
13500TIP3    H161915   4.038   0.523   3.435  1.8778  0.1648 -1.5094
13500TIP3    H261916   4.102   0.395   3.386 -0.8885 -1.1479 -1.8014
13501TIP3   OH261917   5.811   3.761   4.212 -0.3099  0.7917  0.5076
13501TIP3    H161918   5.783   3.830   4.271 -0.3374 -0.9431  2.5676
13501TIP3    H261919   5.730   3.715   4.188 -0.2578  1.2566 -0.6198
13502TIP3   OH261920   4.003   6.714   4.383  0.4465  0.2592  0.0509
13502TIP3    H161921   4.002   6.772   4.459  1.1884  0.5468 -0.1499
13502TIP3    H261922   4.089   6.673   4.386 -0.9928 -2.7621  1.6208
13503TIP3   OH261923   4.173   4.943  14.709  0.6024 -0.0824  0.3285
13503TIP3    H161924   4.077   4.939  14.709  0.6239 -2.0091 -1.9680
13503TIP3    H261925   4.199   4.887  14.782 -0.0168  1.4514  1.7499
13504TIP3   OH261926   4.506   5.970   5.323  0.0390  0.2279  0.0791
13504TIP3    H161927   4.593   5.963   5.283 -0.2594 -1.1906 -0.3554
13504TIP3    H261928   4.491   5.884   5.363 -0.2415  1.1710  2.0680
13505TIP3   OH261929   1.548   1.483   1.185 -0.0040 -0.3557  0.4360
13505TIP3    H161930   1.552   1.413   1.250  2.0882 -0.5685  0.1186
13505TIP3    H261931   1.536   1.438   1.102 -0.9048 -0.1855  0.4659
13506TIP3   OH261932   4.845   5.461  16.330  0.3000 -0.1476  0.3521
13506TIP3    H161933   4.910   5.439  16.264  0.4302 -0.0168  0.4371
13506TIP3    H261934   4.844   5.386  16.389  2.3747  0.9964  1.9333
13507TIP3   OH261935   0.888   6.749  13.716 -0.4643 -0.4348  0.6380
13507TIP3    H161936   0.828   6.723  13.786 -1.5138 -0.4098 -0.2333
13507TIP3    H261937   0.870   6.687  13.645  0.2701 -0.1835  0.2270
13508TIP3   OH261938   5.500   4.297  15.874 -0.0760 -0.0212  0.0525
13508TIP3    H161939   5.515   4.207  15.843  0.1568 -0.2075  0.6885
13508TIP3    H261940   5.555   4.351  15.818  0.6972 -0.4006  0.4289
13509TIP3   OH261941   1.147   5.147  14.456  0.4002  0.0956 -0.9387
13509TIP3    H161942   1.079   5.213  14.444 -0.0296  0.0385  1.0647
13509TIP3    H261943   1.212   5.167  14.388 -0.0099  2.2064 -0.7488
13510TIP3   OH261944   5.424   6.264  15.634 -0.4043  0.4580  0.5958
13510TIP3    H161945   5.451   6.178  15.664 -0.8830  0.3555  0.7323
13510TIP3    H261946   5.496   6.294  15.577 -0.1942  0.0186  0.6339
13511TIP3   OH261947   5.671   1.173   5.241 -0.0020 -0.3680 -0.1285
13511TIP3    H161948   5.763   1.198   5.239  0.3148 -1.4274  0.9578
13511TIP3    H261949   5.648   1.163   5.148  0.8042  0.4721 -0.4333
13512TIP3   OH261950   5.428   3.848   5.897  0.5035 -0.1266  0.1162
13512TIP3    H161951   5.478   3.908   5.841 -2.8559  0.2204 -2.7478
13512TIP3    H261952   5.433   3.886   5.984  1.8537  2.1017 -0.8858
13513TIP3   OH261953   6.086   0.263   4.398 -0.2353 -0.0629  0.3507
13513TIP3    H161954   6.140   0.340   4.412  0.4890 -0.4982 -0.0090
13513TIP3    H261955   6.148   0.190   4.399 -0.5122 -0.3840 -2.2179
13514TIP3   OH261956   0.554   3.680  13.954 -0.4397  0.2389  0.6014
13514TIP3    H161957   0.617   3.721  14.013  0.3989  0.2608 -0.3014
13514TIP3    H261958   0.566   3.586  13.967 -1.5890  0.2552  1.8558
13515TIP3   OH261959   3.741   6.749  13.689 -0.0869  0.1459 -0.6914
13515TIP3    H161960   3.827   6.757  13.731 -0.1070 -1.9086 -0.1898
13515TIP3    H261961   3.761   6.718  13.600 -0.2688  0.1454 -0.7318
13516TIP3   OH261962   3.953   5.097   4.747  0.3567  0.7071 -0.4160
13516TIP3    H161963   3.871   5.122   4.704 -0.8998 -0.1334  1.4148
13516TIP3    H261964   3.934   5.105   4.840  2.0074 -0.5635  0.0483
13517TIP3   OH261965   3.528   6.164   4.661 -0.4579  0.4669  0.3440
13517TIP3    H161966   3.474   6.129   4.733 -0.5207 -1.6538 -0.7058
13517TIP3    H261967   3.608   6.112   4.664  0.3584  1.6792  0.0651
13518TIP3   OH261968   5.389   6.563   3.678  0.9635  0.0337 -0.2314
13518TIP3    H161969   5.309   6.510   3.674  0.7605  0.4301 -1.6735
13518TIP3    H261970   5.460   6.499   3.681  0.8442 -0.3833 -4.3382
13519TIP3   OH261971   4.806   2.738  16.001 -0.0436  0.1759 -0.4624
13519TIP3    H161972   4.785   2.665  16.060 -1.4299 -0.8920 -2.2474
13519TIP3    H261973   4.785   2.705  15.914 -2.0685  3.2055 -1.1596
13520TIP3   OH261974   1.333   0.153   6.449  0.2994 -0.0906  0.7908
13520TIP3    H161975   1.246   0.189   6.462 -0.2301 -1.2285  0.4367
13520TIP3    H261976   1.319   0.060   6.432  1.6255 -0.4289  1.4385
13521TIP3   OH261977   2.362   2.316  14.505 -0.0171 -0.1892  0.0264
13521TIP3    H161978   2.325   2.338  14.590  1.9393 -2.0330  1.3927
13521TIP3    H261979   2.315   2.237  14.478  0.8384 -0.8113  0.3661
13522TIP3   OH261980   5.701   0.682   1.415  0.0430 -0.1782  0.5068
13522TIP3    H161981   5.782   0.727   1.388 -0.2372  0.4363  0.6773
13522TIP3    H261982   5.639   0.702   1.345 -0.0306 -0.4518  0.4961
13523TIP3   OH261983   2.878   0.072  14.743 -0.7345  0.5490  0.1914
13523TIP3    H161984   2.787   0.078  14.773 -1.2447  0.1708 -1.2162
13523TIP3    H261985   2.912  -0.008  14.784 -0.8099  1.0642  1.2805
13524TIP3   OH261986   1.585   4.112  11.051 -0.1115  0.0788  0.4336
13524TIP3    H161987   1.494   4.097  11.027  0.0569 -0.1057 -0.1117
13524TIP3    H261988   1.595   4.207  11.054 -0.5683  0.0960  1.4675
13525TIP3   OH261989   5.480   1.955  16.287 -0.0184 -0.8181 -0.3343
13525TIP3    H161990   5.437   1.976  16.204 -1.1663 -0.0209  0.4428
13525TIP3    H261991   5.451   1.867  16.308  1.2664 -1.5074 -1.3860
13526TIP3   OH261992   6.745   1.012   1.527 -0.3272 -0.3002 -0.0342
13526TIP3    H161993   6.802   1.080   1.492 -1.8459  1.2754  0.5140
13526TIP3    H261994   6.658   1.051   1.529 -1.1930 -2.1802  0.5038
13527TIP3   OH261995   5.168   5.353  15.721 -0.4902  0.2018  0.1097
13527TIP3    H161996   5.084   5.331  15.680 -0.5092  0.8055 -0.1680
13527TIP3    H261997   5.221   5.274  15.708 -0.1541  0.7340 -1.9711
13528TIP3   OH261998   5.968   3.976  14.571  0.3662  0.1329 -0.1795
13528TIP3    H161999   5.929   4.057  14.538 -0.8854 -0.3383  0.0949
13528TIP3    H262000   5.925   3.962  14.656  0.7246 -0.7089 -0.1321
13529TIP3   OH262001   2.629   5.483   1.917 -0.0425  0.7198 -0.4059
13529TIP3    H162002   2.660   5.428   1.989 -0.6457 -0.8314 -1.2839
13529TIP3    H262003   2.547   5.521   1.949 -0.5435 -0.3213 -0.4065
13530TIP3   OH262004   0.781   0.973   4.394 -0.2118 -0.1562 -0.1944
13530TIP3    H162005   0.687   0.962   4.407 -0.2861  1.0720  0.3971
13530TIP3    H262006   0.817   0.975   4.482  0.5366 -1.8894 -0.4493
13531TIP3   OH262007   4.571   6.108  14.757  0.0692  0.0573 -0.3973
13531TIP3    H162008   4.569   6.121  14.852 -1.9445 -0.3825 -0.3440
13531TIP3    H262009   4.663   6.091  14.737  0.8458  2.1980  1.1821
13532TIP3   OH262010   6.442   1.291   5.019  0.7837 -0.3764 -0.1508
13532TIP3    H162011   6.422   1.200   5.037  0.0816 -0.9441 -3.4070
13532TIP3    H262012   6.401   1.340   5.090 -2.8748 -2.2824 -0.8380
13533TIP3   OH262013   5.047   0.513  14.949 -0.0555  0.0037  0.4635
13533TIP3    H162014   4.968   0.474  14.986  0.9121 -1.3590  1.1477
13533TIP3    H262015   5.089   0.557  15.023 -0.4251  1.1870 -0.0116
13534TIP3   OH262016   5.854   2.354  14.053 -0.1104 -0.2042  0.4850
13534TIP3    H162017   5.853   2.293  14.126 -0.0615 -0.8069 -0.0075
13534TIP3    H262018   5.765   2.350  14.017  0.1694 -0.7612 -0.1706
13535TIP3   OH262019   2.072   6.684   5.405  0.0686 -0.1928  0.5736
13535TIP3    H162020   2.145   6.634   5.440 -2.0152 -3.6167  0.3583
13535TIP3    H262021   2.004   6.679   5.473 -2.1522 -2.5059 -1.6885
13536TIP3   OH262022   6.499   1.193   2.979 -0.9195  0.0020 -0.5306
13536TIP3    H162023   6.410   1.226   2.990 -1.8463 -1.9774 -1.8341
13536TIP3    H262024   6.522   1.214   2.888 -0.0282  0.5277 -0.1958
13537TIP3   OH262025   2.237   2.773   3.841  0.6505  0.4315 -0.2581
13537TIP3    H162026   2.194   2.781   3.926  2.8786 -0.3965  1.0155
13537TIP3    H262027   2.200   2.843   3.788 -3.5015 -1.2789  0.1519
13538TIP3   OH262028   4.505   5.490  11.175 -0.7851 -0.1514 -0.1096
13538TIP3    H162029   4.486   5.396  11.178 -0.7480 -0.1352  0.7267
13538TIP3    H262030   4.445   5.525  11.110  1.6097 -1.3215 -3.0821
13539TIP3   OH262031   3.189   6.077   1.261 -0.8106  0.0674  0.0275
13539TIP3    H162032   3.284   6.071   1.267 -0.5813  2.8917 -0.4525
13539TIP3    H262033   3.157   5.998   1.305  1.7419 -0.9659  0.0730
13540TIP3   OH262034   0.359   0.837   1.373  0.1183  0.5022  0.0590
13540TIP3    H162035   0.273   0.820   1.409  0.4018  1.2251  1.0949
13540TIP3    H262036   0.404   0.888   1.440  1.8184 -1.0041  0.0930
13541TIP3   OH262037   0.966   2.396   3.890  0.0949 -0.0790 -0.8076
13541TIP3    H162038   1.029   2.453   3.846  2.3389 -0.7308  1.4417
13541TIP3    H262039   1.020   2.327   3.928 -1.8271  0.0243  2.2353
13542TIP3   OH262040   2.649   4.554  12.252  0.4165 -0.9355 -0.2304
13542TIP3    H162041   2.615   4.578  12.338  0.4899  1.5846 -0.8729
13542TIP3    H262042   2.743   4.543  12.265  0.4152 -0.6339  0.0445
13543TIP3   OH262043   5.026   0.841   2.966  0.1181  0.0809  0.1070
13543TIP3    H162044   5.005   0.890   3.045 -0.3817 -0.3905  0.2654
13543TIP3    H262045   5.057   0.756   2.997 -0.5296 -0.2770 -0.2148
13544TIP3   OH262046   3.079   6.205  11.731 -0.5274  0.1173  0.1258
13544TIP3    H162047   3.133   6.223  11.654 -0.1459 -0.0595  0.3468
13544TIP3    H262048   3.097   6.113  11.752  0.5716  0.5975  1.3447
13545TIP3   OH262049   4.493   3.466  14.333  0.4475  0.3205  0.0086
13545TIP3    H162050   4.400   3.475  14.311  0.5929 -0.0357 -0.7485
13545TIP3    H262051   4.534   3.545  14.297  0.6499 -0.1582 -0.8224
13546TIP3   OH262052   2.193   6.324  13.352  0.1884 -0.1326  0.2219
13546TIP3    H162053   2.144   6.265  13.410  1.1409 -2.2517 -1.0843
13546TIP3    H262054   2.129   6.351  13.286 -0.7413  1.8176  1.8756
13547TIP3   OH262055   6.624   2.781  13.105 -0.8024 -0.5553  0.2721
13547TIP3    H162056   6.610   2.693  13.071 -2.8402 -0.3216  0.3933
13547TIP3    H262057   6.597   2.776  13.197 -1.3944  0.2947  0.1529
13548TIP3   OH262058   2.168   4.475   5.867  0.2502 -0.3380  0.4585
13548TIP3    H162059   2.172   4.535   5.941  3.8263  0.0341  0.0214
13548TIP3    H262060   2.226   4.513   5.801 -1.7300 -1.4137 -2.0312
13549TIP3   OH262061   2.571   0.709   5.263  0.0691 -0.0055  0.9634
13549TIP3    H162062   2.524   0.779   5.217  3.8159  1.7697 -0.3055
13549TIP3    H262063   2.613   0.658   5.194  0.1348 -1.5321  2.0820
13550TIP3   OH262064   4.445   3.646  11.914  0.4897  0.3427 -0.1868
13550TIP3    H162065   4.533   3.619  11.887  0.0536 -2.2712  0.7824
13550TIP3    H262066   4.388   3.613  11.844  0.2822  2.3307 -0.9849
13551TIP3   OH262067   0.887   0.269  14.004  0.1508 -0.4695 -0.0779
13551TIP3    H162068   0.827   0.266  14.079 -0.7982  1.4380 -0.7280
13551TIP3    H262069   0.963   0.219  14.033 -0.1880  0.2622  2.1892
13552TIP3   OH262070   4.320   0.616  16.987 -0.8670 -0.3116  0.0082
13552TIP3    H162071   4.385   0.591  17.052 -0.1405 -0.6426 -0.8430
13552TIP3    H262072   4.281   0.534  16.957 -0.5598 -0.2297 -0.6342
13553TIP3   OH262073   5.239   6.086  11.605  0.1291  0.6043  0.2675
13553TIP3    H162074   5.236   6.178  11.577  0.3141  0.7116  0.5952
13553TIP3    H262075   5.199   6.086  11.692  1.5092  0.6239  0.9195
13554TIP3   OH262076   1.025   5.610  13.474 -0.2151  0.0914  0.4525
13554TIP3    H162077   1.051   5.698  13.503  1.2504 -0.0555 -0.4099
13554TIP3    H262078   1.023   5.558  13.555  0.3727  0.5480  0.7671
13555TIP3   OH262079   4.118   1.330  13.680  0.0234  0.3678 -0.0118
13555TIP3    H162080   4.122   1.277  13.601 -1.4904  1.0871 -0.5897
13555TIP3    H262081   4.183   1.399  13.667  0.5073 -0.1156 -0.1692
13556TIP3   OH262082   0.268   2.334  15.806 -0.1312  0.2801  0.2628
13556TIP3    H162083   0.300   2.415  15.766 -2.0040  0.9115 -0.0127
13556TIP3    H262084   0.300   2.338  15.896 -0.0307  1.2365  0.1960
13557TIP3   OH262085   5.037   4.035  13.934  0.0497 -0.4048 -0.3837
13557TIP3    H162086   5.076   4.019  13.848  0.0122 -2.1919 -0.0793
13557TIP3    H262087   4.944   4.019  13.921 -0.0292 -0.1679 -0.1147
13558TIP3   OH262088   0.519   0.703  13.770 -0.2312 -0.1086  0.0269
13558TIP3    H162089   0.574   0.775  13.739 -0.0852 -0.4072 -0.4135
13558TIP3    H262090   0.485   0.733  13.855 -1.4808  1.1459 -0.8964
13559TIP3   OH262091   1.127   6.529  12.329  0.6710 -0.4907 -0.4290
13559TIP3    H162092   1.171   6.502  12.409 -0.0540 -0.1435  0.0916
13559TIP3    H262093   1.187   6.592  12.288  0.4032  0.4382  0.5768
13560TIP3   OH262094   6.517   2.113  13.135  0.3606  0.1202  0.1501
13560TIP3    H162095   6.476   2.067  13.208  0.5875 -0.3979 -0.0520
13560TIP3    H262096   6.592   2.157  13.173  1.6804 -1.8153 -0.1501
13561TIP3   OH262097   2.259   3.608   4.086  0.2537 -0.1804  0.1963
13561TIP3    H162098   2.330   3.544   4.090 -0.9025 -1.6581 -1.5274
13561TIP3    H262099   2.221   3.595   3.999 -0.3438  2.5283  0.0174
13562TIP3   OH262100   1.081   4.392   1.277 -0.0280 -0.0053 -0.2881
13562TIP3    H162101   1.129   4.468   1.311 -0.1338  0.2689 -0.7530
13562TIP3    H262102   1.146   4.321   1.276 -0.3529 -0.3811  1.7491
13563TIP3   OH262103   5.229   3.466   4.191  0.1624  0.1826  0.0029
13563TIP3    H162104   5.177   3.441   4.268 -3.5298  0.4756 -2.2456
13563TIP3    H262105   5.206   3.557   4.175  0.1231 -0.1435 -1.9862
13564TIP3   OH262106   2.757   5.730  13.987 -0.2834 -0.3477  0.5257
13564TIP3    H162107   2.744   5.635  13.999 -1.2905 -0.0881  1.5822
13564TIP3    H262108   2.677   5.760  13.945 -0.6345  0.2915  1.6306
13565TIP3   OH262109   5.793   6.474  13.170 -0.1430 -0.6700 -0.3429
13565TIP3    H162110   5.814   6.386  13.138  0.9719 -0.1247 -1.1337
13565TIP3    H262111   5.826   6.533  13.103  2.7464  0.5250  2.0180
13566TIP3   OH262112   1.956   1.194   3.111  0.8097  0.7109  0.1949
13566TIP3    H162113   2.038   1.211   3.064  0.5973 -0.0871 -0.4893
13566TIP3    H262114   1.972   1.224   3.200  2.1552 -0.2404  0.2859
13567TIP3   OH262115   3.380   0.925  12.758  0.1184 -0.0209  0.2205
13567TIP3    H162116   3.286   0.905  12.755 -0.7532  3.5787  1.3316
13567TIP3    H262117   3.401   0.956  12.670  0.6528 -2.2912 -0.4723
13568TIP3   OH262118   3.216   2.963   6.028 -0.0814  0.5424  0.3535
13568TIP3    H162119   3.257   2.988   6.111 -1.0717  0.7266  0.7995
13568TIP3    H262120   3.254   3.022   5.963 -0.3585  1.3766  0.9310
13569TIP3   OH262121   6.556   1.593  12.400 -0.0541 -0.7868 -0.2287
13569TIP3    H162122   6.604   1.598  12.483 -1.3433 -2.3775  0.6285
13569TIP3    H262123   6.592   1.664  12.348 -0.6044  1.5415  2.4255
13570TIP3   OH262124   3.530   1.284  17.127 -0.1385  0.1233  0.8465
13570TIP3    H162125   3.524   1.346  17.054 -0.4595 -0.0524  0.7193
13570TIP3    H262126   3.603   1.227  17.104  0.4522  0.7353  1.1789
13571TIP3   OH262127   5.882   5.232   1.813 -0.3022 -0.4941 -0.2840
13571TIP3    H162128   5.810   5.282   1.776 -1.2810 -0.6083  1.4219
13571TIP3    H262129   5.843   5.148   1.837  0.1077 -0.1509  1.6818
13572TIP3   OH262130   3.877   2.261   2.178 -0.4217 -0.3214  0.3141
13572TIP3    H162131   3.916   2.301   2.256 -0.3481  0.0339  0.0989
13572TIP3    H262132   3.905   2.317   2.106  0.4837 -1.3232 -0.1174
13573TIP3   OH262133   4.378   2.530  11.461 -0.5534  0.4605  0.6996
13573TIP3    H162134   4.404   2.456  11.516  0.4134  0.8739  0.7967
13573TIP3    H262135   4.458   2.579  11.447 -0.9522  0.8044 -0.4184
13574TIP3   OH262136   2.892   4.785  15.532  0.0946 -0.1306  0.5847
13574TIP3    H162137   2.979   4.755  15.505  0.9962  3.0665 -0.2829
13574TIP3    H262138   2.842   4.790  15.450 -0.2723  0.0156  0.8191
13575TIP3   OH262139   0.040   3.276  10.625 -0.0866  0.2137  0.0270
13575TIP3    H162140   0.048   3.327  10.544  1.5918 -2.5091 -1.6203
13575TIP3    H262141   0.023   3.186  10.595  0.3280 -0.8128  2.7167
13576TIP3   OH262142   1.589   6.294   0.272 -0.2929 -0.5034  0.0875
13576TIP3    H162143   1.521   6.316   0.336 -0.3439 -1.4529  0.3757
13576TIP3    H262144   1.640   6.374   0.262 -3.6600  1.4543 -2.9094
13577TIP3   OH262145   4.978   4.232  11.885  0.7396 -0.1194  0.2887
13577TIP3    H162146   5.028   4.312  11.901  0.0540  0.3428  0.1359
13577TIP3    H262147   4.897   4.262  11.844 -1.0947 -0.5509  3.4147
13578TIP3   OH262148   6.176   6.012   5.774 -0.2509  0.7099  0.3174
13578TIP3    H162149   6.179   5.962   5.692 -0.0646 -0.7861  1.2095
13578TIP3    H262150   6.238   5.966   5.832 -0.4114  1.7203  1.3049
13579TIP3   OH262151   1.083   1.546  15.784  0.2726 -0.1555  0.2663
13579TIP3    H162152   1.140   1.539  15.707  1.1566  0.5472  0.8582
13579TIP3    H262153   1.127   1.609  15.841  0.0990 -1.3902  1.7850
13580TIP3   OH262154   5.439   3.404  16.795 -0.1392  0.2337  0.1675
13580TIP3    H162155   5.456   3.493  16.827 -2.2378  0.5687  0.3861
13580TIP3    H262156   5.445   3.349  16.873  0.1065  0.3274  0.2176
13581TIP3   OH262157   3.915   6.519  12.622  0.2517 -0.0192 -0.7714
13581TIP3    H162158   3.848   6.528  12.690 -0.0851  0.3042 -1.1443
13581TIP3    H262159   3.961   6.439  12.645 -0.6730 -0.5807 -0.8693
13582TIP3   OH262160   5.594   1.699   2.811  1.2315 -0.4602 -0.0787
13582TIP3    H162161   5.620   1.658   2.893 -0.0234 -0.8880  0.1088
13582TIP3    H262162   5.601   1.630   2.746 -1.1817 -1.0984  0.2902
13583TIP3   OH262163   0.114   3.750  11.187 -0.1319  0.0559  0.3815
13583TIP3    H162164   0.086   3.841  11.178 -1.6115 -0.2321  1.9361
13583TIP3    H262165   0.125   3.719  11.097 -0.2915  1.5684 -0.1582
13584TIP3   OH262166   5.532   6.396  13.779 -0.1428  0.2000 -0.4133
13584TIP3    H162167   5.583   6.315  13.784 -1.9644 -1.1313 -2.7219
13584TIP3    H262168   5.489   6.402  13.865  0.1236 -1.1820 -0.1651
13585TIP3   OH262169   3.062   1.678  13.935  0.0912  0.4923 -0.0869
13585TIP3    H162170   3.076   1.638  13.850  0.1120  2.6556 -1.1503
13585TIP3    H262171   3.115   1.626  13.996 -1.8149 -2.5540 -0.9303
13586TIP3   OH262172   2.845   6.616   6.030  0.2875 -0.6364  0.9974
13586TIP3    H162173   2.931   6.575   6.041  0.2784 -0.4268  1.9032
13586TIP3    H262174   2.835   6.671   6.108  1.0794  2.5183 -1.0475
13587TIP3   OH262175   3.808   6.031   1.737 -0.3088  0.1008 -0.4587
13587TIP3    H162176   3.741   5.963   1.735 -1.2901  1.0980 -2.8527
13587TIP3    H262177   3.760   6.112   1.751  0.2879  0.8757 -2.6025
13588TIP3   OH262178   4.633   0.857  13.255 -0.2683 -0.6146 -0.2597
13588TIP3    H162179   4.550   0.813  13.236 -1.6200  1.3977  0.7746
13588TIP3    H262180   4.690   0.832  13.182 -1.2043 -3.3731 -0.1181
13589TIP3   OH262181   3.756   3.290  14.683  0.3833 -0.3911  0.1177
13589TIP3    H162182   3.797   3.363  14.637  1.0367 -0.7866  0.0667
13589TIP3    H262183   3.730   3.229  14.614  0.3540 -0.4700  0.1985
13590TIP3   OH262184   3.551   2.512   4.510  0.6252 -0.1037  0.6628
13590TIP3    H162185   3.563   2.537   4.418  1.9393 -0.8857  0.6019
13590TIP3    H262186   3.464   2.472   4.512 -0.0332  1.2535  0.0676
13591TIP3   OH262187   3.598   6.230   5.673  0.2134  0.1610  0.2193
13591TIP3    H162188   3.639   6.243   5.588  3.7614 -0.2968  1.7816
13591TIP3    H262189   3.607   6.136   5.689 -1.5035  0.0518  0.6002
13592TIP3   OH262190   0.238   4.055  12.867  0.1499  0.5257 -0.0395
13592TIP3    H162191   0.156   4.064  12.915  0.2533  3.1887 -0.3275
13592TIP3    H262192   0.212   4.047  12.775  0.1732  0.0870 -0.0118
13593TIP3   OH262193   5.828   4.064  15.615  0.3459  0.0734 -0.5872
13593TIP3    H162194   5.851   4.131  15.679  2.1774 -0.5842 -0.5323
13593TIP3    H262195   5.833   4.108  15.530  0.2253  0.3512 -0.4495
13594TIP3   OH262196   4.052   0.343   1.975  0.3326  0.0006 -0.6691
13594TIP3    H162197   4.133   0.368   2.019 -1.6799  2.1603  1.9892
13594TIP3    H262198   4.059   0.248   1.964  2.8540  0.0435  0.1755
13595TIP3   OH262199   4.580   1.748   0.956  0.2651 -0.3653  0.5784
13595TIP3    H162200   4.526   1.777   1.030  0.5741 -1.8207  1.4035
13595TIP3    H262201   4.531   1.674   0.919  1.6439 -1.6878  1.3189
13596TIP3   OH262202   1.632   2.852  15.401 -0.6113 -0.0521 -0.0053
13596TIP3    H162203   1.677   2.906  15.467 -1.6539 -0.1836  0.8288
13596TIP3    H262204   1.577   2.914  15.354 -1.4249 -0.2907  0.6177
13597TIP3   OH262205   2.709   0.975  12.332  0.4869 -0.2276 -0.4084
13597TIP3    H162206   2.754   1.023  12.263  0.1436  0.6474 -0.0372
13597TIP3    H262207   2.777   0.955  12.396  0.5534  0.1561 -0.3584
13598TIP3   OH262208   1.500   3.076   3.774 -0.9388  0.0320 -0.1326
13598TIP3    H162209   1.536   3.065   3.862 -2.1933  1.7667  0.6355
13598TIP3    H262210   1.558   3.140   3.732 -0.9257 -0.0383 -0.2216
13599TIP3   OH262211   3.319   5.512   2.208  0.0563  0.4335 -0.1461
13599TIP3    H162212   3.229   5.534   2.182 -0.0492 -1.1777 -1.2069
13599TIP3    H262213   3.369   5.517   2.127  0.8530  0.8958  0.3656
13600TIP3   OH262214   1.088   3.254  11.790  0.1031 -0.1583 -0.1845
13600TIP3    H162215   1.003   3.211  11.782  0.2904 -0.6808  0.6414
13600TIP3    H262216   1.088   3.319  11.720 -1.1360  0.1282  0.0770
13601TIP3   OH262217   5.514   3.256   5.140  0.2597 -0.4534  0.1990
13601TIP3    H162218   5.502   3.199   5.063  0.2432 -1.2651  0.7910
13601TIP3    H262219   5.443   3.231   5.199  0.5856 -0.2067  0.6983
13602TIP3   OH262220   2.522   3.193   1.995 -0.0675 -0.1255  0.0145
13602TIP3    H162221   2.510   3.115   2.049  0.0998 -0.7456 -0.8402
13602TIP3    H262222   2.435   3.212   1.961 -0.4759  1.1949  1.7602
13603TIP3   OH262223   4.409   2.121  12.200 -0.4033  1.1969 -0.2027
13603TIP3    H162224   4.328   2.070  12.195 -0.3835  1.1763 -0.3063
13603TIP3    H262225   4.389   2.202  12.153 -0.1028  0.8527 -0.9219
13604TIP3   OH262226   6.635   0.300  15.422 -0.8715 -0.6680 -0.1776
13604TIP3    H162227   6.637   0.205  15.431  0.6446 -0.7719 -1.4083
13604TIP3    H262228   6.599   0.315  15.334  1.4112 -0.1948 -1.0582
13605TIP3   OH262229   5.510   5.246  16.503  0.4160 -0.1278  0.4295
13605TIP3    H162230   5.510   5.254  16.407  0.0621  3.5578  0.6447
13605TIP3    H262231   5.602   5.231  16.526  0.9597  1.7606 -0.3734
13606TIP3   OH262232   3.945   0.769   2.180  0.0779 -0.1541  0.4507
13606TIP3    H162233   4.035   0.749   2.152 -1.1518 -1.6584 -2.6777
13606TIP3    H262234   3.954   0.848   2.234  3.3945 -0.8954  1.1414
13607TIP3   OH262235   4.201   6.356   6.212 -0.6858 -0.6758  0.3326
13607TIP3    H162236   4.179   6.263   6.204 -0.7324 -0.6246 -0.1391
13607TIP3    H262237   4.193   6.375   6.306 -1.6666 -0.9060  0.2971
13608TIP3   OH262238   4.640   1.818  13.883 -0.1568  0.7530 -0.2635
13608TIP3    H162239   4.736   1.817  13.879 -0.1510 -1.7676 -0.0743
13608TIP3    H262240   4.613   1.843  13.795  0.6760  3.3855  0.1856
13609TIP3   OH262241   2.225   0.803   4.200  0.2077 -0.2662 -0.1050
13609TIP3    H162242   2.307   0.828   4.244  0.1821 -1.1659  0.4703
13609TIP3    H262243   2.206   0.715   4.233 -1.6255  0.4043  0.6622
13610TIP3   OH262244   6.636   1.095  13.391  0.2428  0.5081 -0.1846
13610TIP3    H162245   6.675   1.182  13.392  0.4254  0.4444  1.6407
13610TIP3    H262246   6.551   1.106  13.434  0.7480 -0.3895  1.0905
13611TIP3   OH262247   6.232   4.940   4.944  0.0011  0.2890 -0.1922
13611TIP3    H162248   6.322   4.910   4.932  0.0024  0.3133 -0.2494
13611TIP3    H262249   6.220   4.943   5.039  0.3686  1.1852 -0.1638
13612TIP3   OH262250   3.703   4.224   4.552 -0.1050  0.1041  0.1470
13612TIP3    H162251   3.707   4.315   4.582  0.9272  0.2487 -0.4169
13612TIP3    H262252   3.783   4.184   4.586  0.8229  0.1324 -1.9422
13613TIP3   OH262253   3.498   6.346   3.795 -0.4030 -0.2803  0.8043
13613TIP3    H162254   3.453   6.306   3.869 -1.3938 -1.6000 -0.5063
13613TIP3    H262255   3.446   6.424   3.775  0.2253  0.4290  1.8874
13614TIP3   OH262256   6.275   1.693   1.219  0.1004 -0.1745 -0.3222
13614TIP3    H162257   6.254   1.780   1.185 -1.3249 -0.7898 -1.0679
13614TIP3    H262258   6.192   1.645   1.215  0.6618 -1.2968  0.9206
13615TIP3   OH262259   0.915   4.030   0.941  0.1087  0.2763  0.0429
13615TIP3    H162260   0.902   4.056   0.850 -0.8126  0.1334  0.1228
13615TIP3    H262261   1.001   4.064   0.964 -0.0582  1.1340 -0.5911
13616TIP3   OH262262   2.859   5.711   3.791  0.4486 -0.5126  0.0767
13616TIP3    H162263   2.827   5.670   3.872 -1.7902 -0.7797 -0.8892
13616TIP3    H262264   2.891   5.797   3.818  0.3651 -0.8813  1.3665
13617TIP3   OH262265   2.580   4.991  10.981  0.3193  0.7801  0.1787
13617TIP3    H162266   2.668   4.988  11.018  0.7453 -2.6056 -0.9030
13617TIP3    H262267   2.594   5.011  10.888  0.2896 -2.4621 -0.6154
13618TIP3   OH262268   0.978   3.663   1.938  0.5966  0.4747 -0.0054
13618TIP3    H162269   0.955   3.746   1.898  0.0875 -0.0397 -0.7924
13618TIP3    H262270   0.922   3.599   1.894  1.6781 -0.4213 -0.0994
13619TIP3   OH262271   5.494   6.418   3.023 -0.5514  0.0507  0.4850
13619TIP3    H162272   5.520   6.505   3.052 -0.5616  0.0470  0.5045
13619TIP3    H262273   5.473   6.430   2.930 -1.4569  0.2677  0.7133
13620TIP3   OH262274   5.797   0.072   0.301 -0.4065  0.1714  0.5789
13620TIP3    H162275   5.822   0.098   0.213 -1.9311  0.0135  0.0842
13620TIP3    H262276   5.842   0.133   0.359 -0.1989  0.8962 -0.3514
13621TIP3   OH262277   4.103   5.633   4.983  0.0209  0.1184 -0.5703
13621TIP3    H162278   4.191   5.660   5.009  0.5309  0.1148 -2.2160
13621TIP3    H262279   4.105   5.637   4.888 -1.7555  0.0592 -0.6114
13622TIP3   OH262280   4.978   2.278   2.664  0.1007  0.2506 -0.2425
13622TIP3    H162281   4.918   2.258   2.593 -2.0734  2.5562  0.8531
13622TIP3    H262282   5.065   2.266   2.626 -1.0245 -0.7116 -2.6142
13623TIP3   OH262283   4.996   2.407  12.936  0.6187  0.4645 -0.4530
13623TIP3    H162284   5.033   2.495  12.935 -0.0622  0.7488 -0.8437
13623TIP3    H262285   4.911   2.416  12.892 -0.1016 -0.0923  0.7828
13624TIP3   OH262286   6.424   3.640   2.211  0.2190  0.4724 -0.1037
13624TIP3    H162287   6.455   3.668   2.126  2.6206  2.2542  1.3138
13624TIP3    H262288   6.348   3.584   2.192  2.0653 -1.0018 -3.4640
13625TIP3   OH262289   4.069   0.489  15.166  0.0029 -0.2775 -0.1055
13625TIP3    H162290   4.134   0.421  15.187 -0.3765 -0.5922  0.0688
13625TIP3    H262291   4.110   0.571  15.193  1.0829 -0.2666 -1.7109
13626TIP3   OH262292   5.487   2.494   2.702  0.0403  0.7058 -0.1477
13626TIP3    H162293   5.539   2.561   2.747  1.2742  0.7874 -1.6529
13626TIP3    H262294   5.526   2.411   2.730 -0.1941  0.6998  0.1566
13627TIP3   OH262295   0.981   2.744  13.398  0.0562 -0.1516  0.2838
13627TIP3    H162296   1.061   2.709  13.438  0.7220 -2.2965 -2.7326
13627TIP3    H262297   1.010   2.823  13.353 -0.0738  0.5307  1.3771
13628TIP3   OH262298   5.390   4.352   4.274 -0.3411  0.1552 -0.5611
13628TIP3    H162299   5.325   4.313   4.333 -0.4591  1.1792 -0.0085
13628TIP3    H262300   5.354   4.336   4.187  0.6445 -2.8464 -0.4772
13629TIP3   OH262301   2.361   2.773  12.573 -0.0996 -0.1155  0.5781
13629TIP3    H162302   2.435   2.740  12.624  0.1036  0.5120  0.7030
13629TIP3    H262303   2.289   2.714  12.593 -0.7344  1.5466  3.5618
13630TIP3   OH262304   5.118   2.976  15.365 -0.0987 -0.0987  0.4266
13630TIP3    H162305   5.093   2.887  15.390  0.7021 -0.4560 -0.0479
13630TIP3    H262306   5.168   3.008  15.440  0.3183 -0.3471  0.2591
13631TIP3   OH262307   4.072   2.489   1.413  0.4766  0.5730  0.3688
13631TIP3    H162308   4.006   2.527   1.356  0.5292 -0.7923 -0.6218
13631TIP3    H262309   4.151   2.485   1.358  0.4755 -0.9219  0.4736
13632TIP3   OH262310   0.762   4.384   4.835 -0.0269  0.3156  0.4142
13632TIP3    H162311   0.737   4.356   4.747  0.8580  0.4243  0.1189
13632TIP3    H262312   0.715   4.326   4.894 -0.3500  0.0126 -0.1423
13633TIP3   OH262313   0.888   0.049  14.748 -0.1104  0.2116 -0.4423
13633TIP3    H162314   0.872   0.140  14.723 -0.0766  0.0667 -1.0022
13633TIP3    H262315   0.894   0.002  14.665  0.8052 -0.1472 -0.1752
13634TIP3   OH262316   6.679   2.526  12.299  0.4684  0.3582  0.1783
13634TIP3    H162317   6.699   2.567  12.215  1.5235 -0.5713 -0.0288
13634TIP3    H262318   6.606   2.577  12.334 -0.4150  0.3135 -1.6062
13635TIP3   OH262319   2.337   4.350  15.636  0.1715 -0.2879  0.2641
13635TIP3    H162320   2.280   4.292  15.687 -1.6258 -0.0227 -1.4014
13635TIP3    H262321   2.289   4.365  15.554  2.2703  0.6139 -0.8321
13636TIP3   OH262322   3.745   3.195  16.469  0.4290 -0.0950  0.5698
13636TIP3    H162323   3.815   3.154  16.417 -0.3422 -2.7504  1.5623
13636TIP3    H262324   3.668   3.140  16.452 -0.6560  1.0230  1.8734
13637TIP3   OH262325   1.635   4.969  10.703 -0.1760 -0.9190  0.8424
13637TIP3    H162326   1.696   4.918  10.757 -0.0119 -1.5489  0.0729
13637TIP3    H262327   1.691   5.029  10.654 -0.2706 -0.7405  0.9558
13638TIP3   OH262328   3.949   1.443   3.406  0.3195 -0.2657  0.1322
13638TIP3    H162329   3.964   1.398   3.489  0.5684 -0.0346  0.2117
13638TIP3    H262330   3.895   1.382   3.356 -0.0868 -0.2729  0.5761
13639TIP3   OH262331   5.549   2.367  11.864  0.2842 -0.3255  0.7212
13639TIP3    H162332   5.606   2.292  11.879  0.3990 -0.2916  0.4703
13639TIP3    H262333   5.583   2.407  11.783 -1.6674 -1.8141 -0.8918
13640TIP3   OH262334   0.088   1.631   4.331  0.0818 -0.0987 -0.2663
13640TIP3    H162335   0.006   1.617   4.379  0.1372 -1.5836 -0.5653
13640TIP3    H262336   0.143   1.557   4.356  1.4467  1.0403  0.1376
13641TIP3   OH262337   4.722   2.348  11.509  0.0878 -0.5819 -0.1123
13641TIP3    H162338   4.693   2.393  11.588 -1.5194  1.4847 -1.8395
13641TIP3    H262339   4.814   2.328  11.526  0.3386  1.7063  1.4787
13642TIP3   OH262340   6.609   1.636  11.327  0.1007  0.4208 -0.2716
13642TIP3    H162341   6.537   1.674  11.277 -0.9541 -0.9378  0.1687
13642TIP3    H262342   6.570   1.560  11.370  2.1172 -1.0715 -1.0281
13643TIP3   OH262343   2.030   4.099   0.409  0.2174  0.3593  0.3126
13643TIP3    H162344   2.014   4.190   0.385  0.4374  0.4221  0.4021
13643TIP3    H262345   2.069   4.104   0.496  3.3715  0.3939 -1.0206
13644TIP3   OH262346   0.501   5.268  12.861  0.1791 -0.1884 -0.5764
13644TIP3    H162347   0.486   5.339  12.799 -2.1375 -0.0388  0.0780
13644TIP3    H262348   0.574   5.297  12.915 -0.2052  1.3342 -0.8635
13645TIP3   OH262349   1.721   1.867   1.223 -0.8729  0.4894 -0.8175
13645TIP3    H162350   1.766   1.782   1.220 -3.3579 -0.8983 -0.5091
13645TIP3    H262351   1.705   1.889   1.132 -1.2960  0.0405 -0.8499
13646TIP3   OH262352   3.113   4.633  13.337  0.3032  0.0080  0.5382
13646TIP3    H162353   3.200   4.594  13.348 -0.4731 -1.8687  0.1879
13646TIP3    H262354   3.075   4.631  13.425 -0.3963 -1.6774  0.2213
13647TIP3   OH262355   2.535   6.078  10.997  0.6102  0.7290  0.0535
13647TIP3    H162356   2.456   6.025  11.010  0.8859  0.0112 -1.1014
13647TIP3    H262357   2.503   6.160  10.958  0.1086  1.7053  2.4606
13648TIP3   OH262358   3.655   3.169   3.830  0.3006  0.4320 -0.5867
13648TIP3    H162359   3.725   3.138   3.773  0.9626  2.3088 -0.8322
13648TIP3    H262360   3.582   3.109   3.813  1.5905 -1.0541 -0.9062
13649TIP3   OH262361   2.064   5.309  11.435 -0.5839 -0.1701  0.0943
13649TIP3    H162362   2.027   5.321  11.523  1.1769  0.5065  0.7658
13649TIP3    H262363   2.101   5.394  11.413 -0.0716 -0.6380 -0.8579
13650TIP3   OH262364   6.442   5.052  14.034 -0.0715 -0.1021  0.2258
13650TIP3    H162365   6.499   5.075  14.107 -0.6415 -2.0788  1.3370
13650TIP3    H262366   6.476   5.102  13.960  1.4496  0.7721  1.4873
13651TIP3   OH262367   5.041   6.214   6.161 -0.4321  0.3125 -0.0334
13651TIP3    H162368   5.065   6.176   6.246 -3.0838  0.7246  0.9456
13651TIP3    H262369   5.086   6.298   6.158  0.9504 -0.4161  0.2778
13652TIP3   OH262370   1.514   4.489   3.219  0.3146  0.0751  0.3767
13652TIP3    H162371   1.443   4.430   3.193  1.0186 -0.3816 -0.5614
13652TIP3    H262372   1.589   4.461   3.166  0.8079  1.4684  0.3167
13653TIP3   OH262373   2.836   5.287   1.636 -0.0929  0.5092  0.4610
13653TIP3    H162374   2.789   5.362   1.597  1.1472  0.9499 -0.2168
13653TIP3    H262375   2.869   5.239   1.560  0.1726 -0.0405  0.9307
13654TIP3   OH262376   2.245   0.308   1.035  0.3115 -0.1014 -0.0576
13654TIP3    H162377   2.303   0.236   1.060 -0.7982 -1.4176 -1.1760
13654TIP3    H262378   2.221   0.289   0.944  1.3373  2.5911 -0.9457
13655TIP3   OH262379   2.842   2.077  13.996 -0.2150 -0.8856  0.6725
13655TIP3    H162380   2.806   2.032  14.072 -0.6009 -1.5246  0.1217
13655TIP3    H262381   2.935   2.091  14.017 -0.4279 -0.6220  1.4501
13656TIP3   OH262382   2.658   1.831   0.467  0.7409 -0.7979  0.1052
13656TIP3    H162383   2.596   1.807   0.398 -0.6345  0.4349  0.8938
13656TIP3    H262384   2.740   1.847   0.421  0.6095 -2.8079 -0.9104
13657TIP3   OH262385   2.000   3.483  12.746  0.3041 -0.3872 -0.1143
13657TIP3    H162386   2.095   3.470  12.752  0.6935  0.9639 -2.4616
13657TIP3    H262387   1.986   3.512  12.656 -2.2465  0.3682  0.4881
13658TIP3   OH262388   6.158   6.120  16.114  0.4916 -0.1145  0.2060
13658TIP3    H162389   6.170   6.045  16.172  0.0973 -0.1166  0.2882
13658TIP3    H262390   6.154   6.196  16.173 -1.3485 -0.2705  0.2973
13659TIP3   OH262391   2.586   2.290  14.350  0.4532  0.0977 -0.7744
13659TIP3    H162392   2.582   2.361  14.286 -0.6254 -1.4061 -2.4444
13659TIP3    H262393   2.522   2.315  14.418  1.9846  1.9540  0.0221
13660TIP3   OH262394   0.807   5.445   2.056 -0.2083  0.1970  0.0908
13660TIP3    H162395   0.853   5.362   2.064 -0.1749  0.2958  0.9842
13660TIP3    H262396   0.789   5.472   2.146 -0.7886  0.8415 -0.2097
13661TIP3   OH262397   3.423   5.414   3.644 -0.3520 -0.1817  0.3485
13661TIP3    H162398   3.371   5.469   3.702 -0.8719 -1.3598  1.0146
13661TIP3    H262399   3.360   5.350   3.610  0.6789 -1.6792  1.2425
13662TIP3   OH262400   6.603   0.433  11.097 -0.4128  0.2880 -0.4449
13662TIP3    H162401   6.652   0.502  11.053  0.1850  0.6986  0.8547
13662TIP3    H262402   6.669   0.370  11.125 -1.0544 -1.4603 -2.6969
13663TIP3   OH262403   0.595   0.197  15.786 -0.7559  0.4845  0.2718
13663TIP3    H162404   0.638   0.282  15.778 -0.4140  0.2512 -0.3991
13663TIP3    H262405   0.525   0.211  15.849 -0.2469  1.0882  0.7106
13664TIP3   OH262406   6.256   2.474   5.454  0.2754 -0.0222 -0.1095
13664TIP3    H162407   6.203   2.531   5.509  0.8240  0.5329 -0.1511
13664TIP3    H262408   6.248   2.387   5.494 -4.0795 -0.8694 -2.4549
13665TIP3   OH262409   6.459   5.848  11.494 -0.2593 -0.0441 -0.2775
13665TIP3    H162410   6.378   5.799  11.505 -0.0205 -0.3834 -0.0052
13665TIP3    H262411   6.440   5.935  11.530 -0.7254  0.1119 -0.8915
13666TIP3   OH262412   4.320   1.774   2.720  0.1223  0.6633  0.5360
13666TIP3    H162413   4.408   1.812   2.722  0.5241 -0.3010  1.6108
13666TIP3    H262414   4.325   1.709   2.650  0.1628  0.8547  0.3595
13667TIP3   OH262415   2.232   0.259   0.234  0.3019 -0.3292  0.1243
13667TIP3    H162416   2.194   0.176   0.206 -0.5653  0.5738 -1.4920
13667TIP3    H262417   2.318   0.261   0.192  0.2959 -0.3860  0.1097
13668TIP3   OH262418   3.372   1.933  15.286 -0.2518  0.3855  0.5436
13668TIP3    H162419   3.436   1.990  15.327  0.3341  1.2926 -1.5773
13668TIP3    H262420   3.299   1.991  15.265  0.2064  0.3143 -1.3131
13669TIP3   OH262421   2.880   0.282  15.412  0.0328  0.5498  0.0384
13669TIP3    H162422   2.854   0.373  15.398 -2.0977 -0.1149 -0.5425
13669TIP3    H262423   2.893   0.246  15.324  0.1877  0.0998  0.2399
13670TIP3   OH262424   6.193   1.290  14.396 -0.2666 -0.1665  0.4314
13670TIP3    H162425   6.202   1.385  14.387  1.6504 -0.1012  2.6410
13670TIP3    H262426   6.123   1.279  14.461 -1.4544 -0.3189 -0.8469
13671TIP3   OH262427   6.270   4.378   1.361 -0.4366 -0.4147  0.3459
13671TIP3    H162428   6.222   4.400   1.441 -2.5312 -2.4787 -0.2847
13671TIP3    H262429   6.268   4.459   1.310 -1.9230 -0.0024  1.0035
13672TIP3   OH262430   5.996   5.144   6.818 -0.6311 -0.1767  0.2522
13672TIP3    H162431   5.989   5.056   6.855  1.5996 -0.0161  1.1405
13672TIP3    H262432   5.925   5.149   6.754 -2.0662 -1.8722  1.6636
13673TIP3   OH262433   2.567   0.860   1.067 -0.0687 -0.1184  0.1954
13673TIP3    H162434   2.515   0.929   1.107  2.2646  1.2246  1.0356
13673TIP3    H262435   2.633   0.838   1.133  1.1481 -0.9377 -1.2490
13674TIP3   OH262436   4.572   3.068   4.135 -0.0536 -0.1985 -0.1350
13674TIP3    H162437   4.490   3.112   4.114 -0.1027  0.2641  0.9951
13674TIP3    H262438   4.605   3.113   4.213  0.4686 -1.4127  0.3670
13675TIP3   OH262439   3.116   1.949  11.182  0.1758  0.1174  0.2164
13675TIP3    H162440   3.067   1.915  11.256  0.1964  0.7196  0.5037
13675TIP3    H262441   3.206   1.959  11.214 -0.0016  1.2437  0.3878
13676TIP3   OH262442   3.304   4.456   2.089 -0.2089 -0.2948 -0.2979
13676TIP3    H162443   3.364   4.508   2.036 -1.4114  0.7199 -0.6889
13676TIP3    H262444   3.319   4.485   2.179 -0.8187  0.6968 -0.5051
13677TIP3   OH262445   0.369   5.986   1.426 -0.3827 -0.2651 -0.2333
13677TIP3    H162446   0.313   5.960   1.353 -0.5696 -0.6559  0.0474
13677TIP3    H262447   0.329   6.065   1.461  1.0302  1.3178 -2.0573
13678TIP3   OH262448   6.186   2.207   5.514 -0.2674 -0.4102 -0.1597
13678TIP3    H162449   6.121   2.185   5.581  1.4543 -2.6504  0.8461
13678TIP3    H262450   6.247   2.133   5.515  1.7877  1.2085 -1.7015
13679TIP3   OH262451   6.232   0.343   3.527  0.1739 -0.2972  0.1961
13679TIP3    H162452   6.167   0.349   3.597 -2.0892 -0.7361 -1.8230
13679TIP3    H262453   6.260   0.251   3.528 -0.0476 -0.3623  0.3436
13680TIP3   OH262454   5.759   0.638  10.357 -0.2143 -0.4491  0.3314
13680TIP3    H162455   5.748   0.728  10.327  1.0648 -0.6859 -0.8796
13680TIP3    H262456   5.699   0.587  10.303  0.3041 -0.5470 -0.1556
13681TIP3   OH262457   6.085   6.126  15.296 -0.4798 -0.1683 -0.5182
13681TIP3    H162458   6.038   6.189  15.241 -1.6955 -1.3036 -0.8036
13681TIP3    H262459   6.105   6.053  15.238 -0.7712 -0.8790  0.2561
13682TIP3   OH262460   6.035   6.110  13.004 -0.4160 -0.4001 -0.6460
13682TIP3    H162461   5.992   6.026  13.016 -1.6149  0.0520 -1.7125
13682TIP3    H262462   6.066   6.109  12.913  0.6639 -0.1819 -0.2920
13683TIP3   OH262463   3.761   0.638   3.886 -0.3635 -0.6015 -0.0525
13683TIP3    H162464   3.825   0.628   3.958  0.2327  0.0853 -0.4885
13683TIP3    H262465   3.758   0.732   3.869 -1.8017 -0.5829  0.2288
13684TIP3   OH262466   0.533   2.860  16.353  0.2054  0.5052 -0.0833
13684TIP3    H162467   0.471   2.930  16.371  0.1308  0.4597 -0.1597
13684TIP3    H262468   0.586   2.893  16.281 -1.7256 -0.6693 -2.0937
13685TIP3   OH262469   2.758   0.969  14.612 -0.0501 -0.5383  0.0580
13685TIP3    H162470   2.804   1.040  14.655 -1.7242  0.0428  0.9320
13685TIP3    H262471   2.711   1.011  14.539  0.9465 -1.1514 -0.9516
13686TIP3   OH262472   1.488   1.067   1.062 -0.3555  0.5444 -0.1593
13686TIP3    H162473   1.450   1.087   1.147 -1.8223  2.2342 -1.1907
13686TIP3    H262474   1.548   0.994   1.079 -0.0283  1.3886  2.4480
13687TIP3   OH262475   4.217   1.407   3.814  0.5798 -0.1925  0.5813
13687TIP3    H162476   4.231   1.452   3.898 -1.3845  0.1394  0.7608
13687TIP3    H262477   4.134   1.361   3.826 -0.3457  0.8471 -1.5977
13688TIP3   OH262478   4.585   4.292   3.399  0.0680 -0.4459 -0.0697
13688TIP3    H162479   4.568   4.198   3.397 -0.2859 -0.3807 -0.0827
13688TIP3    H262480   4.678   4.299   3.379  0.4209 -0.8822  1.3648
13689TIP3   OH262481   3.454   1.225  11.207  0.0595 -0.2969  0.0332
13689TIP3    H162482   3.504   1.156  11.163 -0.4603  0.2929 -1.5161
13689TIP3    H262483   3.373   1.182  11.234 -0.6357 -0.1148 -1.6860
13690TIP3   OH262484   5.585   0.243  11.428 -0.7769  0.2868  0.2648
13690TIP3    H162485   5.580   0.250  11.333 -1.7205 -0.0881  0.2838
13690TIP3    H262486   5.679   0.241  11.447 -0.5864  0.1012 -0.6758
13691TIP3   OH262487   3.499   4.425  15.750 -0.0779  0.2559  0.1922
13691TIP3    H162488   3.427   4.442  15.690 -1.1024  0.4206  1.4358
13691TIP3    H262489   3.458   4.379  15.824  1.0465  0.5616  1.0223
13692TIP3   OH262490   5.713   5.245   2.124 -0.2437 -0.3435 -0.3497
13692TIP3    H162491   5.646   5.184   2.155 -0.3264 -0.8679 -1.5308
13692TIP3    H262492   5.676   5.331   2.143  0.1019 -0.6500  1.7906
13693TIP3   OH262493   5.151   5.969  11.335  0.3824 -0.1305  0.3511
13693TIP3    H162494   5.206   6.046  11.347  1.9436 -1.3459  1.0709
13693TIP3    H262495   5.140   5.962  11.240 -0.2126  1.2566  0.2972
13694TIP3   OH262496   5.985   3.270  12.126  0.1320 -0.0629  0.6290
13694TIP3    H162497   6.058   3.278  12.187  1.1023  1.7186 -0.6993
13694TIP3    H262498   6.026   3.271  12.040 -1.3731 -0.2262 -0.1054
13695TIP3   OH262499   0.574   5.270  11.443 -0.5978 -0.7365  0.0545
13695TIP3    H162500   0.559   5.285  11.350  0.2449 -0.7022 -0.0766
13695TIP3    H262501   0.623   5.347  11.472 -0.3089 -1.0468  0.3895
13696TIP3   OH262502   0.382   5.973  10.861 -0.2454 -0.0831  0.2864
13696TIP3    H162503   0.423   5.932  10.937 -1.0000 -0.0062  0.7449
13696TIP3    H262504   0.432   6.053  10.846 -0.7718  0.4464  1.3704
13697TIP3   OH262505   6.401   4.563   5.663  0.1809 -0.1059 -0.1928
13697TIP3    H162506   6.377   4.505   5.591 -0.0435 -0.1675 -0.0683
13697TIP3    H262507   6.333   4.550   5.729  0.2642  0.1129 -0.0607
13698TIP3   OH262508   4.729   2.392   2.032 -0.3562  0.2288 -0.9111
13698TIP3    H162509   4.643   2.397   2.073 -0.4815  1.1189 -1.2594
13698TIP3    H262510   4.758   2.483   2.026 -0.1061  0.0818 -2.2656
13699TIP3   OH262511   0.413   1.202  13.422 -0.7569 -0.0656  0.0246
13699TIP3    H162512   0.341   1.229  13.479  0.0411  0.6970  0.6892
13699TIP3    H262513   0.427   1.110  13.444 -0.7105  0.1203  0.7844
13700TIP3   OH262514   0.765   2.733  15.547  0.6195 -0.1378 -0.3537
13700TIP3    H162515   0.817   2.665  15.502  1.9152  1.0877 -0.7475
13700TIP3    H262516   0.825   2.770  15.611 -0.4338 -0.1117  0.6186
13701TIP3   OH262517   1.136   3.983   0.092 -0.0611 -0.3632  0.4004
13701TIP3    H162518   1.130   3.918   0.022 -1.6099 -0.5135  0.6556
13701TIP3    H262519   1.057   4.037   0.082  1.2346  1.5394  0.1460
13702TIP3   OH262520   5.694   0.044  15.540 -0.4731  0.5506 -0.0687
13702TIP3    H162521   5.678  -0.040  15.582 -0.1320  0.3573 -0.3222
13702TIP3    H262522   5.625   0.101  15.573  0.1639  0.5829  1.2513
13703TIP3   OH262523   1.957   2.196   1.069  0.1130 -0.5455 -0.0388
13703TIP3    H162524   1.922   2.281   1.095  0.0284 -1.2466  2.2310
13703TIP3    H262525   1.997   2.161   1.148  0.8819 -2.2639 -1.1572
13704TIP3   OH262526   0.504   6.693  14.321 -0.4272  0.0269  0.3320
13704TIP3    H162527   0.528   6.762  14.384 -2.2412  0.0812  0.9812
13704TIP3    H262528   0.560   6.710  14.245 -0.2784  1.7262  0.7971
13705TIP3   OH262529   5.668   2.346  14.354  0.0784  0.6937 -0.2067
13705TIP3    H162530   5.647   2.274  14.294  1.8508  0.9428 -1.1701
13705TIP3    H262531   5.596   2.347  14.417 -1.8305  0.3927 -2.3060
13706TIP3   OH262532   0.299   2.634   1.931  0.2384  0.0861  0.4053
13706TIP3    H162533   0.288   2.574   2.005  0.6624 -0.1381  0.2920
13706TIP3    H262534   0.346   2.582   1.866 -0.8123  0.0410 -0.3260
13707TIP3   OH262535   6.431   0.537   3.503 -0.2829  0.4499 -0.1403
13707TIP3    H162536   6.356   0.575   3.549 -0.5925 -2.3001  1.7984
13707TIP3    H262537   6.397   0.456   3.465  1.6321 -0.7446  0.6217
13708TIP3   OH262538   0.418   5.493   2.305 -0.2293 -0.2285  0.2788
13708TIP3    H162539   0.453   5.465   2.390 -1.1201 -0.2346  0.6514
13708TIP3    H262540   0.345   5.551   2.328  0.5471  1.0585 -0.4869
13709TIP3   OH262541   6.182   5.019  14.535  0.0392 -0.0456  0.5178
13709TIP3    H162542   6.181   4.954  14.606  1.2877 -0.2183  0.3923
13709TIP3    H262543   6.092   5.051  14.530  0.2091  1.0200  3.1706
13710TIP3   OH262544   5.670   6.489   1.176 -0.2830 -0.4570 -0.2777
13710TIP3    H162545   5.733   6.522   1.241 -0.1439  0.5369 -0.8987
13710TIP3    H262546   5.713   6.506   1.092 -0.8005 -1.0189 -0.6519
13711TIP3   OH262547   4.460   3.432   3.910 -0.0753 -0.4268  0.2146
13711TIP3    H162548   4.545   3.387   3.908  0.1362 -0.1656  2.1698
13711TIP3    H262549   4.398   3.366   3.878  0.5222 -1.4412  1.1131
13712TIP3   OH262550   2.921   3.557  11.501 -0.1985  0.2123  0.1295
13712TIP3    H162551   2.895   3.625  11.440  0.7953  0.4232 -0.0659
13712TIP3    H262552   2.861   3.484  11.482  1.4088 -0.5068 -2.5662
13713TIP3   OH262553   3.119   0.337  16.748  0.1270 -0.1020  0.6442
13713TIP3    H162554   3.127   0.370  16.658  1.2318  0.9025  1.0872
13713TIP3    H262555   3.077   0.252  16.739  0.7389 -0.2659 -0.8830
13714TIP3   OH262556   4.775   1.957   3.706  0.2120  0.4215  0.2801
13714TIP3    H162557   4.761   2.014   3.782 -0.8668  1.0949 -0.4055
13714TIP3    H262558   4.689   1.953   3.664  0.9523  0.5985 -1.2810
13715TIP3   OH262559   1.497   4.314   2.738  0.5519  0.8902  0.5804
13715TIP3    H162560   1.451   4.359   2.809 -0.0995 -0.0765  0.7835
13715TIP3    H262561   1.429   4.296   2.673  0.7681  0.1046  0.5608
13716TIP3   OH262562   1.990   4.058   4.867 -0.2918 -0.1342  0.5182
13716TIP3    H162563   2.078   4.096   4.866 -0.6358  0.7165 -1.8731
13716TIP3    H262564   2.002   3.972   4.826 -0.6566  0.2541 -0.4280
13717TIP3   OH262565   5.106   3.112   1.439  0.0868 -0.6029  0.4231
13717TIP3    H162566   5.052   3.180   1.479  1.8367  0.5281  0.9704
13717TIP3    H262567   5.123   3.144   1.350  1.1146 -0.1822  0.7611
13718TIP3   OH262568   3.953   2.852   5.057  0.5708  0.8729  0.3518
13718TIP3    H162569   3.896   2.919   5.020  0.6992  0.4724 -0.5890
13718TIP3    H262570   3.934   2.853   5.151 -0.2022  1.4799  0.1907
13719TIP3   OH262571   4.229   3.418   1.534  0.5066 -0.3567 -0.2545
13719TIP3    H162572   4.231   3.326   1.561 -0.1808 -0.2137  0.2850
13719TIP3    H262573   4.294   3.424   1.464  1.6293 -0.9413  0.7222
13720TIP3   OH262574   1.107   4.982  13.816 -0.9341  0.0892 -0.0386
13720TIP3    H162575   1.020   5.011  13.788  0.7288  1.7736 -3.8404
13720TIP3    H262576   1.149   5.061  13.848  0.1478 -0.1602 -0.8399
13721TIP3   OH262577   6.702   5.393  15.859  0.0158  0.6956 -0.0952
13721TIP3    H162578   6.745   5.339  15.792  1.0900  2.1981 -0.6347
13721TIP3    H262579   6.708   5.342  15.939 -0.0976 -0.5380 -0.8594
13722TIP3   OH262580   5.198   6.376  16.689 -0.0022 -0.1337  0.3422
13722TIP3    H162581   5.256   6.447  16.718 -0.0279  0.6512 -1.4906
13722TIP3    H262582   5.163   6.339  16.771 -0.6691  2.5291  1.3144
13723TIP3   OH262583   5.904   4.376  12.855 -0.0004 -0.2360  0.1867
13723TIP3    H162584   5.875   4.300  12.906 -0.4110  0.4948  1.0394
13723TIP3    H262585   5.971   4.417  12.908  0.1608  0.0521 -0.2390
13724TIP3   OH262586   0.167   2.730   5.188  0.4189 -0.0496  0.3015
13724TIP3    H162587   0.098   2.792   5.164  0.5423  0.2229  0.6552
13724TIP3    H262588   0.187   2.684   5.106  1.6784  1.7044 -0.4050
13725TIP3   OH262589   4.634   2.621   5.223 -0.7113  0.0844 -0.0678
13725TIP3    H162590   4.578   2.686   5.264 -1.6566 -0.8234  0.0840
13725TIP3    H262591   4.634   2.547   5.284 -1.8712 -1.1479 -1.5172
13726TIP3   OH262592   2.372   5.892   3.535  0.2417 -0.2868  0.1184
13726TIP3    H162593   2.295   5.948   3.535 -0.1944 -0.8817 -0.7540
13726TIP3    H262594   2.429   5.930   3.602  0.4572  1.9061 -1.2746
13727TIP3   OH262595   3.832   5.569  14.838  0.6636  0.2597  0.0868
13727TIP3    H162596   3.905   5.528  14.886 -1.3194 -1.4879  1.7325
13727TIP3    H262597   3.793   5.629  14.901 -1.4404 -1.4113  0.4199
13728TIP3   OH262598   0.894   0.984   4.648  0.5196 -0.0820  0.1122
13728TIP3    H162599   0.800   0.976   4.662  0.7484 -2.8281  0.2160
13728TIP3    H262600   0.932   0.974   4.735  0.9856 -0.0168 -0.0818
13729TIP3   OH262601   4.869   0.967   1.589  0.2932  0.0632  0.0215
13729TIP3    H162602   4.824   0.996   1.668  0.5715  2.8078 -0.7848
13729TIP3    H262603   4.813   0.898   1.554 -0.4408 -0.3749  1.9651
13730TIP3   OH262604   4.581   2.862   2.745 -0.4813  0.1069  0.8494
13730TIP3    H162605   4.652   2.812   2.705 -1.6872 -1.6605  0.8385
13730TIP3    H262606   4.623   2.940   2.781  1.5001 -1.0971  1.1983
13731TIP3   OH262607   2.216   3.515  12.038  0.5657  0.3359  0.0346
13731TIP3    H162608   2.175   3.595  12.069  0.2797 -0.0133  0.5614
13731TIP3    H262609   2.143   3.462  12.004  0.7796  0.3884 -0.5245
13732TIP3   OH262610   3.584   4.153  12.350  0.1088  0.8446  0.0789
13732TIP3    H162611   3.566   4.061  12.332 -0.6362  1.4642 -2.5775
13732TIP3    H262612   3.644   4.152  12.425 -2.0382 -1.6577  1.8214
13733TIP3   OH262613   5.250   3.471  16.169  0.0392  0.5339 -0.3433
13733TIP3    H162614   5.165   3.429  16.173 -0.9956  2.2199 -3.1793
13733TIP3    H262615   5.283   3.451  16.082  1.1451  2.5194 -0.4089
13734TIP3   OH262616   5.349   5.557   3.256 -0.7128 -0.3230 -0.4394
13734TIP3    H162617   5.378   5.469   3.281 -1.4647 -0.7685 -1.1278
13734TIP3    H262618   5.315   5.595   3.336  0.3957 -0.3423  0.0538
13735TIP3   OH262619   3.213   2.496   1.109 -0.5802 -0.7033  0.0844
13735TIP3    H162620   3.225   2.586   1.078  0.2507 -0.8791 -0.1222
13735TIP3    H262621   3.302   2.461   1.117 -0.9036 -1.5580  0.0200
13736TIP3   OH262622   0.993   0.737   4.913  0.0992  0.5225 -0.0192
13736TIP3    H162623   0.992   0.832   4.916  1.3514  0.5190  1.1913
13736TIP3    H262624   0.968   0.710   5.001 -2.9383 -0.3189 -1.1023
13737TIP3   OH262625   4.839   3.631   1.437 -0.2502 -0.4369  0.1595
13737TIP3    H162626   4.858   3.610   1.528 -0.8794 -1.9741 -0.0420
13737TIP3    H262627   4.821   3.724   1.436  0.6349 -0.2443  1.4583
13738TIP3   OH262628   0.466   1.345  11.966 -0.2562  0.4683 -0.2734
13738TIP3    H162629   0.426   1.365  12.050 -0.6384  0.1675 -0.3803
13738TIP3    H262630   0.413   1.391  11.901 -1.3155 -1.0727 -0.5460
13739TIP3   OH262631   2.415   6.540  14.230 -1.1280 -0.0083 -0.0083
13739TIP3    H162632   2.496   6.576  14.194 -1.5964  0.5540 -0.5036
13739TIP3    H262633   2.366   6.616  14.261 -0.9342 -0.4457  1.3951
13740TIP3   OH262634   1.765   0.975  11.591  0.1507 -0.1885  0.6897
13740TIP3    H162635   1.781   0.902  11.531  0.5492 -0.2996  0.9289
13740TIP3    H262636   1.718   1.040  11.539 -1.8765 -1.3799  0.9644
13741TIP3   OH262637   1.376   5.828  15.210  0.2296 -0.1189 -0.0158
13741TIP3    H162638   1.282   5.843  15.196  0.4911  1.1593 -0.4722
13741TIP3    H262639   1.388   5.836  15.305  0.2706  2.1515 -0.1881
13742TIP3   OH262640   0.921   2.147  11.246  0.1310 -0.7872 -0.1233
13742TIP3    H162641   0.932   2.166  11.153 -0.9663 -3.3488 -0.7921
13742TIP3    H262642   0.830   2.170  11.265  0.6665  0.8293  0.6294
13743TIP3   OH262643   6.679   1.651   4.029  0.9107 -0.7999  0.2767
13743TIP3    H162644   6.673   1.572   4.083 -2.4786 -0.0386  1.1834
13743TIP3    H262645   6.706   1.620   3.943  1.6012 -2.6749  1.1446
13744TIP3   OH262646   1.853   4.475  17.230 -0.6302  0.3901 -0.4337
13744TIP3    H162647   1.761   4.495  17.213 -1.6197 -4.2633 -1.3320
13744TIP3    H262648   1.861   4.478  17.325 -2.2352 -1.0179 -0.2303
13745TIP3   OH262649   5.984   4.506   5.597 -0.1762 -0.1615  0.3779
13745TIP3    H162650   5.983   4.465   5.510 -0.2308 -0.6433  0.6051
13745TIP3    H262651   5.935   4.588   5.585  1.2737  0.5946 -0.4454
13746TIP3   OH262652   5.006   6.281   0.553  0.1394  0.8636  0.0556
13746TIP3    H162653   5.075   6.263   0.616  0.5286  0.9576 -0.3436
13746TIP3    H262654   4.968   6.195   0.533  0.7279  0.7083 -0.3992
13747TIP3   OH262655   4.742   3.028  15.328 -0.5015 -0.1989  0.4992
13747TIP3    H162656   4.816   3.039  15.388 -1.0679  2.2158  0.8212
13747TIP3    H262657   4.760   2.945  15.283  1.3836 -0.6354  1.9613
13748TIP3   OH262658   5.662   5.209  16.272 -0.0347 -0.5627  1.0714
13748TIP3    H162659   5.675   5.125  16.317 -0.6798 -1.4983 -0.4666
13748TIP3    H262660   5.751   5.244  16.262  0.1345 -0.4180  2.9001
13749TIP3   OH262661   5.315   4.314   3.569 -0.4480 -0.1710 -0.2360
13749TIP3    H162662   5.289   4.243   3.628 -0.5919  0.1902  0.1415
13749TIP3    H262663   5.377   4.367   3.621 -1.8338  1.0786  0.1809
13750TIP3   OH262664   2.555   4.440   4.124  0.0366  0.0240  0.2186
13750TIP3    H162665   2.507   4.523   4.122  1.3377  0.7857  0.3283
13750TIP3    H262666   2.631   4.457   4.179  1.2308 -0.7369 -1.1476
13751TIP3   OH262667   1.964   3.627   3.304 -0.3418 -0.7167 -0.2008
13751TIP3    H162668   1.987   3.542   3.343  1.7729  0.2838  0.8167
13751TIP3    H262669   2.031   3.687   3.337 -2.8364  1.7460  0.5576
13752TIP3   OH262670   1.515   0.870   1.847 -0.8660 -0.0468  0.3344
13752TIP3    H162671   1.519   0.859   1.942 -2.7726 -2.9236  0.1415
13752TIP3    H262672   1.536   0.783   1.812 -3.6718  0.0673 -1.7795
13753TIP3   OH262673   5.495   2.588   1.401  0.9010  0.5936  0.2859
13753TIP3    H162674   5.555   2.646   1.449  0.7520 -0.2206  1.4670
13753TIP3    H262675   5.551   2.541   1.340  1.1332  1.4596 -0.1682
13754TIP3   OH262676   1.102   4.855  16.557 -0.5263  0.2426 -0.1246
13754TIP3    H162677   1.060   4.776  16.522  0.4218 -0.6673  0.7620
13754TIP3    H262678   1.074   4.858  16.648 -0.7473  1.0712 -0.2185
13755TIP3   OH262679   5.007   3.085   5.916  0.1131 -0.1989 -0.1601
13755TIP3    H162680   5.017   3.066   6.009  2.6520  2.7240  0.2346
13755TIP3    H262681   4.986   3.178   5.912  2.2286  0.2504 -2.5538
13756TIP3   OH262682   1.459   5.679   3.757 -0.2698  0.1020  0.0718
13756TIP3    H162683   1.491   5.635   3.836 -0.9190 -0.3754  0.0742
13756TIP3    H262684   1.487   5.622   3.685 -0.3955  0.1062  0.0184
13757TIP3   OH262685   2.436   5.831   4.170 -0.2030  0.2706  0.7166
13757TIP3    H162686   2.387   5.749   4.157 -1.4801  1.2364 -0.8164
13757TIP3    H262687   2.400   5.890   4.103  0.1676  2.3248  2.2985
13758TIP3   OH262688   5.128   1.236   5.015 -0.2406  0.8600 -0.1494
13758TIP3    H162689   5.038   1.213   5.039  0.0534 -0.1134  0.0294
13758TIP3    H262690   5.119   1.320   4.969 -1.0406  1.6921  1.4677
13759TIP3   OH262691   2.914   0.898   4.349  0.2910  0.2893  0.8907
13759TIP3    H162692   2.956   0.984   4.341  0.5251  0.1946  1.0792
13759TIP3    H262693   2.961   0.856   4.421  0.2942 -0.0656  0.6794
13760TIP3   OH262694   6.099   5.757   6.310 -0.1895 -0.0415 -0.0196
13760TIP3    H162695   6.166   5.739   6.244  1.8442  0.5556  1.8580
13760TIP3    H262696   6.099   5.852   6.320  0.6962 -0.2443  2.0470
13761TIP3   OH262697   1.654   5.029  14.396 -0.0244  0.2038 -0.5549
13761TIP3    H162698   1.687   4.951  14.441  1.6208  0.4208 -1.3642
13761TIP3    H262699   1.616   5.083  14.466 -1.6571 -1.5399 -0.0701
13762TIP3   OH262700   3.553   4.469   5.618 -0.0434  0.5188 -0.5551
13762TIP3    H162701   3.468   4.510   5.636  1.8505  2.5923  4.4056
13762TIP3    H262702   3.594   4.525   5.552 -1.5104  0.8716 -1.1850
13763TIP3   OH262703   4.432   0.812  10.460  0.0281  0.3436  0.8048
13763TIP3    H162704   4.452   0.740  10.399 -0.7152 -0.5709  1.6260
13763TIP3    H262705   4.410   0.768  10.542 -0.3342  1.5250  1.3468
13764TIP3   OH262706   4.629   4.767  13.241  0.2304  0.4610  0.0816
13764TIP3    H162707   4.626   4.753  13.336 -0.5453 -0.2257 -0.0426
13764TIP3    H262708   4.554   4.825  13.223  0.7354  1.0838 -0.0331
13765TIP3   OH262709   4.516   2.403  12.635  0.3746  0.7952 -0.3794
13765TIP3    H162710   4.505   2.485  12.587 -0.6106 -0.1088 -1.7227
13765TIP3    H262711   4.521   2.335  12.567 -0.3989 -0.4373  0.7632
13766TIP3   OH262712   5.720   0.809   0.003 -0.0773 -0.2240  0.5439
13766TIP3    H162713   5.686   0.868  -0.064  1.2136 -0.6562 -0.5093
13766TIP3    H262714   5.743   0.730  -0.045 -1.5175 -1.4987  1.8910
13767TIP3   OH262715   0.077   0.803  10.390 -0.3316 -0.0493 -0.0494
13767TIP3    H162716   0.109   0.847  10.469 -0.7835  0.5660 -0.2139
13767TIP3    H262717   0.102   0.711  10.403 -0.1310  0.1024  0.6703
13768TIP3   OH262718   4.871   0.298   6.131 -0.2812 -0.5095  0.0019
13768TIP3    H162719   4.918   0.242   6.192 -2.0329 -1.0382  0.9062
13768TIP3    H262720   4.820   0.238   6.077  0.6022  0.0081 -1.4398
13769TIP3   OH262721   2.473   0.747   1.847 -0.0102 -0.2239  0.0122
13769TIP3    H162722   2.461   0.809   1.920 -1.4195  0.2271 -0.5937
13769TIP3    H262723   2.482   0.803   1.770 -0.3007 -0.7564 -0.4066
13770TIP3   OH262724   3.937   2.585  11.942 -0.1372  0.3507 -0.2394
13770TIP3    H162725   3.849   2.595  11.908 -0.7578  1.7550  1.6704
13770TIP3    H262726   3.940   2.642  12.019  2.7041  1.0147 -0.7736
13771TIP3   OH262727   1.672   3.969   0.695 -0.1464 -0.2988  0.2391
13771TIP3    H162728   1.619   3.934   0.767 -2.0008  0.4660 -0.7356
13771TIP3    H262729   1.638   3.926   0.617  0.4122  0.4896 -0.4433
13772TIP3   OH262730   3.853   1.360  12.626  0.1076  0.0845  0.5276
13772TIP3    H162731   3.884   1.359  12.536 -2.0183 -0.0189 -0.2398
13772TIP3    H262732   3.816   1.447  12.638 -0.2458 -0.1376  1.0737
13773TIP3   OH262733   3.196   2.527  14.680  0.6387  0.6623 -0.3943
13773TIP3    H162734   3.145   2.572  14.612  0.7480  2.3320  0.6060
13773TIP3    H262735   3.131   2.502  14.745  0.6470 -0.2399 -0.7208
13774TIP3   OH262736   3.028   0.277   5.814  1.0992  0.1305 -0.0545
13774TIP3    H162737   3.001   0.286   5.723 -0.2132  0.0282  0.3031
13774TIP3    H262738   2.996   0.191   5.840 -0.2773  0.9416  1.0530
13775TIP3   OH262739   5.267   3.611   2.805 -0.5602 -0.2099 -0.2535
13775TIP3    H162740   5.245   3.521   2.781 -0.2006  0.2368 -2.3980
13775TIP3    H262741   5.184   3.651   2.829 -0.8795 -0.7970 -0.3702
13776TIP3   OH262742   3.173   0.988   3.775  0.4660  0.4904 -0.1471
13776TIP3    H162743   3.123   0.976   3.856 -0.0470  0.9232 -0.4018
13776TIP3    H262744   3.234   0.914   3.774 -1.4932 -1.1569 -0.8037
13777TIP3   OH262745   4.084   2.181   5.447  0.1238 -0.0807 -0.5904
13777TIP3    H162746   4.022   2.246   5.481  1.3320  0.4701  0.6134
13777TIP3    H262747   4.054   2.163   5.358 -1.8427  0.0764  0.0164
13778TIP3   OH262748   4.545   4.986  12.046  0.6155  0.7740 -0.1316
13778TIP3    H162749   4.547   4.922  11.975  0.6866 -0.2733  0.8130
13778TIP3    H262750   4.598   5.059  12.013 -1.2055  1.2839 -2.0666
13779TIP3   OH262751   1.970   5.980   0.900 -0.0209  0.3467  0.4687
13779TIP3    H162752   1.978   6.036   0.976  2.1423  1.4946 -0.5555
13779TIP3    H262753   2.060   5.959   0.876 -0.7176 -1.2003 -0.8861
13780TIP3   OH262754   2.044   3.206  13.270  0.7577  0.4716 -0.1067
13780TIP3    H162755   2.039   3.237  13.360 -0.3942 -0.9126  0.3319
13780TIP3    H262756   2.027   3.283  13.216  2.1301  1.4539  0.8271
13781TIP3   OH262757   5.540   4.771  16.656 -0.3060  0.3619  0.4967
13781TIP3    H162758   5.501   4.849  16.696  0.4666  1.2815 -0.4992
13781TIP3    H262759   5.631   4.771  16.686 -0.6114 -0.8235  1.4428
13782TIP3   OH262760   1.208   1.034   1.556 -0.0544 -0.2103  0.4740
13782TIP3    H162761   1.226   1.009   1.647  0.3168 -2.7241 -0.2578
13782TIP3    H262762   1.148   1.108   1.563 -2.1318 -2.0356  2.7616
13783TIP3   OH262763   2.049   1.973  11.682 -0.1211  0.4556 -0.4907
13783TIP3    H162764   2.115   1.925  11.731 -0.4368 -1.0788 -1.5356
13783TIP3    H262765   1.966   1.947  11.722 -0.1690  1.8478  0.3690
13784TIP3   OH262766   0.281   4.646  15.511  0.1700 -0.1025 -0.1404
13784TIP3    H162767   0.300   4.638  15.417 -0.2649  0.9100 -0.3299
13784TIP3    H262768   0.225   4.724  15.517  1.5159  0.8064  1.1288
13785TIP3   OH262769   6.574   6.155  12.996  0.1555 -0.1783 -0.0356
13785TIP3    H162770   6.593   6.236  12.948  0.4681 -0.5630 -0.5645
13785TIP3    H262771   6.509   6.181  13.062 -1.8248 -0.0540 -1.9650
13786TIP3   OH262772   3.926   4.324  11.412 -0.3410 -0.1015  0.0174
13786TIP3    H162773   3.968   4.246  11.449 -1.4480 -1.3739 -1.3329
13786TIP3    H262774   3.902   4.298  11.323  1.9943  2.7615 -1.5511
13787TIP3   OH262775   6.431   5.388   2.804 -0.2671 -0.1050  0.3592
13787TIP3    H162776   6.477   5.328   2.745  1.0375  0.0478  1.1949
13787TIP3    H262777   6.498   5.415   2.867 -0.9452  1.9056  0.2448
13788TIP3   OH262778   5.629   4.353  13.217  0.2024  0.3920 -0.2072
13788TIP3    H162779   5.668   4.271  13.187  0.5940  0.4903  0.0319
13788TIP3    H262780   5.546   4.359  13.169 -0.0090 -0.3321  0.0621
13789TIP3   OH262781   3.064   2.057  12.837  0.6620 -0.1450 -0.2037
13789TIP3    H162782   3.032   1.997  12.905  0.0069 -1.2381 -1.4437
13789TIP3    H262783   3.155   2.031  12.823  0.6474 -0.2519 -0.0998
13790TIP3   OH262784   4.761   3.509   1.146 -0.6538  0.2483 -0.4784
13790TIP3    H162785   4.807   3.501   1.063 -0.0733 -0.7108 -0.0781
13790TIP3    H262786   4.829   3.499   1.213 -1.2673 -0.0775  0.1161
13791TIP3   OH262787   1.315   0.130  11.393  0.1853 -0.0282 -0.2787
13791TIP3    H162788   1.320   0.035  11.400  0.0600 -0.0452 -0.4097
13791TIP3    H262789   1.336   0.163  11.480 -1.2870 -0.2222  0.1616
13792TIP3   OH262790   2.567   2.271  16.403  0.0989  0.0394  0.2717
13792TIP3    H162791   2.479   2.269  16.439 -0.2812  0.9466 -0.6009
13792TIP3    H262792   2.557   2.303  16.314  1.3134  0.2515  0.1937
13793TIP3   OH262793   1.411   5.754  12.263 -0.2063 -0.6140  0.4444
13793TIP3    H162794   1.430   5.817  12.332  0.0341 -2.3993  2.0597
13793TIP3    H262795   1.451   5.791  12.184  1.9862  0.1078  1.8703
13794TIP3   OH262796   5.053   2.695   2.887 -0.0964  0.2999 -0.2629
13794TIP3    H162797   5.027   2.603   2.881  1.5056 -0.3201  1.7697
13794TIP3    H262798   5.109   2.709   2.811  0.9516 -0.8582  0.2828
13795TIP3   OH262799   6.011   1.088   3.095 -0.4480 -0.2477  0.0640
13795TIP3    H162800   5.982   1.017   3.152 -1.0610 -1.2596 -1.5096
13795TIP3    H262801   6.021   1.163   3.155 -1.2191 -1.2532  1.4874
13796TIP3   OH262802   5.031   2.224   4.678 -0.1325  0.0829 -0.1740
13796TIP3    H162803   5.031   2.137   4.719 -2.2732 -0.5630 -1.4393
13796TIP3    H262804   4.962   2.271   4.725  0.9258  1.0676  0.4067
13797TIP3   OH262805   3.316   4.073   1.530 -0.2765 -0.4674 -0.3725
13797TIP3    H162806   3.329   4.153   1.480 -0.3541  0.5625  1.2263
13797TIP3    H262807   3.226   4.078   1.561  0.1290 -0.5161  0.8397
13798TIP3   OH262808   4.384   5.792   1.164  0.6979 -0.4488 -0.3204
13798TIP3    H162809   4.464   5.792   1.112 -0.6644 -0.0709 -2.4740
13798TIP3    H262810   4.383   5.706   1.206  1.1287 -1.3305 -2.0559
13799TIP3   OH262811   3.487   6.763  11.377 -0.3016 -0.5457  0.1388
13799TIP3    H162812   3.547   6.836  11.362  0.4856 -1.5661 -1.7638
13799TIP3    H262813   3.519   6.723  11.458  0.8981 -0.3933 -0.2435
13800TIP3   OH262814   0.540   6.218  16.525  0.7349  0.4724 -0.1955
13800TIP3    H162815   0.446   6.212  16.511  0.7399 -0.5378  0.1692
13800TIP3    H262816   0.558   6.312  16.527  0.0681  0.6683 -2.4035
13801TIP3   OH262817   1.680   3.151  16.408 -0.2855 -0.2579  0.8558
13801TIP3    H162818   1.674   3.129  16.501  1.2608  0.5604  1.1640
13801TIP3    H262819   1.589   3.156  16.379 -0.8329  0.5557  2.5947
13802TIP3   OH262820   2.816   2.324  16.519 -0.1420  0.1495  0.3516
13802TIP3    H162821   2.828   2.417  16.535  1.4597  0.1165 -0.4829
13802TIP3    H262822   2.728   2.317  16.481 -0.9527  1.0928  2.0124
13803TIP3   OH262823   6.097   2.606   1.172 -0.3742 -0.2495  0.2854
13803TIP3    H162824   6.130   2.624   1.084 -1.4829  1.3347  0.1651
13803TIP3    H262825   6.149   2.532   1.203  1.2576  0.3258 -1.0077
13804TIP3   OH262826   4.483   6.026   0.272  0.3372  0.3752  0.4841
13804TIP3    H162827   4.451   6.114   0.251  0.8409  1.2543  3.1332
13804TIP3    H262828   4.572   6.024   0.238  0.9901  1.6043  2.0158
13805TIP3   OH262829   3.165   3.652   4.200 -0.3834  0.0683 -0.4912
13805TIP3    H162830   3.168   3.657   4.296 -0.3101 -1.4778 -0.3918
13805TIP3    H262831   3.257   3.652   4.174 -0.3613 -1.0331 -0.4488
13806TIP3   OH262832   4.411   2.505   4.097  0.3338  0.6014 -0.1914
13806TIP3    H162833   4.326   2.467   4.076  0.6473  0.6614 -1.5869
13806TIP3    H262834   4.461   2.432   4.135  0.5593 -0.1415 -1.8499
13807TIP3   OH262835   2.665   2.934  14.692 -0.2076  0.0276 -0.2370
13807TIP3    H162836   2.586   2.972  14.732 -1.4493 -1.3611 -1.2985
13807TIP3    H262837   2.690   2.863  14.752  0.3538  0.5700  0.1838
13808TIP3   OH262838   3.569   3.633   2.560  0.0858 -0.3741 -0.2558
13808TIP3    H162839   3.589   3.644   2.467 -0.7099 -1.5662 -0.5779
13808TIP3    H262840   3.507   3.704   2.579 -0.6012 -0.7958 -0.9011
13809TIP3   OH262841   2.111   3.905  14.580 -0.1495 -0.1465 -0.2132
13809TIP3    H162842   2.048   3.841  14.548  0.4318 -1.2697  0.7929
13809TIP3    H262843   2.084   3.988  14.542 -1.3630 -0.8677 -0.9504
13810TIP3   OH262844   5.405   5.701   6.167  0.3152 -0.1961 -0.0250
13810TIP3    H162845   5.427   5.794   6.156  1.6953 -0.3214  1.4971
13810TIP3    H262846   5.488   5.659   6.189 -0.5762 -1.5293  0.8742
13811TIP3   OH262847   2.265   0.954  13.796  0.3805 -0.1403 -0.3824
13811TIP3    H162848   2.183   0.913  13.768  0.7093 -0.6128 -0.6620
13811TIP3    H262849   2.314   0.883  13.838  0.6130  0.1626 -0.1429
13812TIP3   OH262850   4.312   4.328  15.819  0.0878  0.5965  0.3318
13812TIP3    H162851   4.344   4.238  15.811 -1.2092 -0.1848  3.2140
13812TIP3    H262852   4.387   4.377  15.851  0.1845  0.0704  0.9230
13813TIP3   OH262853   1.539   3.986  11.618 -1.0287 -0.1829  0.2779
13813TIP3    H162854   1.537   4.044  11.694 -0.2270  0.6014 -0.2934
13813TIP3    H262855   1.630   3.986  11.589 -1.0261 -1.6871  0.2327
13814TIP3   OH262856   4.122   3.501   3.769 -0.0393 -0.1277  0.3294
13814TIP3    H162857   4.069   3.580   3.766 -2.5162 -1.7238  0.4951
13814TIP3    H262858   4.212   3.532   3.775 -0.9746  2.6552  0.4165
13815TIP3   OH262859   4.479   6.739  16.682  0.3773  0.4913 -0.6662
13815TIP3    H162860   4.555   6.714  16.735 -0.5332  0.4659  0.6525
13815TIP3    H262861   4.432   6.657  16.667 -0.2085  0.7333 -0.1655
13816TIP3   OH262862   4.490   0.176  14.304  0.2431 -0.0053 -0.7127
13816TIP3    H162863   4.542   0.227  14.365 -0.5187 -0.1721  0.0841
13816TIP3    H262864   4.440   0.242  14.255 -2.0150 -0.0196  1.4684
13817TIP3   OH262865   2.838   0.241  13.680  0.4907  0.2170  0.5464
13817TIP3    H162866   2.930   0.217  13.669 -0.1019 -2.9256  1.9557
13817TIP3    H262867   2.833   0.281  13.767  0.6163  0.9931  0.2018
13818TIP3   OH262868   5.312   1.795   4.884  0.1184 -0.0956 -0.4667
13818TIP3    H162869   5.311   1.879   4.838 -0.2207 -1.4730 -3.0828
13818TIP3    H262870   5.219   1.772   4.893  0.2225 -0.6245 -0.6683
13819TIP3   OH262871   0.031   2.667   0.949 -0.0510 -0.5038  0.0652
13819TIP3    H162872   0.040   2.763   0.949 -0.4497 -0.4439 -1.8475
13819TIP3    H262873   0.108   2.635   0.995  1.6040  0.6117 -1.8972
13820TIP3   OH262874   0.483   3.679  16.250  0.1322 -0.2316  0.7237
13820TIP3    H162875   0.399   3.636  16.266  0.2822 -0.5528  0.6580
13820TIP3    H262876   0.482   3.756  16.307 -0.1418 -0.3175  0.8347
13821TIP3   OH262877   4.413   6.517  14.955 -0.4127  0.6642 -0.2801
13821TIP3    H162878   4.393   6.430  14.987  0.5117  0.9002  0.9915
13821TIP3    H262879   4.492   6.543  15.004 -2.2320  3.2948  1.3942
13822TIP3   OH262880   0.880   3.780   3.987  0.1439  1.2011  0.3242
13822TIP3    H162881   0.912   3.698   3.949  1.9037  2.3079 -0.6400
13822TIP3    H262882   0.785   3.776   3.976  0.1199 -1.0901  1.0866
13823TIP3   OH262883   5.665   2.014   2.314  0.0551  0.3924  0.6384
13823TIP3    H162884   5.705   2.101   2.307 -1.4613  1.0631 -0.1555
13823TIP3    H262885   5.725   1.955   2.270  1.3192  0.9708  1.5760
13824TIP3   OH262886   0.369   1.498  13.422 -0.0797 -0.2666  0.5120
13824TIP3    H162887   0.435   1.428  13.416  1.0359  0.7964  0.1197
13824TIP3    H262888   0.316   1.487  13.342  1.5178  0.7222 -0.7164
13825TIP3   OH262889   6.168   2.507   4.580 -0.1000  0.3307 -0.3157
13825TIP3    H162890   6.154   2.584   4.525 -0.3001 -0.7191 -1.7670
13825TIP3    H262891   6.211   2.541   4.659  1.4323  1.6837 -1.6990
13826TIP3   OH262892   6.032   3.480   6.017  0.2099  0.4207 -0.0054
13826TIP3    H162893   6.032   3.431   6.099 -1.0049  0.5648  0.0922
13826TIP3    H262894   5.955   3.537   6.022  0.2621  0.6173 -1.1346
13827TIP3   OH262895   4.783   2.418  12.751 -0.3391 -0.0547 -0.2167
13827TIP3    H162896   4.689   2.402  12.751 -0.5720  1.2316  0.8586
13827TIP3    H262897   4.791   2.511  12.726  0.7325 -0.5825 -1.9612
13828TIP3   OH262898   2.145   6.065   3.520 -0.0886  0.2262 -0.4869
13828TIP3    H162899   2.052   6.085   3.517 -0.4215 -1.3490 -1.7669
13828TIP3    H262900   2.185   6.123   3.455 -0.4973 -0.5929 -1.4811
13829TIP3   OH262901   4.644   1.430   4.895 -0.0679 -0.3203 -0.0669
13829TIP3    H162902   4.704   1.436   4.970  0.3940 -0.4195 -0.4259
13829TIP3    H262903   4.653   1.340   4.865  0.8042  0.1061 -1.1092
13830TIP3   OH262904   6.169   6.627  12.920 -0.2340  0.5588 -0.1524
13830TIP3    H162905   6.218   6.682  12.859  0.0862 -0.7850 -1.1284
13830TIP3    H262906   6.103   6.583  12.865  0.5461 -1.2371  0.3215
13831TIP3   OH262907   5.742   0.188  14.921  0.0787  0.0279  0.6354
13831TIP3    H162908   5.666   0.236  14.887 -0.0805 -0.3152  0.4985
13831TIP3    H262909   5.749   0.216  15.012 -0.7359 -0.5707  0.8949
13832TIP3   OH262910   3.366   1.663   4.172 -0.1227 -0.6630  0.2776
13832TIP3    H162911   3.341   1.739   4.225 -0.5337 -0.4751 -0.1815
13832TIP3    H262912   3.299   1.659   4.104  1.1448 -0.0844 -1.0295
13833TIP3   OH262913   1.266   6.601   5.728  0.5530  0.4450  0.1135
13833TIP3    H162914   1.188   6.634   5.684  0.5031  0.4977  0.2441
13833TIP3    H262915   1.260   6.506   5.718  0.6033  0.4633 -0.1002
13834TIP3   OH262916   1.922   1.200   5.336  0.4493 -0.3979 -0.4874
13834TIP3    H162917   2.006   1.205   5.382  0.3488 -0.8220 -0.2525
13834TIP3    H262918   1.940   1.237   5.250  0.4872  0.9636  0.0988
13835TIP3   OH262919   0.765   4.000   3.657  0.0668 -0.4867 -0.0789
13835TIP3    H162920   0.808   4.060   3.597 -2.1199  0.5043 -0.7126
13835TIP3    H262921   0.756   3.919   3.608  2.3787 -1.1436  0.5284
13836TIP3   OH262922   2.173   0.692  15.094 -0.1505 -0.0719  0.2763
13836TIP3    H162923   2.136   0.776  15.122 -0.0034  0.3287 -0.7227
13836TIP3    H262924   2.257   0.687  15.141  0.4437  0.9548 -0.6363
13837TIP3   OH262925   3.475   1.719  11.673  0.1135  0.2007  1.2389
13837TIP3    H162926   3.535   1.772  11.620 -1.2170  1.0948  0.5839
13837TIP3    H262927   3.388   1.746  11.644 -0.6038 -2.8745  0.3726
13838TIP3   OH262928   2.421   0.891  10.654  0.0666  0.0584  0.3539
13838TIP3    H162929   2.510   0.870  10.682  1.1474 -0.5708 -3.3116
13838TIP3    H262930   2.379   0.806  10.641 -1.4100  0.3426  2.8098
13839TIP3   OH262931   3.421   4.661  17.058 -0.1983  0.2388  0.2021
13839TIP3    H162932   3.467   4.633  17.137 -2.4065 -1.7722  0.8090
13839TIP3    H262933   3.472   4.624  16.986 -0.1455 -0.8909  0.8114
13840TIP3   OH262934   3.750   0.272   5.614  0.5772 -0.6603  0.2364
13840TIP3    H162935   3.740   0.359   5.653  0.1282 -0.2917 -0.6953
13840TIP3    H262936   3.686   0.269   5.543  0.1145 -2.0041  0.6890
13841TIP3   OH262937   0.388   4.109   2.836 -0.1718 -0.4383  0.0993
13841TIP3    H162938   0.460   4.172   2.833  0.3259 -1.0257 -0.4582
13841TIP3    H262939   0.346   4.115   2.750 -0.5166 -0.4050  0.2693
13842TIP3   OH262940   3.125   2.362  13.183 -0.1926 -0.0377  0.3402
13842TIP3    H162941   3.143   2.453  13.207 -0.8643 -0.1961  1.5275
13842TIP3    H262942   3.091   2.366  13.094  0.2305  0.8349  0.2186
13843TIP3   OH262943   4.922   2.466   6.141  0.1195 -0.2102  0.0212
13843TIP3    H162944   4.902   2.541   6.197 -1.0229  0.3627 -1.1026
13843TIP3    H262945   4.970   2.405   6.197  0.8235  1.2477  1.0210
13844TIP3   OH262946   0.518   5.396   2.052 -0.6982  0.8259  0.3782
13844TIP3    H162947   0.490   5.444   2.130  1.8432  0.2105  1.7406
13844TIP3    H262948   0.614   5.406   2.051 -0.4281 -1.5491 -1.0580
13845TIP3   OH262949   0.114   2.637  13.894  0.8055  0.1326 -0.2101
13845TIP3    H162950   0.021   2.640  13.917  0.5471 -0.8927 -1.0628
13845TIP3    H262951   0.141   2.729  13.893  0.3969  0.3216  2.3438
13846TIP3   OH262952   0.167   4.132  13.851  0.0683 -0.1148  0.2167
13846TIP3    H162953   0.116   4.159  13.927 -0.7201  1.9156 -1.0126
13846TIP3    H262954   0.118   4.058  13.814  0.0696 -0.6339  1.2402
13847TIP3   OH262955   5.789   3.552  12.223  0.1962  0.1997  0.7011
13847TIP3    H162956   5.724   3.620  12.242  0.8086  0.5983  1.3569
13847TIP3    H262957   5.749   3.500  12.152 -0.3896  1.0649  0.3912
13848TIP3   OH262958   3.174   2.900  16.224  0.4715 -0.3442 -0.4089
13848TIP3    H162959   3.255   2.850  16.236  0.8108  0.7078  2.0154
13848TIP3    H262960   3.105   2.834  16.220  1.1016 -1.1109  0.9807
13849TIP3   OH262961   2.958   6.610   0.267 -0.0426 -0.2791 -0.3466
13849TIP3    H162962   2.976   6.535   0.211  2.6245  0.5493 -0.6488
13849TIP3    H262963   2.933   6.680   0.207  4.4474  1.1036 -0.7886
13850TIP3   OH262964   4.896   0.118   2.141  0.0883 -0.0058  0.2489
13850TIP3    H162965   4.882   0.204   2.101  0.9799 -0.2582 -0.6192
13850TIP3    H262966   4.922   0.137   2.231  1.7691  0.6807 -0.3699
13851TIP3   OH262967   4.325   4.641  13.906 -0.6674  0.2259 -0.2221
13851TIP3    H162968   4.284   4.686  13.832  0.1814  0.1865 -0.7377
13851TIP3    H262969   4.406   4.604  13.868  0.2102  0.9460  0.9215
13852TIP3   OH262970   6.735   4.585  11.530 -0.6871 -0.0219 -0.2090
13852TIP3    H162971   6.658   4.580  11.473 -0.4080  2.0993 -0.8117
13852TIP3    H262972   6.705   4.634  11.607  0.1239  1.0655 -0.5737
13853TIP3   OH262973   4.896   0.237  11.540 -0.1834 -0.0338  0.0606
13853TIP3    H162974   4.991   0.250  11.532 -0.1043  0.8232  2.0701
13853TIP3    H262975   4.858   0.317  11.504 -0.0688  0.3495  0.7650
13854TIP3   OH262976   2.136   0.409  12.613 -0.3370  0.4104 -0.3384
13854TIP3    H162977   2.046   0.424  12.587 -1.2804 -1.0694  1.8521
13854TIP3    H262978   2.146   0.458  12.695 -0.0674 -1.6844  0.9373
13855TIP3   OH262979   2.229   5.311   0.324 -0.2253 -0.2103  0.4439
13855TIP3    H162980   2.217   5.329   0.417 -0.3528  2.7256 -0.0983
13855TIP3    H262981   2.323   5.320   0.309 -0.5567  2.6355 -0.2913
13856TIP3   OH262982   3.309   2.052  14.341 -0.1587  0.1997  0.5198
13856TIP3    H162983   3.373   2.083  14.405  1.7044  0.0360 -1.1951
13856TIP3    H262984   3.277   1.969  14.378 -1.8795  1.8923  2.9705
13857TIP3   OH262985   3.078   1.076  14.925 -0.0500  0.3332 -0.0226
13857TIP3    H162986   3.122   1.148  14.880 -0.6109  0.9072  0.3320
13857TIP3    H262987   3.065   1.109  15.014  1.4988 -0.9713  0.7077
13858TIP3   OH262988   5.585   6.632   5.017 -0.1814 -0.2514  0.4781
13858TIP3    H162989   5.501   6.618   4.973 -0.0231 -1.9399  0.7060
13858TIP3    H262990   5.564   6.628   5.110 -0.1031  0.9044  0.5523
13859TIP3   OH262991   2.948   4.962   5.081  0.1054 -0.5359 -0.1837
13859TIP3    H162992   2.990   5.044   5.058 -1.6151  0.1092 -1.1792
13859TIP3    H262993   2.959   4.907   5.003 -0.3533 -0.5670 -0.2321
13860TIP3   OH262994   5.630   3.359  12.936  0.1626 -0.1321 -0.0463
13860TIP3    H162995   5.699   3.421  12.961  0.4664 -0.6576  0.4343
13860TIP3    H262996   5.665   3.273  12.961 -0.0929 -0.5362 -1.0544
13861TIP3   OH262997   4.449   0.915  11.948 -0.0357  0.1399 -0.4452
13861TIP3    H162998   4.527   0.933  12.001  0.8703  1.1833 -2.0642
13861TIP3    H262999   4.377   0.911  12.010  1.0627  0.9452  0.8956
13862TIP3   OH263000   5.235   1.259   2.004 -0.0964 -0.3351 -0.4720
13862TIP3    H163001   5.306   1.196   2.015 -0.2496 -0.5762 -0.8574
13862TIP3    H263002   5.188   1.229   1.926  0.7135  1.0908 -1.5311
13863TIP3   OH263003   0.283   5.182  11.359  0.1939 -0.0127 -0.0891
13863TIP3    H163004   0.350   5.201  11.294  0.2870  0.9196  0.2856
13863TIP3    H263005   0.273   5.262  11.410  0.1811 -0.7612  1.1199
13864TIP3   OH263006   3.277   2.066   5.178  0.5654  0.2222  0.6378
13864TIP3    H163007   3.253   2.021   5.259 -1.0259 -2.4796 -1.2523
13864TIP3    H263008   3.225   2.146   5.179 -2.3857 -1.6484  0.4954
13865TIP3   OH263009   5.681   2.814  11.378  0.7388  0.4466  0.1188
13865TIP3    H163010   5.665   2.839  11.287  0.0723  2.1131  0.6760
13865TIP3    H263011   5.594   2.793  11.413  1.1673 -1.7487 -0.0504
13866TIP3   OH263012   0.797   4.358   5.688 -0.7000 -0.3371  0.2357
13866TIP3    H163013   0.843   4.378   5.770 -0.3209  2.1909 -0.5424
13866TIP3    H263014   0.708   4.333   5.716  0.2917 -2.4874  1.5744
13867TIP3   OH263015   2.541   5.679  16.596  0.5157 -0.0249 -1.1184
13867TIP3    H163016   2.570   5.725  16.675 -0.5905 -0.1138 -0.6469
13867TIP3    H263017   2.611   5.692  16.533  2.2181 -1.3716  0.4191
13868TIP3   OH263018   3.444   3.973  13.281 -0.0494  0.2745  0.2100
13868TIP3    H163019   3.467   4.061  13.252 -0.2148  0.1202 -0.4030
13868TIP3    H263020   3.382   3.986  13.352  2.4913  0.7280  2.4529
13869TIP3   OH263021   5.641   0.962  13.063 -0.1008 -0.4138 -0.1525
13869TIP3    H163022   5.579   0.952  12.991 -0.4586  0.1823  0.0651
13869TIP3    H263023   5.610   1.040  13.110  2.6171  1.8654 -1.9185
13870TIP3   OH263024   6.307   1.367  15.987 -0.1847 -0.0339  0.7946
13870TIP3    H163025   6.320   1.289  16.042  0.3064  0.3818  1.2757
13870TIP3    H263026   6.254   1.336  15.914 -0.4987 -0.6901  1.2923
13871TIP3   OH263027   3.420   3.468   1.815  0.6045 -0.2034  0.2494
13871TIP3    H163028   3.430   3.418   1.896 -0.6819 -0.2906  0.3616
13871TIP3    H263029   3.328   3.456   1.791  1.2666 -1.2268 -1.9016
13872TIP3   OH263030   1.562   3.462   2.903  0.4452 -0.1437  0.4928
13872TIP3    H163031   1.632   3.526   2.896  1.2113 -1.0108  0.1614
13872TIP3    H263032   1.485   3.513   2.926  0.8567  1.0049 -0.6522
13873TIP3   OH263033   4.300   0.276  17.145 -0.4063 -0.0641  0.0270
13873TIP3    H163034   4.207   0.284  17.163 -0.4570 -1.2196  0.3074
13873TIP3    H263035   4.305   0.215  17.071  0.2284 -1.4978  1.2477
13874TIP3   OH263036   1.787   0.095  11.207  0.5853 -0.5902 -0.1215
13874TIP3    H163037   1.879   0.120  11.208  0.4630 -0.1352  0.3352
13874TIP3    H263038   1.750   0.139  11.284 -0.1955 -0.0601 -0.7883
13875TIP3   OH263039   3.090   1.447   6.121 -0.0053  0.4568 -0.1485
13875TIP3    H163040   3.120   1.537   6.112  0.0395  0.4457 -0.1107
13875TIP3    H263041   3.010   1.453   6.173  1.4179  0.2337  2.1757
13876TIP3   OH263042   3.484   4.923  10.440  0.2774  0.0212  0.0823
13876TIP3    H163043   3.455   5.001  10.487 -0.2782  1.3024 -2.2941
13876TIP3    H263044   3.404   4.875  10.420  0.2111  0.9703 -2.0505
13877TIP3   OH263045   6.321   5.308   4.638 -0.5900  0.5178  0.6604
13877TIP3    H163046   6.355   5.280   4.722 -0.2290 -1.1672 -0.0360
13877TIP3    H263047   6.245   5.362   4.660  0.6022  1.6504  2.1040
13878TIP3   OH263048   6.611   2.955   0.799  0.3240  0.5557  1.1126
13878TIP3    H163049   6.608   2.903   0.879  0.3498 -0.6871  0.3111
13878TIP3    H263050   6.524   2.994   0.793 -0.4375 -1.1754  0.5591
13879TIP3   OH263051   1.218   3.218  15.132 -0.4955 -0.7979  0.1513
13879TIP3    H163052   1.288   3.282  15.117 -1.1798 -0.2645 -0.7572
13879TIP3    H263053   1.140   3.271  15.146 -0.6833 -1.3861  1.4480
13880TIP3   OH263054   6.441   0.689  14.460  0.2223  0.3202  0.1865
13880TIP3    H163055   6.471   0.604  14.428  0.3041  0.1785  0.6364
13880TIP3    H263056   6.450   0.747  14.384 -0.0745 -0.1273 -0.1983
13881TIP3   OH263057   5.254   1.545  11.051  0.3420  0.2333 -0.1492
13881TIP3    H163058   5.244   1.452  11.068 -1.5861  0.6594  1.2188
13881TIP3    H263059   5.235   1.556  10.958  0.0545 -0.6484 -0.1940
13882TIP3   OH263060   4.431   5.865  14.797  0.2416 -0.4397  0.1927
13882TIP3    H163061   4.437   5.851  14.892 -2.7805  1.9757  0.8063
13882TIP3    H263062   4.487   5.941  14.781  0.7958 -0.8812  0.0107
13883TIP3   OH263063   5.694   6.668  13.315  0.4887 -0.5603 -0.0967
13883TIP3    H163064   5.694   6.643  13.408  0.0213 -0.1113  0.0301
13883TIP3    H263065   5.724   6.590  13.269 -3.5052 -2.3205  0.0550
13884TIP3   OH263066   2.453   1.155   0.089  0.3589  0.1337  0.0036
13884TIP3    H163067   2.407   1.167   0.005  1.4640  1.4990 -0.4358
13884TIP3    H263068   2.433   1.065   0.115 -0.4827 -0.1138 -1.4311
13885TIP3   OH263069   0.436   6.490   2.472 -0.1125  0.5481  0.4660
13885TIP3    H163070   0.399   6.570   2.435  1.0785 -0.1129 -2.2336
13885TIP3    H263071   0.527   6.490   2.445 -0.0653 -1.6787  0.5234
13886TIP3   OH263072   5.322   0.287  13.259  0.6586  0.0928 -0.0694
13886TIP3    H163073   5.402   0.246  13.294 -0.0368 -0.3260  1.0724
13886TIP3    H263074   5.319   0.373  13.302  0.0731 -0.2203  0.5354
13887TIP3   OH263075   6.373   1.543   2.805 -0.4009 -0.9825  0.1256
13887TIP3    H163076   6.408   1.471   2.752 -1.0314 -0.8774 -0.4489
13887TIP3    H263077   6.304   1.503   2.858 -0.1629 -0.9716  0.4455
13888TIP3   OH263078   3.527   4.697  14.269 -0.0993 -0.7577  0.7053
13888TIP3    H163079   3.619   4.716  14.249 -0.5762  0.3102 -0.5935
13888TIP3    H263080   3.495   4.652  14.191 -0.8637 -0.4783  0.8586
13889TIP3   OH263081   0.272   1.744  15.111  0.3137  0.0973 -0.6171
13889TIP3    H163082   0.356   1.751  15.155  1.1892 -0.6042 -2.1228
13889TIP3    H263083   0.285   1.787  15.027 -0.7535 -0.2461 -0.9779
13890TIP3   OH263084   0.063   4.473   3.992 -0.3618  0.5159 -0.4299
13890TIP3    H163085   0.104   4.400   4.038 -0.7220 -0.2892 -1.3843
13890TIP3    H263086   0.009   4.515   4.059  1.1870  0.9697  0.5698
13891TIP3   OH263087   5.712   5.558  16.126 -0.2225  0.2817 -0.5851
13891TIP3    H163088   5.789   5.610  16.103  0.2186 -0.3639 -0.5860
13891TIP3    H263089   5.715   5.552  16.221 -2.0050  2.8853 -0.3168
13892TIP3   OH263090   1.635   2.179   2.337  0.5065  0.2048  0.1235
13892TIP3    H163091   1.666   2.193   2.248 -1.4627 -1.2161 -0.8036
13892TIP3    H263092   1.630   2.267   2.375  1.0694  0.8419 -1.2569
13893TIP3   OH263093   6.340   2.971  11.929 -0.1274 -0.6862  0.6926
13893TIP3    H163094   6.412   2.927  11.883  0.6346  2.8589 -1.6830
13893TIP3    H263095   6.261   2.925  11.900  0.5825 -0.1105 -2.2702
13894TIP3   OH263096   2.582   3.366  16.255  0.1113 -0.2022 -0.4111
13894TIP3    H163097   2.594   3.416  16.336 -2.5437  1.5141 -1.0124
13894TIP3    H263098   2.554   3.431  16.191 -1.4687 -2.1643 -1.7470
13895TIP3   OH263099   3.058   6.581  11.916  0.1359 -0.6009 -0.3780
13895TIP3    H163100   3.110   6.652  11.953 -0.1601 -0.6629  0.1704
13895TIP3    H263101   3.122   6.517  11.886  0.3841 -0.6283  0.1931
13896TIP3   OH263102   3.693   0.799   3.295 -0.7221  0.5204  0.5071
13896TIP3    H163103   3.614   0.770   3.340  0.1196 -0.2001  1.5578
13896TIP3    H263104   3.676   0.783   3.202 -1.5555 -0.2242  0.7902
13897TIP3   OH263105   4.713   4.907  16.556  0.0667 -0.2289 -0.7253
13897TIP3    H163106   4.733   4.921  16.649 -0.2142 -1.2508 -0.5114
13897TIP3    H263107   4.650   4.976  16.535 -2.2954 -1.8695  0.6654
13898TIP3   OH263108   1.832   6.720   5.015  0.3300 -0.0123  0.0097
13898TIP3    H163109   1.854   6.718   4.922  2.2469 -1.3800  0.4561
13898TIP3    H263110   1.738   6.701   5.019 -0.3500  2.7093 -1.7724
13899TIP3   OH263111   1.484   1.555   4.698  0.3449  0.6212  0.5684
13899TIP3    H163112   1.435   1.518   4.625  0.7390 -0.1268  0.6732
13899TIP3    H263113   1.503   1.645   4.671 -1.3657  1.0221  0.6807
13900TIP3   OH263114   3.879   6.261  12.161  0.6348 -0.3442 -0.0596
13900TIP3    H163115   3.798   6.223  12.194  0.1831  0.0516 -0.7246
13900TIP3    H263116   3.858   6.293  12.074  1.3732  0.2078 -0.0443
13901TIP3   OH263117   4.661   5.262   3.109  0.2921  0.2864  0.1986
13901TIP3    H163118   4.684   5.198   3.042  0.6282 -0.0571  0.6483
13901TIP3    H263119   4.606   5.326   3.062  3.1862  1.8454 -1.2230
13902TIP3   OH263120   3.392   0.389  13.231  0.4340  0.1507  0.2577
13902TIP3    H163121   3.323   0.346  13.281  0.0709 -0.1952 -0.5433
13902TIP3    H263122   3.462   0.323  13.225  1.6236  1.1061  2.6472
13903TIP3   OH263123   0.519   4.607   5.622 -0.4975  0.2941  0.2909
13903TIP3    H163124   0.503   4.698   5.648 -0.0804  0.0265  1.5414
13903TIP3    H263125   0.555   4.566   5.701  0.9735 -0.5291 -0.7908
13904TIP3   OH263126   3.862   2.198   3.351  0.3288 -0.1787  0.0833
13904TIP3    H163127   3.834   2.231   3.436 -0.8243 -0.6401 -0.1120
13904TIP3    H263128   3.855   2.273   3.292 -1.9953 -0.6446 -0.2931
13905TIP3   OH263129   3.899   0.510   2.296  0.4366  0.5476  0.5725
13905TIP3    H163130   3.970   0.447   2.285 -3.1696 -3.6149 -0.3205
13905TIP3    H263131   3.919   0.580   2.233  3.6102 -0.5257  0.2888
13906TIP3   OH263132   4.644   6.135  11.501 -0.0300  0.2513 -0.0826
13906TIP3    H163133   4.740   6.134  11.496 -0.0434  1.0717 -0.6771
13906TIP3    H263134   4.615   6.098  11.418 -0.2352 -2.4218  1.1428
13907TIP3   OH263135   0.997   1.688   4.809  0.0095  0.1713 -0.1923
13907TIP3    H163136   1.063   1.748   4.775  0.3075  0.4083  0.8046
13907TIP3    H263137   1.047   1.612   4.839 -0.0652  0.7356  1.4160
13908TIP3   OH263138   6.748   6.559   6.115  0.2944 -0.0634 -0.0809
13908TIP3    H163139   6.794   6.492   6.165  0.2090  0.0223  0.1121
13908TIP3    H263140   6.728   6.517   6.031  0.4594 -0.1967 -0.0529
13909TIP3   OH263141   6.692   0.837   0.484  0.1203  0.2122 -0.0294
13909TIP3    H163142   6.787   0.829   0.492  0.3197  1.6127 -0.9230
13909TIP3    H263143   6.677   0.852   0.391 -0.9569  0.4572  0.1736
13910TIP3   OH263144   6.480   2.027  15.260  0.1887 -0.4479  0.0656
13910TIP3    H163145   6.451   2.109  15.221  0.0161 -0.1304  0.8478
13910TIP3    H263146   6.467   1.962  15.192  2.1087  0.4713 -1.2409
13911TIP3   OH263147   4.031   5.586  12.765  0.4450  0.0535 -0.1941
13911TIP3    H163148   3.966   5.597  12.834 -0.5073  0.3292 -1.1305
13911TIP3    H263149   4.113   5.569  12.812 -0.7088 -2.5755  0.9683
13912TIP3   OH263150   0.652   3.799   3.442 -0.1471 -0.1384 -0.2176
13912TIP3    H163151   0.652   3.871   3.378  2.9036  0.1148 -0.0388
13912TIP3    H263152   0.560   3.786   3.464 -0.9583  2.1561 -1.9983
13913TIP3   OH263153   2.108   5.639   4.743  0.8340 -0.5159  0.1838
13913TIP3    H163154   2.146   5.564   4.789  1.7672  0.1167  0.4607
13913TIP3    H263155   2.149   5.637   4.656  0.0218 -0.9716 -0.1947
13914TIP3   OH263156   3.739   6.397  14.487 -0.3320 -0.2743  0.3354
13914TIP3    H163157   3.687   6.430  14.413  0.5489  0.4843  0.0461
13914TIP3    H263158   3.810   6.348  14.447 -0.3614 -0.6157  0.7071
13915TIP3   OH263159   3.648   3.490  12.761  0.5724  0.0389  0.2576
13915TIP3    H163160   3.720   3.546  12.792  1.5505 -1.3575  0.5301
13915TIP3    H263161   3.569   3.535  12.791  1.4013  0.5718  1.7022
13916TIP3   OH263162   6.283   4.306  12.892  0.1673  0.8213 -0.3669
13916TIP3    H163163   6.296   4.332  12.983 -0.4480 -0.1218 -0.0019
13916TIP3    H263164   6.324   4.220  12.886 -0.7612  0.3981 -0.6951
13917TIP3   OH263165   3.992   4.071  11.997  0.3317 -0.2222  0.1497
13917TIP3    H163166   4.077   4.102  12.028 -0.0494  1.3736 -0.3065
13917TIP3    H263167   3.969   4.134  11.928 -0.3642 -1.7304 -1.0087
13918TIP3   OH263168   4.712   0.983  14.206 -0.0282 -0.0449 -0.0922
13918TIP3    H163169   4.765   0.979  14.126 -1.2360 -1.5535 -0.8520
13918TIP3    H263170   4.650   0.911  14.196 -1.7347  1.2324  1.1163
13919TIP3   OH263171   0.236   2.358   3.508  1.3357  0.1257 -0.3520
13919TIP3    H163172   0.228   2.268   3.540  2.8278 -0.1673 -0.7803
13919TIP3    H263173   0.295   2.401   3.570 -0.0230  1.0624  0.3293
13920TIP3   OH263174   4.317   1.675  16.049  0.1212 -0.0361 -0.5550
13920TIP3    H163175   4.374   1.601  16.027  1.3305  0.8515 -0.4045
13920TIP3    H263176   4.264   1.689  15.970  1.0765  0.0253 -1.1895
13921TIP3   OH263177   0.767   2.009   3.883 -0.3357  0.6260  0.4202
13921TIP3    H163178   0.781   2.054   3.966  1.0984 -0.7000  0.9301
13921TIP3    H263179   0.827   1.934   3.886 -0.5908  0.3063 -1.6185
13922TIP3   OH263180   0.865   5.619  11.430  0.0288  0.2237  0.7136
13922TIP3    H163181   0.791   5.565  11.457 -0.0957 -1.4983 -2.6658
13922TIP3    H263182   0.942   5.568  11.455 -0.0074  0.3756  1.1315
13923TIP3   OH263183   3.901   6.683  13.379 -0.0495 -0.2211 -0.2229
13923TIP3    H163184   3.936   6.688  13.290 -1.2160 -0.6713 -0.7259
13923TIP3    H263185   3.894   6.774  13.407  0.7199 -0.0949 -0.4336
13924TIP3   OH263186   4.217   2.511  16.605 -0.3002 -0.0087 -0.3893
13924TIP3    H163187   4.123   2.496  16.598 -0.1307 -1.3395  0.0330
13924TIP3    H263188   4.257   2.450  16.544  0.3318  0.0388 -0.0381
13925TIP3   OH263189   2.675   6.303  16.914  0.6601  0.0826  0.7386
13925TIP3    H163190   2.670   6.217  16.956 -0.2114 -0.8958 -1.3182
13925TIP3    H263191   2.587   6.340  16.925  0.3541 -0.2863 -0.4436
13926TIP3   OH263192   6.519   2.463   5.380  0.2063  0.1014  0.3705
13926TIP3    H163193   6.565   2.405   5.440  0.1372  0.8465  1.1447
13926TIP3    H263194   6.431   2.472   5.417  0.8116  2.2877  1.3534
13927TIP3   OH263195   2.157   0.178  13.435 -0.3469  0.4843 -0.5089
13927TIP3    H163196   2.119   0.247  13.381 -1.1292  0.1216 -0.4272
13927TIP3    H263197   2.216   0.131  13.375 -0.6063  0.5764 -0.8396
13928TIP3   OH263198   3.042   2.135   4.468 -0.5201 -0.0519 -0.1494
13928TIP3    H163199   3.006   2.207   4.417  0.1901 -0.3922 -1.1468
13928TIP3    H263200   2.971   2.071   4.473  0.0093 -0.8644 -2.3946
13929TIP3   OH263201   3.726   3.807  10.729 -0.2959 -0.7201  0.4992
13929TIP3    H163202   3.809   3.841  10.762  0.5813 -0.8028 -1.5403
13929TIP3    H263203   3.732   3.816  10.634 -3.2229  0.6400  0.3690
13930TIP3   OH263204   2.085   5.784   2.487  0.3217 -0.3815  0.1528
13930TIP3    H163205   1.995   5.754   2.488  0.3613 -0.5812 -1.4048
13930TIP3    H263206   2.127   5.736   2.559 -0.4033 -1.5709 -0.2048
13931TIP3   OH263207   6.521   4.443   6.596 -0.1105  0.0867  0.0138
13931TIP3    H163208   6.460   4.369   6.601 -0.2232  0.1560 -0.3278
13931TIP3    H263209   6.605   4.404   6.573 -0.4486  0.2012 -1.4956
13932TIP3   OH263210   0.942   2.790   6.335 -0.3047  0.4243 -0.4741
13932TIP3    H163211   0.923   2.835   6.417 -0.5358 -0.1179 -0.2247
13932TIP3    H263212   1.023   2.830   6.303 -1.2879  2.0501 -1.0201
13933TIP3   OH263213   3.360   0.142   2.036 -0.4926  0.2149 -0.6242
13933TIP3    H163214   3.455   0.153   2.032 -0.1845 -1.7762  0.5564
13933TIP3    H263215   3.333   0.188   2.115 -0.4477  0.3984 -0.7165
13934TIP3   OH263216   6.011   0.112   5.448  0.3967 -0.4627  0.8317
13934TIP3    H163217   6.002   0.121   5.354 -0.3636 -0.7962  0.8669
13934TIP3    H263218   6.104   0.092   5.462  0.4673 -0.6100  0.1446
13935TIP3   OH263219   1.632   2.061   2.611  0.5227 -0.0519  0.3151
13935TIP3    H163220   1.599   2.088   2.525 -1.0826 -1.2235  0.5507
13935TIP3    H263221   1.722   2.032   2.594  0.2409 -0.2196 -0.9505
13936TIP3   OH263222   4.189   0.522   5.904  0.1542  0.3238 -0.5097
13936TIP3    H163223   4.165   0.605   5.945  1.8594  0.9171 -0.6560
13936TIP3    H263224   4.147   0.455   5.958  3.5614  0.9936  3.2558
13937TIP3   OH263225   1.012   1.035  14.903 -0.0791 -0.7730 -0.2697
13937TIP3    H163226   1.080   1.060  14.966 -0.2488  0.0780 -0.4195
13937TIP3    H263227   0.991   0.945  14.926  2.4390 -1.6990 -1.4328
13938TIP3   OH263228   0.868   4.767   2.553  0.3228 -0.1736 -0.4614
13938TIP3    H163229   0.905   4.714   2.624 -3.1013 -0.3472  1.2560
13938TIP3    H263230   0.914   4.736   2.475  3.2180 -0.9046  1.4332
13939TIP3   OH263231   0.308   0.152  11.745 -0.5004  0.1016  0.3057
13939TIP3    H163232   0.328   0.061  11.770  2.4073  1.1577  2.0530
13939TIP3    H263233   0.384   0.180  11.694 -0.7108  2.0282  1.0199
13940TIP3   OH263234   1.585   2.024  11.159  0.2944 -0.0565 -0.1143
13940TIP3    H163235   1.679   2.010  11.174  0.5546  0.8927 -0.8241
13940TIP3    H263236   1.580   2.108  11.114 -0.8909 -0.1958 -0.2599
13941TIP3   OH263237   2.083   4.845   0.088 -0.1327  0.6276 -0.3078
13941TIP3    H163238   2.017   4.850   0.158  0.8707 -0.6347  0.7720
13941TIP3    H263239   2.167   4.854   0.134  0.5035  0.7817 -1.4797
13942TIP3   OH263240   3.769   5.517   2.498 -0.5948  0.3105 -0.1232
13942TIP3    H163241   3.747   5.580   2.566 -0.6214 -0.5293  0.6646
13942TIP3    H263242   3.864   5.506   2.505 -0.9166 -1.8023  1.6270
13943TIP3   OH263243   0.831   3.084  16.628  0.4502  0.9758  0.1820
13943TIP3    H163244   0.890   3.055  16.699 -0.3343 -1.1234  0.0180
13943TIP3    H263245   0.743   3.066  16.662  0.0604  0.3329 -1.1640
13944TIP3   OH263246   3.121   5.026   3.188 -0.0109  0.5533 -0.5146
13944TIP3    H163247   3.215   5.009   3.193  0.1568  1.1527 -1.6042
13944TIP3    H263248   3.085   4.950   3.142  0.3212  1.6257 -2.5817
13945TIP3   OH263249   3.465   5.148   1.275 -0.1917  0.1737 -0.2806
13945TIP3    H163250   3.390   5.089   1.284 -0.3950  0.2710 -1.3120
13945TIP3    H263251   3.535   5.104   1.322 -0.6200 -0.4066 -0.1784
13946TIP3   OH263252   0.833   2.604  10.742 -0.0020  0.1481 -0.2045
13946TIP3    H163253   0.746   2.573  10.715 -0.1255  0.4712 -0.1802
13946TIP3    H263254   0.870   2.531  10.792 -0.5121  0.2431  0.3138
13947TIP3   OH263255   1.156   4.035  13.143  0.2221  0.2848  0.9288
13947TIP3    H163256   1.075   4.009  13.099 -0.2100  0.0753  1.8274
13947TIP3    H263257   1.134   4.116  13.188  1.3000  1.7249 -1.0787
13948TIP3   OH263258   5.541   2.667  13.741 -0.0727 -0.4638 -0.4220
13948TIP3    H163259   5.474   2.642  13.805 -0.5828 -0.6908 -1.0447
13948TIP3    H263260   5.491   2.699  13.666  0.5406  1.0050 -0.2336
13949TIP3   OH263261   4.503   6.497   1.175 -0.1480  0.2442  0.0592
13949TIP3    H163262   4.535   6.524   1.261  1.0836 -0.8419 -0.0525
13949TIP3    H263263   4.518   6.574   1.119 -0.0487  0.6089  0.5823
13950TIP3   OH263264   5.283   4.678   4.768  0.1212 -0.1696 -0.1358
13950TIP3    H163265   5.224   4.608   4.742  0.0770 -0.2340  0.1441
13950TIP3    H263266   5.364   4.634   4.794  0.3818 -0.0710 -0.7426
13951TIP3   OH263267   1.949   5.134   1.986 -0.5917 -0.0596  0.1124
13951TIP3    H163268   1.947   5.228   2.008 -1.8270 -0.1555  0.4369
13951TIP3    H263269   1.906   5.091   2.060 -2.3962 -0.6332 -1.2382
13952TIP3   OH263270   4.821   4.188   2.647  0.4214  0.2013 -0.5255
13952TIP3    H163271   4.906   4.208   2.688 -0.2418  1.8705  0.0707
13952TIP3    H263272   4.767   4.157   2.720 -0.0404  0.9164 -0.5609
13953TIP3   OH263273   6.780   4.860  11.501 -0.0516 -0.1551  0.4360
13953TIP3    H163274   6.687   4.855  11.478  0.1651  0.3237 -0.5773
13953TIP3    H263275   6.813   4.771  11.487  0.0703  0.1240 -1.1123
13954TIP3   OH263276   4.107   0.041   3.405  0.1846 -0.6180  0.3846
13954TIP3    H163277   4.012   0.028   3.411  0.0885 -0.2836 -0.3286
13954TIP3    H263278   4.145  -0.033   3.451 -0.3867 -1.8518 -1.0967
13955TIP3   OH263279   5.506   2.449   2.430  0.2565  0.0778 -0.4493
13955TIP3    H163280   5.514   2.490   2.516 -0.9866  1.0399 -0.7887
13955TIP3    H263281   5.522   2.520   2.368 -3.1891  0.3898 -1.0554
13956TIP3   OH263282   0.687   2.744  13.347 -0.3427  0.1879 -0.2623
13956TIP3    H163283   0.779   2.770  13.342 -0.3906  0.2545 -0.8244
13956TIP3    H263284   0.669   2.702  13.263  0.1102 -2.9447  1.1248
13957TIP3   OH263285   0.120   5.551   5.988  1.1875  0.3627 -0.0912
13957TIP3    H163286   0.070   5.528   5.910 -1.6763  3.1759  0.8164
13957TIP3    H263287   0.205   5.580   5.954  1.3663 -2.1025 -1.8562
13958TIP3   OH263288   0.879   6.224  15.672  0.0399  0.0411 -0.0042
13958TIP3    H163289   0.919   6.147  15.630 -1.7866  0.0013 -1.7330
13958TIP3    H263290   0.908   6.298  15.618 -1.9573  0.0355 -1.1314
13959TIP3   OH263291   1.362   2.636  13.236  0.0859  0.1108 -0.2300
13959TIP3    H163292   1.380   2.595  13.152  0.6702 -1.3517  0.5893
13959TIP3    H263293   1.375   2.729  13.221 -0.6206 -0.0625 -1.9609
13960TIP3   OH263294   6.041   5.947   4.790  0.2108  0.1322 -0.4461
13960TIP3    H163295   6.026   5.908   4.704 -0.9552 -2.1322  0.7378
13960TIP3    H263296   6.128   5.916   4.816  1.8324  3.1718 -1.9923
13961TIP3   OH263297   5.309   4.233  16.475  0.3580  0.3717 -1.0671
13961TIP3    H163298   5.375   4.255  16.410  1.6479 -2.1032 -0.6548
13961TIP3    H263299   5.270   4.152  16.444 -0.2804  0.1207  0.3310
13962TIP3   OH263300   1.115   0.397  14.758  0.4167  0.5271 -0.4831
13962TIP3    H163301   1.155   0.470  14.804 -0.1844  0.9383 -0.6019
13962TIP3    H263302   1.164   0.320  14.787 -0.7752  0.5974  1.8318
13963TIP3   OH263303   3.743   3.805  15.753  0.3960  0.1857 -0.7501
13963TIP3    H163304   3.834   3.834  15.767  0.1989  0.7830 -0.6926
13963TIP3    H263305   3.705   3.801  15.841 -0.4259  2.5858 -0.9465
13964TIP3   OH263306   1.591   1.759   4.255 -0.1887  0.4934 -0.3692
13964TIP3    H163307   1.603   1.851   4.231  0.8284  0.5251  0.2103
13964TIP3    H263308   1.571   1.714   4.172 -0.6093  1.2164 -0.6612
13965TIP3   OH263309   4.580   6.471   2.351  0.1655  0.0092 -0.8808
13965TIP3    H163310   4.515   6.427   2.406 -0.0569 -0.4144 -1.4755
13965TIP3    H263311   4.563   6.564   2.363 -1.7134 -0.1203 -2.4086
13966TIP3   OH263312   0.582   4.203   3.123 -0.2908 -0.2040 -0.1642
13966TIP3    H163313   0.619   4.115   3.128  0.1380 -0.0733 -0.9353
13966TIP3    H263314   0.648   4.254   3.075  0.1883  0.9317  1.6782
13967TIP3   OH263315   0.943   0.518  14.567 -0.0734 -0.1592 -1.0465
13967TIP3    H163316   1.032   0.552  14.572 -0.5095  0.8497  0.0172
13967TIP3    H263317   0.952   0.424  14.585  0.6226  0.1680  0.3672
13968TIP3   OH263318   3.244   6.102  16.962  0.3797  0.6944 -0.3610
13968TIP3    H163319   3.333   6.102  16.998  0.2828 -1.3001 -0.0386
13968TIP3    H263320   3.222   6.194  16.953  2.2191  1.2219  0.2235
13969TIP3   OH263321   5.240   6.453   1.175  0.2106 -0.0176  0.0707
13969TIP3    H163322   5.185   6.530   1.158  1.6406  0.5445 -2.2856
13969TIP3    H263323   5.189   6.379   1.141 -0.9305 -0.0969  1.8499
13970TIP3   OH263324   4.533   2.579   3.732 -0.4225  0.7504 -0.8133
13970TIP3    H163325   4.538   2.642   3.660 -2.8795  4.1731  1.8416
13970TIP3    H263326   4.606   2.602   3.789  0.1290 -0.4687 -0.9982
13971TIP3   OH263327   0.635   0.209  12.205  0.4587 -0.0816  0.2421
13971TIP3    H163328   0.653   0.143  12.138  1.1938  0.2010  0.1591
13971TIP3    H263329   0.545   0.236  12.189  0.7994  0.3493 -0.9441
13972TIP3   OH263330   6.402   1.769   5.226 -0.1475 -0.0234  0.0368
13972TIP3    H163331   6.451   1.842   5.263 -0.5716  1.0395 -1.4642
13972TIP3    H263332   6.324   1.762   5.281  1.8509 -2.0408  2.7523
13973TIP3   OH263333   0.941   0.338  16.408 -0.1484  0.0460  0.2759
13973TIP3    H163334   0.994   0.346  16.487  0.8535 -0.7486 -0.3107
13973TIP3    H263335   0.988   0.389  16.342 -0.0477 -0.7417 -0.2693
13974TIP3   OH263336   5.479   5.710   0.148 -0.0277  0.6971 -0.0824
13974TIP3    H163337   5.433   5.701   0.232 -1.3767  2.0761 -0.6664
13974TIP3    H263338   5.430   5.654   0.088 -0.1850  1.1667 -0.3939
13975TIP3   OH263339   0.814   0.194   0.184  0.2954  0.1399  0.0473
13975TIP3    H163340   0.888   0.173   0.241  1.2216 -0.4161 -1.3158
13975TIP3    H263341   0.739   0.154   0.226  0.9372 -0.0832  0.9876
13976TIP3   OH263342   4.665   1.550   2.585 -0.4577  0.0224  0.0177
13976TIP3    H163343   4.671   1.639   2.622 -2.9987  0.8956 -1.5573
13976TIP3    H263344   4.571   1.533   2.580 -0.0146 -2.1030 -1.2911
13977TIP3   OH263345   5.038   0.065  17.140  0.0024  0.0986 -0.4671
13977TIP3    H163346   5.037   0.158  17.120  1.4018  0.1540 -0.3655
13977TIP3    H263347   5.097   0.027  17.074  0.6936 -0.4592  0.4528
13978TIP3   OH263348   0.968   0.877   2.798 -0.8922  0.5196 -0.3944
13978TIP3    H163349   0.928   0.792   2.818  0.7211  0.2452  1.8957
13978TIP3    H263350   1.059   0.855   2.774 -0.6307  1.5420 -0.3468
13979TIP3   OH263351   0.304   2.735  12.713 -0.2528 -0.2295  0.0991
13979TIP3    H163352   0.304   2.668  12.644 -1.2207  0.2029 -0.3298
13979TIP3    H263353   0.329   2.816  12.668 -0.1511 -0.0972  0.3984
13980TIP3   OH263354   0.215   3.779  16.739 -0.0896 -0.7616  0.0212
13980TIP3    H163355   0.237   3.815  16.825 -0.4051 -0.6401  0.0541
13980TIP3    H263356   0.134   3.823  16.715 -0.0624 -0.8806 -0.2879
13981TIP3   OH263357   1.566   0.293   5.182  0.2973 -0.2006  0.1429
13981TIP3    H163358   1.638   0.297   5.245  0.5913  1.9329 -0.2792
13981TIP3    H263359   1.492   0.330   5.229  0.3289  0.7050 -0.5087
13982TIP3   OH263360   3.473   3.388  12.546 -0.5285 -0.5296 -0.1244
13982TIP3    H163361   3.541   3.432  12.597 -0.4664 -0.2776 -0.4211
13982TIP3    H263362   3.416   3.347  12.612 -0.4197 -0.2513  0.1445
13983TIP3   OH263363   1.443   3.227   3.378 -0.4764 -0.9955 -0.3951
13983TIP3    H163364   1.405   3.291   3.318 -0.1009  0.1973  0.6260
13983TIP3    H263365   1.395   3.240   3.460  1.9072  0.3523  0.8372
13984TIP3   OH263366   5.266   5.061  14.630  0.2505 -0.1304  0.8223
13984TIP3    H163367   5.352   5.038  14.666 -0.4207 -0.7204  2.1060
13984TIP3    H263368   5.227   4.977  14.605  0.1684  0.1613 -0.0297
13985TIP3   OH263369   4.484   2.158  11.350  0.3829  0.5429 -0.2555
13985TIP3    H163370   4.399   2.203  11.353  0.6146  1.2516 -2.9399
13985TIP3    H263371   4.511   2.152  11.442 -1.9841  1.4260  0.5395
13986TIP3   OH263372   6.317   5.579   3.325  0.0019  0.0614 -0.7150
13986TIP3    H163373   6.299   5.529   3.405  0.0902 -0.1563 -0.8321
13986TIP3    H263374   6.277   5.664   3.341 -1.0182 -0.3720 -0.9203
13987TIP3   OH263375   3.742   6.769  13.038 -0.6148  0.3171 -0.7225
13987TIP3    H163376   3.763   6.816  12.958  1.5204  0.1127 -0.3345
13987TIP3    H263377   3.815   6.707  13.049 -1.3579 -0.3201  0.8551
13988TIP3   OH263378   3.853   2.833  11.568 -0.0413 -0.0617  0.5063
13988TIP3    H163379   3.881   2.845  11.477 -1.8395  1.7619  0.1493
13988TIP3    H263380   3.933   2.811  11.615  1.0430 -0.3012 -1.3863
13989TIP3   OH263381   0.164   4.002  16.274 -0.1605 -0.0789  0.7239
13989TIP3    H163382   0.208   3.922  16.302 -0.6552 -0.0957  1.4665
13989TIP3    H263383   0.079   4.000  16.318  0.1767  1.2995  1.4919
13990TIP3   OH263384   6.594   5.135  12.151 -0.8381  0.6405 -0.2406
13990TIP3    H163385   6.552   5.163  12.233 -1.7659  1.3546 -0.9510
13990TIP3    H263386   6.643   5.212  12.122  2.8450 -0.8113  1.7065
13991TIP3   OH263387   3.638   5.766   1.383 -0.0461  0.3656  0.1377
13991TIP3    H163388   3.584   5.842   1.403  1.5500  1.6868 -0.5065
13991TIP3    H263389   3.583   5.712   1.326 -0.9428  1.3427  0.0596
13992TIP3   OH263390   5.357   4.593   1.469  0.1509  0.0331  0.0084
13992TIP3    H163391   5.285   4.531   1.477  0.1165  0.1042  0.2571
13992TIP3    H263392   5.346   4.631   1.382  0.9838 -1.3109 -0.6981
13993TIP3   OH263393   3.987   3.887  15.821  0.5183  0.2506 -0.0911
13993TIP3    H163394   4.042   3.830  15.768 -0.3826  1.8163 -2.8186
13993TIP3    H263395   3.996   3.974  15.780  0.3075  1.6600  2.7225
13994TIP3   OH263396   3.745   3.710  16.052 -0.1200  0.6342 -0.3552
13994TIP3    H163397   3.760   3.721  16.145 -1.0419  0.3851 -0.1729
13994TIP3    H263398   3.707   3.623  16.043  0.0288  0.6269 -0.9669
13995TIP3   OH263399   0.251   0.601   5.414 -0.1933 -1.1347 -0.3219
13995TIP3    H163400   0.329   0.547   5.427  1.1495  0.7632 -0.3352
13995TIP3    H263401   0.272   0.656   5.339  0.0132  2.1064  2.0336
13996TIP3   OH263402   5.396   4.200   5.141 -0.0673  0.1148 -0.2205
13996TIP3    H163403   5.329   4.131   5.140  0.4012 -0.3598  0.6228
13996TIP3    H263404   5.424   4.207   5.049  0.4417 -1.3608 -0.1842
13997TIP3   OH263405   2.807   4.020   2.512 -0.3586  0.6677  0.6378
13997TIP3    H163406   2.801   3.931   2.549  1.8133 -0.2101 -0.9856
13997TIP3    H263407   2.739   4.022   2.445 -0.6015  0.3152  0.8684
13998TIP3   OH263408   3.641   2.390  13.085 -0.6247 -0.4212 -0.6494
13998TIP3    H163409   3.594   2.368  13.165 -0.4500 -0.0232 -0.4334
13998TIP3    H263410   3.663   2.306  13.045 -0.2720 -0.6291 -0.0200
13999TIP3   OH263411   1.566   0.983  12.426 -0.6483 -0.1056  0.2126
13999TIP3    H163412   1.643   0.941  12.387  0.2593 -1.0051  2.9004
13999TIP3    H263413   1.540   0.924  12.497 -1.9210  1.7817  1.3404
14000TIP3   OH263414   6.495   4.427  14.015  0.7856 -0.2470 -0.0049
14000TIP3    H163415   6.514   4.417  14.109  0.0889 -1.6292  0.0114
14000TIP3    H263416   6.424   4.491  14.012  1.3422  0.3919  0.3600
14001TIP3   OH263417   3.020   2.503  16.835  0.0588  0.0543 -0.0758
14001TIP3    H163418   3.044   2.594  16.850 -1.1374  0.4149 -0.3095
14001TIP3    H263419   2.976   2.503  16.750 -0.6925 -0.6031  0.3052
14002TIP3   OH263420   0.443   2.864  16.938  0.0816 -0.2392 -0.2350
14002TIP3    H163421   0.451   2.879  17.032  2.3369 -1.9935 -0.1043
14002TIP3    H263422   0.418   2.772  16.930  0.6325 -0.3059 -1.3524
14003TIP3   OH263423   4.693   3.348  11.864  0.2044 -0.2240 -0.3812
14003TIP3    H163424   4.749   3.392  11.801  1.1378 -0.0522  0.5492
14003TIP3    H263425   4.714   3.255  11.856  0.8142 -0.1356  0.1380
14004TIP3   OH263426   4.486   4.751   2.120  0.3211  0.3671  0.2423
14004TIP3    H163427   4.494   4.667   2.166  1.2093 -0.4480 -1.3612
14004TIP3    H263428   4.564   4.756   2.065  0.8365  2.7856  1.1412
14005TIP3   OH263429   5.569   4.186   1.535 -0.1679  0.0134  0.0994
14005TIP3    H163430   5.626   4.111   1.550  0.1838  0.1451 -0.5500
14005TIP3    H263431   5.574   4.201   1.440 -0.1308  0.9386  0.2436
14006TIP3   OH263432   5.332   2.070   0.507 -0.0793  0.0421  0.3143
14006TIP3    H163433   5.315   1.983   0.544  0.1612  0.0602  0.4733
14006TIP3    H263434   5.398   2.055   0.440 -1.8563 -0.2537 -1.3966
14007TIP3   OH263435   1.570   4.526  13.256 -0.3211  0.1932  0.3316
14007TIP3    H163436   1.665   4.531  13.244 -0.4547  1.6883 -0.1242
14007TIP3    H263437   1.556   4.554  13.346 -0.2992 -0.4687  0.5464
14008TIP3   OH263438   6.253   4.676   4.745 -0.0695  0.2942  0.3082
14008TIP3    H163439   6.197   4.689   4.668 -0.2053 -0.1389  0.3393
14008TIP3    H263440   6.225   4.744   4.806  1.3252  1.8853 -0.7643
14009TIP3   OH263441   2.056   6.221   6.520  0.3921  0.0845 -0.8824
14009TIP3    H163442   2.050   6.168   6.441  0.8155 -0.3131 -0.6503
14009TIP3    H263443   2.055   6.312   6.488 -2.8778  0.0324 -1.1234
14010TIP3   OH263444   5.318   6.596   1.994  0.6515 -0.3197 -0.2996
14010TIP3    H163445   5.327   6.523   2.055 -0.7217  0.3314  0.7182
14010TIP3    H263446   5.247   6.570   1.935 -1.9125  1.3929  1.9169
14011TIP3   OH263447   0.598   0.771   5.729 -0.1766 -0.0960 -0.0263
14011TIP3    H163448   0.566   0.856   5.757 -0.7232 -0.8166  1.5445
14011TIP3    H263449   0.691   0.771   5.751 -0.2442 -0.0255  0.2509
14012TIP3   OH263450   5.837   4.798  13.891 -0.0094 -0.5441 -0.7109
14012TIP3    H163451   5.843   4.851  13.811 -1.8248  2.3869  1.0203
14012TIP3    H263452   5.746   4.809  13.920  0.6216 -1.5810  1.7515
14013TIP3   OH263453   2.292   6.511   4.484 -0.3957  0.5232  0.0055
14013TIP3    H163454   2.312   6.603   4.497  1.3341 -0.1659  2.4352
14013TIP3    H263455   2.255   6.482   4.567  0.1222 -1.2472 -0.3644
14014TIP3   OH263456   3.554   4.919   4.913 -0.0688 -0.3433  0.3561
14014TIP3    H163457   3.594   4.848   4.964 -0.1116 -2.1397 -2.0125
14014TIP3    H263458   3.482   4.951   4.968  1.3111 -0.6465  2.3921
14015TIP3   OH263459   3.832   4.728   5.930 -0.1578  0.3180 -0.0763
14015TIP3    H163460   3.776   4.786   5.980 -1.1204 -0.1624 -0.5666
14015TIP3    H263461   3.885   4.786   5.875 -1.9370  0.6998 -1.4201
14016TIP3   OH263462   0.228   2.934  15.674 -0.4366 -0.1173 -0.0679
14016TIP3    H163463   0.207   2.934  15.581  1.4082 -0.4465 -0.5084
14016TIP3    H263464   0.144   2.918  15.718 -1.1512 -0.9963 -1.7126
14017TIP3   OH263465   4.222   0.828   0.854  0.3194 -0.3525  0.0984
14017TIP3    H163466   4.200   0.889   0.784  0.4465  0.4215  0.7366
14017TIP3    H263467   4.219   0.742   0.812  0.0854  0.0825 -0.7832
14018TIP3   OH263468   3.613   5.205   0.799  0.0600 -0.7691  0.4139
14018TIP3    H163469   3.518   5.218   0.803  0.0434 -0.7128 -0.0604
14018TIP3    H263470   3.645   5.230   0.885 -0.0671  1.7362 -0.2269
14019TIP3   OH263471   2.139   5.570  11.518 -0.5118  0.5558 -0.5077
14019TIP3    H163472   2.168   5.661  11.512 -0.6294  0.5197 -1.7094
14019TIP3    H263473   2.199   5.529  11.580 -0.8458  1.6048  0.5272
14020TIP3   OH263474   2.263   1.092   2.774  0.3116 -0.1977 -0.1986
14020TIP3    H163475   2.289   1.058   2.860 -0.7319 -1.3844 -0.3460
14020TIP3    H263476   2.216   1.173   2.794  0.9459  0.0595  0.2811
14021TIP3   OH263477   3.087   1.339   1.448 -0.4632 -0.3672 -0.3464
14021TIP3    H163478   3.173   1.378   1.432 -0.3820 -0.4755 -0.1852
14021TIP3    H263479   3.064   1.296   1.366 -0.5188 -0.0438 -0.4990
14022TIP3   OH263480   3.673   1.215  16.679 -0.3782 -0.3395  0.5933
14022TIP3    H163481   3.755   1.193  16.722 -0.5235 -1.6323  0.2246
14022TIP3    H263482   3.634   1.131  16.656 -0.8927  0.2856 -0.9378
14023TIP3   OH263483   4.597   0.683  10.805 -0.4535 -0.7048  0.0583
14023TIP3    H163484   4.557   0.609  10.851  1.2693 -0.2556  2.3618
14023TIP3    H263485   4.674   0.645  10.762  0.3908 -0.2728  1.1827
14024TIP3   OH263486   5.810   5.201   3.135 -0.2961 -0.1908  0.3259
14024TIP3    H163487   5.903   5.181   3.145  0.0429  1.9995  1.6739
14024TIP3    H263488   5.773   5.189   3.223 -0.7203  1.7242  0.4330
14025TIP3   OH263489   2.139   1.155  11.209  0.7115  0.7103 -0.1411
14025TIP3    H163490   2.054   1.136  11.249  0.9279  1.5286  0.7288
14025TIP3    H263491   2.130   1.245  11.176  0.4582 -0.0271 -2.1476
14026TIP3   OH263492   1.786   1.401   0.130 -0.2488  1.4404 -0.0791
14026TIP3    H163493   1.811   1.316   0.094  1.4736  3.1964 -3.2985
14026TIP3    H263494   1.866   1.453   0.126 -0.9690  2.9202  2.9460
14027TIP3   OH263495   5.819   4.451   1.440 -0.2713  0.0750 -0.3647
14027TIP3    H163496   5.819   4.426   1.532 -1.1654  1.2131 -0.0262
14027TIP3    H263497   5.857   4.377   1.393  0.5413 -0.3466  0.9639
14028TIP3   OH263498   2.161   3.425   1.153 -0.1208  0.2109 -0.4037
14028TIP3    H163499   2.237   3.371   1.176 -1.3261 -0.8776  1.0837
14028TIP3    H263500   2.105   3.367   1.101 -0.1909  0.8537 -1.0529
14029TIP3   OH263501   5.692   3.386  16.373  0.0940  0.4372  0.5464
14029TIP3    H163502   5.774   3.340  16.354  0.3233 -0.6486  3.8690
14029TIP3    H263503   5.625   3.331  16.333  0.7925  0.1097 -0.2080
14030TIP3   OH263504   6.006   5.808   5.184  0.6977  0.2782 -0.0157
14030TIP3    H163505   6.093   5.821   5.148  0.1577  0.7156 -1.1941
14030TIP3    H263506   6.000   5.868   5.257  1.1413  0.7452 -0.3632
14031TIP3   OH263507   3.593   3.455   6.113  0.2472  0.0730 -0.3460
14031TIP3    H163508   3.572   3.527   6.172 -0.7020 -0.9505  0.5659
14031TIP3    H263509   3.682   3.430   6.137  0.7945  1.2927 -1.0392
14032TIP3   OH263510   3.084   6.126   0.595  0.0198  0.1210 -0.5857
14032TIP3    H163511   3.123   6.128   0.508  3.3969  0.4242  0.8667
14032TIP3    H263512   3.097   6.036   0.625  0.7613  0.5504  0.4095
14033TIP3   OH263513   6.348   1.073  12.683 -0.4455 -0.1889 -0.3025
14033TIP3    H163514   6.430   1.038  12.648 -0.6160 -1.7127  0.7820
14033TIP3    H263515   6.356   1.168  12.674  2.0732 -0.2270  1.1838
14034TIP3   OH263516   2.881   1.356  14.040  0.1888  0.0443  0.2596
14034TIP3    H163517   2.880   1.274  14.088 -1.0424  0.5990  1.2018
14034TIP3    H263518   2.966   1.396  14.062  0.3918 -0.5370  0.5268
14035TIP3   OH263519   2.316   3.787  12.945  0.1101 -0.6546  0.1364
14035TIP3    H163520   2.288   3.695  12.941 -0.5010 -0.4903  0.4639
14035TIP3    H263521   2.305   3.811  13.037  1.0914 -0.4980  0.2184
14036TIP3   OH263522   3.816   2.305  12.232 -0.6868  0.4324 -0.1419
14036TIP3    H163523   3.776   2.378  12.279 -0.7309 -0.3315  1.0335
14036TIP3    H263524   3.822   2.335  12.142  0.5652  2.4376  0.5598
14037TIP3   OH263525   6.582   1.819  15.743 -0.0486 -0.1463 -0.0294
14037TIP3    H163526   6.674   1.797  15.762 -0.3422 -0.7019  0.7472
14037TIP3    H263527   6.573   1.910  15.772 -0.3810 -0.8508  2.1610
14038TIP3   OH263528   3.022   0.004  14.126 -0.1540 -0.3923  0.2999
14038TIP3    H163529   3.016  -0.030  14.216 -2.7504  0.4900  0.5018
14038TIP3    H263530   3.020   0.099  14.137  0.1632 -0.2801 -0.6510
14039TIP3   OH263531   1.250   1.305   4.279 -0.1500  0.3721  0.3255
14039TIP3    H163532   1.331   1.260   4.302  1.0272  1.5078 -1.4207
14039TIP3    H263533   1.204   1.244   4.221  1.3411  1.2499 -1.8672
14040TIP3   OH263534   4.332   1.680   4.447 -0.1017  0.3307 -0.2378
14040TIP3    H163535   4.338   1.678   4.352  1.6666  1.5831 -0.1805
14040TIP3    H263536   4.340   1.589   4.474  0.8344  0.1137 -1.2204
14041TIP3   OH263537   1.568   2.024   4.201  0.5646 -0.9073  0.3642
14041TIP3    H163538   1.626   2.096   4.227 -0.3277  0.5181 -1.4963
14041TIP3    H263539   1.491   2.034   4.256  0.2109 -0.0850 -0.2622
14042TIP3   OH263540   4.671   3.972  12.419  0.2500  0.0805  0.1200
14042TIP3    H163541   4.756   4.013  12.436  0.5350 -1.3917  2.3680
14042TIP3    H263542   4.607   4.035  12.454  0.5151  0.1839  0.4238
14043TIP3   OH263543   0.308   6.733  10.989 -0.3141  0.4294 -0.5367
14043TIP3    H163544   0.228   6.694  11.025 -0.5980  0.9728 -0.5683
14043TIP3    H263545   0.376   6.667  11.002 -0.4267  0.5903  0.9286
14044TIP3   OH263546   4.030   0.409  14.898 -0.5263  0.1874  0.1884
14044TIP3    H163547   4.052   0.469  14.969 -0.8334  0.3936  0.1093
14044TIP3    H263548   3.941   0.433  14.872 -0.0282  0.8273 -0.9896
14045TIP3   OH263549   3.882   1.179  12.232 -0.3147  0.4343 -0.2288
14045TIP3    H163550   3.872   1.255  12.289  0.7959 -0.6387  1.4788
14045TIP3    H263551   3.841   1.204  12.149 -1.4042  2.2747  0.8400
14046TIP3   OH263552   0.426   3.085  16.498 -0.3228 -0.1181  0.1336
14046TIP3    H163553   0.444   3.019  16.564  0.9000 -0.2360 -0.3106
14046TIP3    H263554   0.389   3.158  16.547  0.2390 -0.3428  0.9053
14047TIP3   OH263555   4.397   5.063   0.782  0.3206 -0.4700  0.3548
14047TIP3    H163556   4.471   5.113   0.817  1.2688 -1.4398 -0.2476
14047TIP3    H263557   4.418   5.049   0.690 -2.5762  2.8300 -0.9226
14048TIP3   OH263558   1.882   4.009   5.470 -0.4322 -0.2649  0.4214
14048TIP3    H163559   1.966   4.053   5.485 -0.9448  0.3044  1.6197
14048TIP3    H263560   1.855   4.038   5.383 -1.2136  2.5605  1.5703
14049TIP3   OH263561   6.735   1.698  13.437  0.2057  0.3178 -0.4335
14049TIP3    H163562   6.738   1.771  13.499  0.3400  0.2648 -0.3789
14049TIP3    H263563   6.681   1.731  13.365 -1.8947 -0.4282  0.7533
14050TIP3   OH263564   4.942   5.072  11.242  0.4691 -0.0199  0.1689
14050TIP3    H163565   4.956   5.140  11.177  0.6513  1.2965  1.5544
14050TIP3    H263566   4.899   5.001  11.194 -3.0628  2.4786 -0.5986
14051TIP3   OH263567   3.490   5.681   5.128  0.2763  0.1460 -0.5934
14051TIP3    H163568   3.570   5.661   5.176 -0.3329  0.9551  0.7951
14051TIP3    H263569   3.475   5.774   5.144 -0.3036  0.2796 -1.8225
14052TIP3   OH263570   5.862   6.342  15.238  0.6643 -0.2746 -0.4346
14052TIP3    H163571   5.857   6.416  15.298 -0.0438 -1.1264  0.5795
14052TIP3    H263572   5.869   6.381  15.151  2.0510  0.9712  0.2277
14053TIP3   OH263573   6.050   2.849   3.692  0.4151  0.4902 -0.7509
14053TIP3    H163574   5.968   2.879   3.729  0.1365 -1.0769 -0.0659
14053TIP3    H263575   6.024   2.790   3.621  0.8881 -2.0346  1.0968
14054TIP3   OH263576   3.632   1.197  12.556 -0.3022  0.3409 -0.3622
14054TIP3    H163577   3.658   1.105  12.565  0.0753  0.3819 -0.9928
14054TIP3    H263578   3.705   1.246  12.594 -0.2232  0.4029 -0.5969
14055TIP3   OH263579   6.350   3.426  15.816  0.3813  0.5997  0.1446
14055TIP3    H163580   6.291   3.415  15.741  0.0202  0.4227  0.4513
14055TIP3    H263581   6.363   3.520  15.822 -0.9886  0.7585  0.9228
14056TIP3   OH263582   2.818   5.199   4.367 -0.3115 -0.4815 -0.1909
14056TIP3    H163583   2.724   5.179   4.362 -0.0093 -1.6486 -1.1930
14056TIP3    H263584   2.861   5.114   4.373  0.7510  0.0036 -0.8189
14057TIP3   OH263585   4.776   2.301   4.502 -0.5306 -0.3914 -0.3161
14057TIP3    H163586   4.790   2.394   4.518 -0.6337 -0.7071  1.6375
14057TIP3    H263587   4.861   2.270   4.470  0.5214 -0.3108  2.3023
14058TIP3   OH263588   4.100   3.732  17.143 -1.1290  0.1241 -1.0166
14058TIP3    H163589   4.044   3.809  17.134  0.0092  0.6891 -3.5631
14058TIP3    H263590   4.094   3.687  17.059  0.1094 -1.2732 -0.3816
14059TIP3   OH263591   5.455   2.907   6.067 -0.1596  0.3646  0.1358
14059TIP3    H163592   5.520   2.918   5.998 -1.3477  0.9247 -0.9130
14059TIP3    H263593   5.502   2.929   6.147  0.6044  1.9959 -0.7348
14060TIP3   OH263594   2.507   4.133   0.589  0.4344 -0.9534  0.1522
14060TIP3    H163595   2.455   4.152   0.511  1.3210 -0.2414 -0.2823
14060TIP3    H263596   2.530   4.041   0.580  0.3145 -0.9407 -0.3128
14061TIP3   OH263597   6.663   2.719  11.580  0.2610 -0.1222  0.2301
14061TIP3    H163598   6.573   2.746  11.562 -0.7429 -3.8633 -0.8320
14061TIP3    H263599   6.665   2.626  11.558  4.0456 -0.4483  1.5641
14062TIP3   OH263600   1.744   5.907   3.839  0.4957  0.0003  0.2554
14062TIP3    H163601   1.654   5.875   3.827  0.9543 -1.5637  0.8437
14062TIP3    H263602   1.797   5.854   3.780  1.1444  0.3515  0.5123
14063TIP3   OH263603   2.601   0.892  16.172  0.0079 -0.3536 -0.4874
14063TIP3    H163604   2.671   0.834  16.140 -0.9265 -0.6031 -2.1669
14063TIP3    H263605   2.594   0.959  16.104 -1.4695 -0.4092 -0.4057
14064TIP3   OH263606   0.520   1.553   0.273 -0.3546  0.0517 -0.5991
14064TIP3    H163607   0.612   1.578   0.285 -0.2123 -0.8697  0.3998
14064TIP3    H263608   0.489   1.536   0.362 -1.5007  0.3634 -0.9348
14065TIP3   OH263609   3.956   4.704   1.769  0.4715  0.4040 -0.3130
14065TIP3    H163610   3.973   4.694   1.863 -1.6959 -0.1642  0.0590
14065TIP3    H263611   3.971   4.797   1.752 -0.0335  0.7061  0.8140
14066TIP3   OH263612   3.154   4.019   1.764  0.5938 -0.8884  0.3399
14066TIP3    H163613   3.068   4.000   1.801  0.5918 -0.1809  0.7033
14066TIP3    H263614   3.212   3.951   1.801  0.2038 -1.3379  0.1272
14067TIP3   OH263615   0.325   1.010  11.978 -0.4669 -0.0698  0.1482
14067TIP3    H163616   0.271   1.088  11.972 -2.0142 -1.2258 -1.4883
14067TIP3    H263617   0.263   0.939  11.997  0.5349 -1.2945 -0.9910
14068TIP3   OH263618   1.317   0.537  13.820 -0.2034  0.3055  0.5825
14068TIP3    H163619   1.276   0.481  13.886 -0.4203 -0.2611 -0.0157
14068TIP3    H263620   1.394   0.573  13.862 -0.7050  0.4759  1.3557
14069TIP3   OH263621   2.754   3.534  16.418 -0.8157 -0.5385 -0.0683
14069TIP3    H163622   2.741   3.565  16.508  0.8154  1.6620 -0.5506
14069TIP3    H263623   2.746   3.612  16.364 -3.5387 -2.1066 -2.0712
14070TIP3   OH263624   4.903   0.998  14.400 -0.1103 -0.2576  0.3039
14070TIP3    H163625   4.940   0.919  14.359 -0.0283 -0.8307  1.4536
14070TIP3    H263626   4.830   1.023  14.343  2.0457  0.9510 -2.0898
14071TIP3   OH263627   4.074   0.888  16.469  0.0225  0.6899  0.6649
14071TIP3    H163628   3.997   0.835  16.451 -1.1311  2.0630  1.4096
14071TIP3    H263629   4.121   0.841  16.538  0.4600 -0.7264 -0.5913
14072TIP3   OH263630   2.955   6.124  12.037 -0.2694 -0.1846  0.1125
14072TIP3    H163631   2.895   6.199  12.042 -0.6926 -0.5514  0.4487
14072TIP3    H263632   2.965   6.108  11.943  0.7736  1.0588 -0.0237
14073TIP3   OH263633   1.989   6.546   3.083  0.0716 -0.3470  0.0821
14073TIP3    H163634   2.038   6.553   3.001  0.0156  0.3937  0.1063
14073TIP3    H263635   1.913   6.491   3.061  0.0057 -0.0687 -0.3874
14074TIP3   OH263636   2.740   1.675  13.533  0.2165 -0.0903  0.1014
14074TIP3    H163637   2.676   1.621  13.578  0.3373  0.5021  0.9831
14074TIP3    H263638   2.727   1.654  13.440 -1.7808  0.5879  0.1916
14075TIP3   OH263639   3.043   2.820  17.030  0.1584  0.1202 -0.2016
14075TIP3    H163640   2.988   2.854  17.101  0.7426 -1.0746  0.8267
14075TIP3    H263641   3.048   2.893  16.968 -1.8998  0.5449  0.0743
14076TIP3   OH263642   1.752   1.144  17.231 -0.1177 -0.3081  0.0586
14076TIP3    H163643   1.701   1.065  17.248  0.6015 -0.8501 -0.2482
14076TIP3    H263644   1.842   1.113  17.222  0.5046  0.8276  2.1361
14077TIP3   OH263645   0.121   2.278   5.162 -0.3706  0.1881  0.2246
14077TIP3    H163646   0.198   2.329   5.136 -1.7728  0.9742 -2.5043
14077TIP3    H263647   0.063   2.343   5.204 -0.8262  0.2084 -0.4369
14078TIP3   OH263648   3.656   1.746  13.482  0.1279 -0.2795 -0.7866
14078TIP3    H163649   3.727   1.781  13.536 -0.0573 -0.6100 -0.3355
14078TIP3    H263650   3.682   1.769  13.392  0.1562  0.7592 -0.5200
14079TIP3   OH263651   0.917   4.504  11.524  0.6250 -0.8170  0.1709
14079TIP3    H163652   0.947   4.538  11.608 -0.3221  0.6725 -0.0845
14079TIP3    H263653   0.902   4.582  11.470  0.6487 -1.7347 -1.1845
14080TIP3   OH263654   5.169   2.112  10.689 -0.6065  0.1673 -0.4184
14080TIP3    H163655   5.139   2.203  10.688  0.6191  0.5726 -0.4267
14080TIP3    H263656   5.179   2.089  10.596 -0.2942  0.2267 -0.3991
14081TIP3   OH263657   0.531   3.142   3.297  0.5581 -0.4174 -0.3085
14081TIP3    H163658   0.472   3.162   3.370 -0.4297  0.0757 -1.2154
14081TIP3    H263659   0.597   3.084   3.334  0.9775  1.0989  1.3436
14082TIP3   OH263660   0.552   2.025  16.060  0.1914 -0.0871  0.2370
14082TIP3    H163661   0.469   2.051  16.022  0.0338  0.4523  0.9351
14082TIP3    H263662   0.576   2.098  16.118  1.3810 -0.0201 -0.3223
14083TIP3   OH263663   5.559   4.014   3.775  1.0010 -0.1484 -0.0227
14083TIP3    H163664   5.587   3.924   3.764  1.0900 -0.3499  1.7484
14083TIP3    H263665   5.557   4.028   3.870 -2.2476  0.6916 -0.1635
14084TIP3   OH263666   0.606   0.269  11.074  0.0520  0.1578  0.2325
14084TIP3    H163667   0.536   0.331  11.097  1.1181  1.7287 -0.7237
14084TIP3    H263668   0.567   0.216  11.005 -1.1012 -0.7121  1.5125
14085TIP3   OH263669   2.620   1.234   3.092 -0.1945  0.7658 -0.2264
14085TIP3    H163670   2.698   1.204   3.140 -1.1608 -0.3853  0.6461
14085TIP3    H263671   2.574   1.291   3.153 -0.5872  0.5938 -0.3581
14086TIP3   OH263672   1.524   4.808   0.723  0.0782  0.2597  0.7400
14086TIP3    H163673   1.493   4.720   0.700 -0.1868  0.6657 -0.5294
14086TIP3    H263674   1.494   4.822   0.813 -0.9883 -0.4500  0.5016
14087TIP3   OH263675   4.835   0.489   2.278 -0.1329 -0.0852 -0.5496
14087TIP3    H163676   4.925   0.523   2.285 -0.1050 -0.3882  0.5853
14087TIP3    H263677   4.828   0.459   2.187  0.1915  1.9885 -1.2898
14088TIP3   OH263678   3.814   4.863  14.008 -0.3543  0.0623 -0.0730
14088TIP3    H163679   3.869   4.870  13.930 -0.3626 -2.8355 -0.3900
14088TIP3    H263680   3.867   4.900  14.079  1.2211 -0.8688 -0.7396
14089TIP3   OH263681   1.223   0.717  11.070 -0.2041 -0.1471  0.1059
14089TIP3    H163682   1.150   0.686  11.016 -0.2361  1.2737 -0.7009
14089TIP3    H263683   1.275   0.771  11.011  1.1648 -0.6386  0.8506
14090TIP3   OH263684   4.598   1.388   3.746  0.3219 -0.4460  0.7176
14090TIP3    H163685   4.505   1.411   3.745  0.5503  0.5990  1.7610
14090TIP3    H263686   4.616   1.367   3.838  1.1322 -0.5497  0.5362
14091TIP3   OH263687   1.517   4.144  16.161 -0.0040 -0.7992 -0.3633
14091TIP3    H163688   1.549   4.225  16.120 -0.1102 -1.2371 -1.3201
14091TIP3    H263689   1.564   4.139  16.244  1.3278 -0.6738 -1.1042
14092TIP3   OH263690   3.351   6.302  17.234 -0.2553  0.4611  0.9952
14092TIP3    H163691   3.421   6.243  17.263  0.5745  1.3843  0.9338
14092TIP3    H263692   3.319   6.342  17.315 -2.4820 -1.8317  1.3020
14093TIP3   OH263693   5.082   0.902  11.857  0.2128  0.3862 -0.3390
14093TIP3    H163694   5.119   0.815  11.840  2.3686  1.4162 -1.0811
14093TIP3    H263695   5.064   0.938  11.771 -2.9080 -0.1954  0.0055
14094TIP3   OH263696   4.714   5.217   3.883 -0.8368 -0.0218  0.5649
14094TIP3    H163697   4.778   5.255   3.822 -2.4979  0.7930 -0.7103
14094TIP3    H263698   4.745   5.243   3.970  1.1933 -0.6343  0.0429
14095TIP3   OH263699   5.147   6.347   0.327  0.8014 -0.0168 -0.4236
14095TIP3    H163700   5.097   6.343   0.409 -1.2674 -2.1402 -1.7291
14095TIP3    H263701   5.238   6.331   0.355 -0.1542 -2.9545  1.2557
14096TIP3   OH263702   3.973   1.172  14.825 -0.0796  0.1718  0.3311
14096TIP3    H163703   4.063   1.204  14.836 -0.8352  1.9834  1.3892
14096TIP3    H263704   3.923   1.217  14.892 -1.9174 -0.3578 -0.6447
14097TIP3   OH263705   4.416   1.624  17.035  0.3775 -0.7611  0.1624
14097TIP3    H163706   4.425   1.557  17.103  0.7292  0.5757  1.4813
14097TIP3    H263707   4.432   1.706  17.082 -0.2128  0.2468 -1.3854
14098TIP3   OH263708   4.783   6.127   5.355 -0.0383 -0.6371  0.1959
14098TIP3    H163709   4.774   6.158   5.445 -2.0760  1.5027 -0.7022
14098TIP3    H263710   4.787   6.207   5.302  0.5999 -1.8689 -1.6703
14099TIP3   OH263711   2.813   3.714   2.650  0.7594 -0.7430  0.1165
14099TIP3    H163712   2.775   3.701   2.737  1.1874 -1.8581  0.1439
14099TIP3    H263713   2.739   3.708   2.590  0.2759  1.2489  0.4922
14100TIP3   OH263714   0.937   0.753   3.552  0.1084 -0.0030  0.6095
14100TIP3    H163715   0.866   0.743   3.615  1.2090  0.6191  1.9520
14100TIP3    H263716   0.903   0.814   3.486 -1.0070 -0.5914  0.6319
14101TIP3   OH263717   6.093   6.616  16.939 -0.1335 -0.5256  0.1145
14101TIP3    H163718   6.121   6.553  16.872 -0.9772 -0.0207 -0.7323
14101TIP3    H263719   6.032   6.567  16.994  1.8543 -1.4281  1.5425
14102TIP3   OH263720   3.849   0.150  16.833  0.2234  0.4577  0.2786
14102TIP3    H163721   3.791   0.134  16.759 -0.3297 -3.8004  1.4858
14102TIP3    H263722   3.936   0.127  16.801  0.1491 -0.2738  0.5915
14103TIP3   OH263723   6.625   5.922  11.282 -0.0768 -0.5481 -0.3445
14103TIP3    H163724   6.612   5.831  11.255 -0.7044 -0.4560 -0.3612
14103TIP3    H263725   6.579   5.929  11.366 -1.9624  0.3278 -1.4178
14104TIP3   OH263726   3.519   2.634   1.344  0.3241  0.4259  0.3477
14104TIP3    H163727   3.471   2.660   1.266 -0.3422 -0.6909  0.3622
14104TIP3    H263728   3.587   2.700   1.354 -0.4375  1.3364 -0.3918
14105TIP3   OH263729   6.144   4.954  16.256 -0.5280 -0.3990  0.4156
14105TIP3    H163730   6.165   5.023  16.319 -0.0306 -0.5074  0.3729
14105TIP3    H263731   6.066   4.985  16.210  0.3729  0.6913 -0.4254
14106TIP3   OH263732   6.373   5.283   1.753 -0.5590  0.0293 -0.2136
14106TIP3    H163733   6.392   5.195   1.719  0.9757  0.0813  0.4601
14106TIP3    H263734   6.278   5.285   1.764 -0.6694 -1.3201 -0.8604
14107TIP3   OH263735   0.930   0.784  15.337  0.0612  0.0187  0.9481
14107TIP3    H163736   0.916   0.878  15.323 -0.1223  0.0824  1.5563
14107TIP3    H263737   0.986   0.779  15.415 -0.6300 -0.4077  1.4196
14108TIP3   OH263738   2.884   0.410  13.065 -1.0307 -0.2787  0.1000
14108TIP3    H163739   2.927   0.493  13.085  0.6761 -0.8196 -1.1921
14108TIP3    H263740   2.810   0.406  13.126 -0.7943  1.9027  0.5737
14109TIP3   OH263741   3.416   0.867   2.583 -0.5853 -0.0447 -0.3075
14109TIP3    H163742   3.507   0.861   2.612 -0.7148 -0.8985 -0.0492
14109TIP3    H263743   3.418   0.850   2.489 -0.3461  1.1126 -0.5127
14110TIP3   OH263744   1.663   5.733  12.512 -0.5276 -0.1029  1.0052
14110TIP3    H163745   1.607   5.809  12.500 -0.2176 -0.5041 -3.9385
14110TIP3    H263746   1.752   5.768  12.513 -0.2084 -0.4992 -4.0277
14111TIP3   OH263747   3.607   6.409   6.268 -0.4924 -0.0304 -0.1978
14111TIP3    H163748   3.569   6.486   6.311 -0.8331 -0.7148  0.7498
14111TIP3    H263749   3.701   6.420   6.276 -0.5564 -1.6517  3.5039
14112TIP3   OH263750   6.223   1.711   1.519 -0.1865 -0.4303  0.0541
14112TIP3    H163751   6.128   1.726   1.523  0.2312  2.8316 -0.9626
14112TIP3    H263752   6.242   1.707   1.426  0.7074 -0.9603  0.2602
14113TIP3   OH263753   0.838   6.696  16.253 -0.6202  0.3402 -0.4944
14113TIP3    H163754   0.896   6.743  16.313 -0.5410 -0.3159 -0.0536
14113TIP3    H263755   0.889   6.686  16.173 -0.2748  0.1513 -0.2561
14114TIP3   OH263756   3.449   3.395  15.719 -0.7979  0.1105  0.4576
14114TIP3    H163757   3.377   3.397  15.656  0.4455 -2.4435 -1.1438
14114TIP3    H263758   3.525   3.425  15.669 -0.3031  0.6035  1.4995
14115TIP3   OH263759   2.385   3.540  15.130 -0.1392  0.0670  0.3960
14115TIP3    H163760   2.471   3.583  15.127 -0.6054  0.9715 -0.0895
14115TIP3    H263761   2.396   3.469  15.194  1.0755 -0.0570  0.0684
14116TIP3   OH263762   5.362   0.066   1.139 -0.0540  0.4551 -0.1402
14116TIP3    H163763   5.412   0.005   1.084 -1.7116 -0.5139 -0.5827
14116TIP3    H263764   5.409   0.065   1.223  1.8561  1.1129 -1.1557
14117TIP3   OH263765   4.182   6.621  13.607 -0.3396 -0.6011  0.2218
14117TIP3    H163766   4.215   6.569  13.534 -1.0679 -1.1812  0.2971
14117TIP3    H263767   4.261   6.651  13.652  0.1043 -0.5387 -0.5873
14118TIP3   OH263768   3.448   5.756  15.949 -0.1398  0.0242 -0.3801
14118TIP3    H163769   3.375   5.695  15.956 -1.1348  1.1529 -0.8766
14118TIP3    H263770   3.524   5.700  15.931 -1.2261 -0.9888 -1.9719
14119TIP3   OH263771   2.950   1.672   4.142 -0.5792 -0.2352  0.8491
14119TIP3    H163772   3.006   1.742   4.176  0.2659 -1.1276  1.3225
14119TIP3    H263773   2.866   1.686   4.184  0.1365 -0.6581  2.4533
14120TIP3   OH263774   6.458   0.565  15.470  0.4521 -0.0566  0.1982
14120TIP3    H163775   6.531   0.534  15.523  2.2539  3.0569 -0.3248
14120TIP3    H263776   6.499   0.616  15.400 -2.1126 -0.3974 -1.6287
14121TIP3   OH263777   2.164   2.647  12.703 -0.3818 -0.3209  0.5699
14121TIP3    H163778   2.078   2.613  12.677 -0.0751 -1.0089  0.4674
14121TIP3    H263779   2.157   2.658  12.798 -0.7140  0.0085  0.5121
14122TIP3   OH263780   6.502   3.863  12.134 -0.4187  0.4989 -0.5292
14122TIP3    H163781   6.533   3.947  12.099  0.9307 -0.8780 -2.8278
14122TIP3    H263782   6.409   3.861  12.115  0.0773  0.2858 -3.1568
14123TIP3   OH263783   4.110   0.548   4.234 -0.4937 -0.2911  0.2815
14123TIP3    H163784   4.100   0.577   4.325 -0.2160  0.6684  0.0137
14123TIP3    H263785   4.166   0.471   4.240  0.1794  0.2282  0.8577
14124TIP3   OH263786   1.307   6.271   4.727 -0.0766  0.4889  0.4836
14124TIP3    H163787   1.247   6.201   4.752 -0.1879  0.2880 -0.3063
14124TIP3    H263788   1.393   6.228   4.722 -0.3260  0.1121 -1.1524
14125TIP3   OH263789   3.892   0.830  14.260  0.3506 -0.2599 -0.5794
14125TIP3    H163790   3.939   0.789  14.333  1.5554 -1.0794 -1.7742
14125TIP3    H263791   3.889   0.762  14.193 -0.7400  0.4807 -1.2919
14126TIP3   OH263792   3.816   6.317  13.727  0.1347  0.3038  0.5132
14126TIP3    H163793   3.730   6.327  13.687 -0.2748 -3.8346  0.1519
14126TIP3    H263794   3.877   6.341  13.656 -0.6753  0.2096 -0.2282
14127TIP3   OH263795   2.950   5.453  15.516  0.5051  0.3881 -0.3199
14127TIP3    H163796   2.879   5.466  15.453  1.6431  0.6043 -1.5851
14127TIP3    H263797   2.961   5.358  15.521 -1.3551  0.2428  1.5935
14128TIP3   OH263798   5.139   6.460   2.707  0.1096 -0.6737  0.1324
14128TIP3    H163799   5.076   6.420   2.646 -0.2413 -1.5944  1.0841
14128TIP3    H263800   5.085   6.499   2.775  0.3890  2.4952 -1.3598
14129TIP3   OH263801   4.105   0.720  14.456 -0.3351 -0.0688  0.1070
14129TIP3    H163802   4.186   0.706  14.506 -0.6411  1.0747  0.9230
14129TIP3    H263803   4.036   0.718  14.522 -1.1172 -2.1991 -0.7200
14130TIP3   OH263804   3.552   6.130   0.635 -0.5956  0.4414  0.0772
14130TIP3    H163805   3.488   6.120   0.564 -0.6800  1.3332  0.0214
14130TIP3    H263806   3.621   6.066   0.615 -1.6149 -0.7713  0.3171
14131TIP3   OH263807   0.382   4.240  16.430 -0.2543  0.5129 -0.0080
14131TIP3    H163808   0.435   4.183  16.374  0.6319  1.0269  0.2908
14131TIP3    H263809   0.312   4.271  16.373  0.2074  0.4279 -0.6288
14132TIP3   OH263810   1.083   6.573  10.958  0.2043  0.4128 -0.0966
14132TIP3    H163811   1.153   6.638  10.957  1.8033 -1.2561  0.0538
14132TIP3    H263812   1.059   6.565  11.051  1.9282 -1.1659  0.2510
14133TIP3   OH263813   5.376   2.999   3.760  0.0948  0.2128  0.1942
14133TIP3    H163814   5.397   3.092   3.767  0.2737  0.2442 -0.6425
14133TIP3    H263815   5.439   2.965   3.696 -0.4292 -0.3278 -0.0394
14134TIP3   OH263816   3.731   0.230  14.533 -0.3165  0.0463 -0.8526
14134TIP3    H163817   3.805   0.263  14.481  0.5669 -0.5103  0.0155
14134TIP3    H263818   3.753   0.138  14.548 -1.3646 -0.2034 -0.8778
14135TIP3   OH263819   0.663   4.073  17.103  0.2630 -0.4605  0.2806
14135TIP3    H163820   0.632   4.086  17.013  2.4091 -0.9313 -0.5494
14135TIP3    H263821   0.584   4.085  17.157 -0.7878  1.1860 -1.5405
14136TIP3   OH263822   3.671   3.670   0.395 -0.7415 -0.2165 -0.4923
14136TIP3    H163823   3.763   3.648   0.380 -0.4739 -0.3007  1.1448
14136TIP3    H263824   3.635   3.685   0.308  0.3944 -1.8749 -1.2766
14137TIP3   OH263825   5.112   0.059  15.031 -0.3147  0.1938  0.3460
14137TIP3    H163826   5.077  -0.013  15.083  1.9784 -0.6625  0.7500
14137TIP3    H263827   5.196   0.080  15.072 -0.7496  2.8310 -0.0198
14138TIP3   OH263828   6.763   5.824  11.709 -0.3024 -0.6393 -0.9237
14138TIP3    H163829   6.718   5.900  11.673  1.7151  2.2418  2.3198
14138TIP3    H263830   6.853   5.854  11.721  0.9550 -4.1240 -1.0763
14139TIP3   OH263831   3.175   4.579  14.225 -0.6667 -0.6031 -0.1638
14139TIP3    H163832   3.257   4.532  14.212 -0.5308 -0.9692  1.8339
14139TIP3    H263833   3.159   4.623  14.142  0.6327 -1.9560 -1.1561
14140TIP3   OH263834   6.115   1.076  14.980 -0.6261 -0.0559  0.4263
14140TIP3    H163835   6.161   1.159  14.970  0.4848 -0.7472 -0.2737
14140TIP3    H263836   6.162   1.030  15.049 -1.0994 -0.1982  0.6529
14141TIP3   OH263837   5.671   4.361   4.302 -0.0720  0.4273 -0.0581
14141TIP3    H163838   5.703   4.335   4.216  0.7692  0.0468  0.3607
14141TIP3    H263839   5.577   4.375   4.290  0.3626  2.4183 -1.5174
14142TIP3   OH263840   4.681   2.053  15.981  0.0824  0.4658  0.0525
14142TIP3    H163841   4.641   1.973  16.016 -1.8143  1.3686  0.0476
14142TIP3    H263842   4.621   2.081  15.911  2.6352 -0.0783 -2.4284
14143TIP3   OH263843   2.697   2.484   2.673  0.3371  0.1789 -0.2765
14143TIP3    H163844   2.777   2.518   2.713  0.9819 -0.2617 -1.1636
14143TIP3    H263845   2.729   2.424   2.605 -0.7622 -1.4392  0.6026
14144TIP3   OH263846   4.634   5.441  15.044  0.3657  0.4598  0.3811
14144TIP3    H163847   4.561   5.386  15.019 -1.3186  1.8860  1.9903
14144TIP3    H263848   4.645   5.425  15.138 -0.3834  3.0548  0.9561
14145TIP3   OH263849   5.591   0.125  14.299 -0.1664 -0.5416  0.5940
14145TIP3    H163850   5.687   0.125  14.288 -0.3717  1.4061 -1.6775
14145TIP3    H263851   5.574   0.197  14.360 -0.2709  0.1710 -0.2608
14146TIP3   OH263852   3.595   1.293  15.576  0.1225 -0.2899  0.1067
14146TIP3    H163853   3.564   1.282  15.666 -1.4556 -1.2503 -0.5309
14146TIP3    H263854   3.615   1.203  15.547 -0.6734 -0.1335 -0.9483
14147TIP3   OH263855   1.581   5.257   4.135 -0.0540 -0.2528  0.1145
14147TIP3    H163856   1.532   5.237   4.214  0.3064 -1.1313  0.1219
14147TIP3    H263857   1.514   5.259   4.066 -0.3525  0.4076  0.4249
14148TIP3   OH263858   4.527   1.726  16.807  0.2338 -0.3988 -0.1081
14148TIP3    H163859   4.474   1.671  16.864  1.5898 -1.0292  0.5701
14148TIP3    H263860   4.613   1.729  16.850  0.5881  1.0450 -0.8963
14149TIP3   OH263861   4.083   3.732  10.244 -0.0627 -0.5895 -0.0739
14149TIP3    H163862   4.074   3.827  10.236  0.0949 -0.5487  0.2343
14149TIP3    H263863   4.095   3.716  10.337 -3.1107 -1.1668  0.2823
14150TIP3   OH263864   2.954   3.113  12.147 -0.3456 -0.1348 -0.5705
14150TIP3    H163865   2.984   3.130  12.058 -0.4604 -1.5962 -0.9039
14150TIP3    H263866   2.969   3.195  12.194  0.2068  0.4778 -1.8005
14151TIP3   OH263867   5.588   4.549  12.437  0.1786  0.4606 -0.1904
14151TIP3    H163868   5.622   4.496  12.509  1.5462  1.7775  0.1405
14151TIP3    H263869   5.620   4.637  12.455 -1.4737  1.2703 -1.1325
14152TIP3   OH263870   3.747   2.427  15.787 -0.4474  0.0682 -0.3223
14152TIP3    H163871   3.776   2.513  15.818  0.7681 -0.8427  1.2029
14152TIP3    H263872   3.829   2.381  15.767 -1.0674 -0.8636 -0.7260
14153TIP3   OH263873   4.502   6.330  13.646  0.9743  0.3174 -0.7389
14153TIP3    H163874   4.576   6.272  13.627  1.4649  0.4983  0.5795
14153TIP3    H263875   4.540   6.418  13.644  0.7012  0.4402 -0.5170
14154TIP3   OH263876   2.537   2.982  15.715 -0.3845 -0.0125  0.4159
14154TIP3    H163877   2.448   2.995  15.682  0.5051  0.2434 -1.9368
14154TIP3    H263878   2.575   3.070  15.716  0.4387 -0.3497 -0.3769
14155TIP3   OH263879   3.332   5.239   2.274  0.2977  0.4485  0.6301
14155TIP3    H163880   3.409   5.251   2.329  2.2820 -0.2038 -1.9321
14155TIP3    H263881   3.311   5.327   2.243  0.1233  0.6027  1.1866
14156TIP3   OH263882   3.619   2.929  15.925 -0.4550 -0.0962 -0.0403
14156TIP3    H163883   3.534   2.954  15.960 -1.1481  0.2151 -1.8600
14156TIP3    H263884   3.619   2.964  15.836  1.8968  0.6014  0.1889
14157TIP3   OH263885   4.795   1.815  13.323 -0.4506 -0.4559 -0.1901
14157TIP3    H163886   4.820   1.904  13.347 -0.6158 -0.0190 -1.5645
14157TIP3    H263887   4.724   1.827  13.260 -1.3404 -1.5944  0.5946
14158TIP3   OH263888   5.749   0.769   6.065  0.4244 -0.1688 -0.3067
14158TIP3    H163889   5.731   0.679   6.091 -1.0772  0.0132 -0.6329
14158TIP3    H263890   5.699   0.781   5.984  3.2624 -0.0584 -2.0971
14159TIP3   OH263891   0.813   2.824  12.433 -0.1749 -0.4200 -0.7476
14159TIP3    H163892   0.725   2.789  12.449 -0.0478 -0.5767 -0.3904
14159TIP3    H263893   0.810   2.913  12.470  0.5328 -1.2579  1.4309
14160TIP3   OH263894   6.156   4.011  13.127 -0.4153 -0.2994  0.3411
14160TIP3    H163895   6.074   4.058  13.112 -0.0877  0.0797 -0.3049
14160TIP3    H263896   6.210   4.073  13.175 -0.6608 -0.7095  1.1554
14161TIP3   OH263897   2.973   4.843   4.658 -0.0062  0.1437  0.2561
14161TIP3    H163898   2.924   4.893   4.723  2.7608  2.8496  0.3851
14161TIP3    H263899   2.979   4.755   4.695 -1.0649  0.8693  2.2374
14162TIP3   OH263900   4.519   2.564   3.409  0.0408  0.2502 -0.0270
14162TIP3    H163901   4.461   2.577   3.334  0.0971  0.0081 -0.1121
14162TIP3    H263902   4.588   2.506   3.377  1.1992  1.7868 -0.3766
14163TIP3   OH263903   4.982   5.495   3.403  0.2139 -0.1048 -0.4936
14163TIP3    H163904   4.971   5.586   3.374 -1.9754  0.2971  1.4951
14163TIP3    H263905   5.051   5.500   3.470  0.3648  0.0212 -0.6571
14164TIP3   OH263906   3.988   3.991  17.056  0.2234 -0.0819 -0.2007
14164TIP3    H163907   4.032   3.944  16.985  0.0048 -0.9843  0.2483
14164TIP3    H263908   4.054   4.000  17.125 -0.1101 -0.9225  0.2423
14165TIP3   OH263909   2.058   2.474   3.398 -0.2537  0.0063  0.1189
14165TIP3    H163910   1.992   2.409   3.419 -0.6714  0.0946 -0.8898
14165TIP3    H263911   2.062   2.530   3.475 -0.1105 -1.0275  0.8673
14166TIP3   OH263912   4.443   1.478  15.846 -0.7447 -0.5068 -0.2228
14166TIP3    H163913   4.429   1.475  15.751 -0.2192 -1.0009 -0.2913
14166TIP3    H263914   4.538   1.472  15.856 -0.7057  0.9300  0.2898
14167TIP3   OH263915   5.025   4.432  15.839 -0.0549  0.0224  0.3074
14167TIP3    H163916   5.112   4.454  15.804 -0.6001  1.5766 -0.0749
14167TIP3    H263917   4.986   4.377  15.771  0.6780 -0.8053  0.5439
14168TIP3   OH263918   3.679   3.667  15.136  0.2453 -0.1188 -0.0090
14168TIP3    H163919   3.759   3.650  15.185  0.5411  0.0484 -0.4232
14168TIP3    H263920   3.613   3.613  15.177  0.5677 -0.2370  0.3551
14169TIP3   OH263921   4.301   3.766  15.159 -0.5805  0.4525 -0.2620
14169TIP3    H163922   4.233   3.820  15.118  1.4204  3.1491 -0.2026
14169TIP3    H263923   4.264   3.741  15.244 -2.6873 -0.7615 -1.4945
14170TIP3   OH263924   5.322   5.242  14.081  0.5182 -0.0425 -0.9287
14170TIP3    H163925   5.267   5.168  14.110  0.0721  1.3479  1.9759
14170TIP3    H263926   5.259   5.308  14.053  0.7032  1.0371  1.1096
14171TIP3   OH263927   6.487   6.505   2.974 -0.6494 -0.2202 -0.5967
14171TIP3    H163928   6.513   6.595   2.955  0.6843 -0.8948 -2.0811
14171TIP3    H263929   6.529   6.486   3.058  0.2963  0.0669 -0.9988
14172TIP3   OH263930   5.116   6.464  16.436 -0.3212 -0.0647 -0.0051
14172TIP3    H163931   5.197   6.458  16.386  0.9034  0.8456  1.7904
14172TIP3    H263932   5.133   6.410  16.514 -0.6798  1.7027  1.3272
14173TIP3   OH263933   4.876   4.777  12.631 -0.8184  0.3528  0.2362
14173TIP3    H163934   4.952   4.720  12.618 -0.9948  0.0272  0.6445
14173TIP3    H263935   4.906   4.864  12.604 -0.2863  0.2331  0.4474
14174TIP3   OH263936   0.593   0.965   4.129  0.2205 -0.3242 -0.2754
14174TIP3    H163937   0.585   0.952   4.223  2.2709  0.0965 -0.0027
14174TIP3    H263938   0.618   0.879   4.095 -1.3284 -0.6737 -0.5620
14175TIP3   OH263939   5.608   4.888   2.687 -0.0541 -0.3089  0.1414
14175TIP3    H163940   5.586   4.914   2.597  0.0182 -0.9789 -0.0679
14175TIP3    H263941   5.647   4.967   2.725 -0.9953  0.2907 -0.0988
14176TIP3   OH263942   5.873   1.033   1.588 -0.5423 -0.0655  0.1997
14176TIP3    H163943   5.813   1.030   1.663 -0.9395  0.5408 -0.0909
14176TIP3    H263944   5.817   1.059   1.515 -0.2902 -1.2793 -0.4392
14177TIP3   OH263945   1.946   6.191  13.438 -0.1369 -0.4455 -0.7152
14177TIP3    H163946   1.907   6.224  13.518  2.3390  0.6436  0.0838
14177TIP3    H263947   1.989   6.109  13.463  0.5254 -0.1763 -0.9646
14178TIP3   OH263948   3.609   5.714   3.388  0.5113  0.0071  0.3324
14178TIP3    H163949   3.552   5.728   3.312  0.2984 -0.5975  0.3766
14178TIP3    H263950   3.689   5.677   3.351  0.3239 -0.4934  0.4229
14179TIP3   OH263951   1.529   4.452  16.110  0.4181  0.6575  0.7869
14179TIP3    H163952   1.616   4.471  16.146  0.1616  0.2174  1.6572
14179TIP3    H263953   1.523   4.508  16.033  1.2039  1.2097  1.1094
14180TIP3   OH263954   5.254   0.706   0.187 -0.0197  1.0684  0.1049
14180TIP3    H163955   5.282   0.687   0.277 -0.7516 -0.4076  0.0338
14180TIP3    H263956   5.159   0.717   0.193 -0.2320 -0.1700 -0.6451
14181TIP3   OH263957   4.406   5.563  13.815  0.1146  0.8087  0.0273
14181TIP3    H163958   4.414   5.648  13.771  0.1658  0.3354 -0.9021
14181TIP3    H263959   4.388   5.502  13.744 -2.4217  0.4198  0.9682
14182TIP3   OH263960   6.780   5.170   1.437 -0.3372  0.6721 -0.2640
14182TIP3    H163961   6.856   5.209   1.394 -0.7168 -0.3482 -1.8716
14182TIP3    H263962   6.810   5.084   1.466 -0.3837  0.9488  0.6331
14183TIP3   OH263963   4.925   4.675  15.291  0.6829  0.5249 -0.4228
14183TIP3    H163964   4.838   4.714  15.299 -0.2745 -0.8824 -3.2085
14183TIP3    H263965   4.923   4.600  15.350 -0.0817  0.3938 -0.6069
14184TIP3   OH263966   4.081   4.661   2.002  0.3119  0.2352  0.5852
14184TIP3    H163967   4.142   4.597   1.966  0.5843  0.5047  0.5601
14184TIP3    H263968   4.085   4.647   2.097  0.4960  0.3231  0.5915
14185TIP3   OH263969   3.274   5.542   2.505  0.3740  0.1513  0.7706
14185TIP3    H163970   3.312   5.470   2.556  0.4227 -0.7358 -0.4779
14185TIP3    H263971   3.205   5.500   2.453  0.8030  0.8795 -0.4131
14186TIP3   OH263972   1.691   3.401  13.673 -0.2381 -0.8577  0.3078
14186TIP3    H163973   1.709   3.383  13.581 -1.1330  0.7861 -0.2239
14186TIP3    H263974   1.740   3.481  13.691 -0.8760 -0.6131  0.9667
14187TIP3   OH263975   1.689   5.057   5.417 -0.0687  0.2016  0.4136
14187TIP3    H163976   1.704   5.138   5.465  0.3116 -1.1170  2.5673
14187TIP3    H263977   1.603   5.027   5.447  0.0079 -0.4581 -0.0182
14188TIP3   OH263978   1.777   4.476   5.691 -0.2463 -0.1707  0.0489
14188TIP3    H163979   1.804   4.540   5.757 -0.1448 -1.0206  0.8394
14188TIP3    H263980   1.850   4.473   5.630 -1.2338  2.1900 -1.2921
14189TIP3   OH263981   0.339   6.463   1.630  0.1380  0.3051  0.6560
14189TIP3    H163982   0.375   6.464   1.718 -1.6616 -0.0459  1.4229
14189TIP3    H263983   0.390   6.527   1.581  3.5429 -2.0527  0.9740
14190TIP3   OH263984   5.627   3.868   1.390  0.6167  0.7445 -0.3180
14190TIP3    H163985   5.661   3.917   1.465  2.1440 -1.9760  0.8180
14190TIP3    H263986   5.692   3.880   1.322  0.1170  1.7014 -0.6493
14191TIP3   OH263987   5.085   4.203   2.726  0.0529  0.3312 -0.5367
14191TIP3    H163988   5.109   4.295   2.733  1.2326  0.0786 -1.0735
14191TIP3    H263989   5.163   4.161   2.689 -0.2104 -0.9868  0.3696
14192TIP3   OH263990   4.116   1.560   6.530 -0.5498 -0.3502 -0.3568
14192TIP3    H163991   4.050   1.514   6.477  0.2157 -1.2914 -0.5083
14192TIP3    H263992   4.124   1.506   6.609 -0.2548 -0.0248 -0.1656
14193TIP3   OH263993   5.925   0.471   0.958 -0.5741  0.2625  0.0451
14193TIP3    H163994   5.843   0.428   0.936 -2.8775  3.7800  1.3679
14193TIP3    H263995   5.913   0.562   0.931  2.6383  0.9940  0.8703
14194TIP3   OH263996   2.792   4.255   2.649  0.0940  0.9106 -0.6196
14194TIP3    H163997   2.722   4.226   2.707  0.6013 -0.7720 -0.8134
14194TIP3    H263998   2.816   4.176   2.600  4.0286  0.7202  1.4297
14195TIP3   OH263999   4.085   0.603   5.044 -0.2416 -0.3071 -0.0790
14195TIP3    H164000   4.166   0.644   5.074 -0.8281  0.0230  1.0486
14195TIP3    H264001   4.115   0.528   4.991  0.8010  0.3407 -0.4324
14196TIP3   OH264002   3.396   2.057  11.770 -0.1071 -0.4429 -0.0935
14196TIP3    H164003   3.301   2.046  11.766  0.0363 -0.9957 -2.9999
14196TIP3    H264004   3.411   2.149  11.749  0.0041 -0.2780  0.6803
14197TIP3   OH264005   5.299   2.054  12.321 -0.5693  0.3789 -0.2229
14197TIP3    H164006   5.312   2.147  12.301  0.8004  0.4523  0.8793
14197TIP3    H264007   5.370   2.010  12.274  0.3980  0.1800  1.3800
14198TIP3   OH264008   0.862   4.361  14.567  0.1150 -0.1051  0.3420
14198TIP3    H164009   0.819   4.349  14.483  0.7066  0.0272  0.0174
14198TIP3    H264010   0.857   4.275  14.609  0.6106 -0.4083 -0.2113
14199TIP3   OH264011   3.758   3.233  13.934 -0.2339  0.1804  0.9529
14199TIP3    H164012   3.700   3.256  13.861  0.9873  0.2468 -0.0205
14199TIP3    H264013   3.792   3.146  13.912  0.4801  0.3846  1.2125
14200TIP3   OH264014   5.983   0.409  15.622 -0.3797  0.4372 -0.0387
14200TIP3    H164015   5.989   0.325  15.577 -1.5353  0.8488 -0.9774
14200TIP3    H264016   5.911   0.399  15.683  0.6070  0.1788  1.0960
14201TIP3   OH264017   3.525   3.360   0.060 -0.0559 -0.0169  0.5594
14201TIP3    H164018   3.429   3.361   0.062 -0.0394 -1.3328  1.8722
14201TIP3    H264019   3.548   3.274   0.026  0.6942 -0.5706  2.4274
14202TIP3   OH264020   3.057   2.136   3.921  0.1095 -0.1565 -0.2535
14202TIP3    H164021   3.039   2.128   4.015 -0.8671  2.7925 -0.1386
14202TIP3    H264022   2.982   2.093   3.879 -0.5018  0.3407  0.3109
14203TIP3   OH264023   5.346   3.096  17.233 -0.0259  0.1662  0.2235
14203TIP3    H164024   5.356   3.001  17.236  0.9939  0.2695  0.2926
14203TIP3    H264025   5.258   3.109  17.198 -0.6580 -0.8009  1.4297
14204TIP3   OH264026   3.209   5.647   5.381  0.5023  0.0391 -0.6412
14204TIP3    H164027   3.196   5.571   5.325  1.0197 -0.0505 -0.6439
14204TIP3    H264028   3.198   5.722   5.323  0.7472 -0.0482 -0.8009
14205TIP3   OH264029   3.001   1.859  12.096 -0.2352  0.3707 -0.2606
14205TIP3    H164030   3.078   1.911  12.071 -0.5711  0.6726 -0.6679
14205TIP3    H264031   3.035   1.770  12.110  0.3030  0.6501  0.2224
14206TIP3   OH264032   4.899   6.006  13.739 -0.2712  0.0391 -0.1823
14206TIP3    H164033   4.984   5.974  13.707  0.2287 -0.1905  1.3610
14206TIP3    H264034   4.879   6.081  13.683  2.3985  1.9679  1.3709
14207TIP3   OH264035   4.659   6.747   1.061  0.0209  0.3495 -0.1465
14207TIP3    H164036   4.684   6.817   1.001  3.6995 -1.4885 -0.9666
14207TIP3    H264037   4.740   6.696   1.073 -1.5888 -1.6142  3.3090
14208TIP3   OH264038   1.347   2.519   5.621 -0.0046 -0.0260 -0.2078
14208TIP3    H164039   1.390   2.518   5.707  0.5393 -0.9304 -0.4827
14208TIP3    H264040   1.362   2.608   5.588  1.1384 -0.1347 -0.0230
14209TIP3   OH264041   2.825   2.764  14.085  0.2507 -0.0609  0.1992
14209TIP3    H164042   2.857   2.684  14.044 -0.9508 -0.4727  0.0405
14209TIP3    H264043   2.892   2.830  14.066  0.0283 -0.4022 -1.8532
14210TIP3   OH264044   5.054   1.889   4.889  0.0366  0.6390  0.5147
14210TIP3    H164045   4.998   1.964   4.908  0.3977  1.4803 -1.5969
14210TIP3    H264046   5.061   1.888   4.793  0.2050 -1.9659  0.5245
14211TIP3   OH264047   2.630   5.305   3.908 -0.1751 -0.1662  0.0158
14211TIP3    H164048   2.635   5.261   3.993 -0.3697  0.4533  0.3443
14211TIP3    H264049   2.556   5.365   3.916 -0.3551 -0.2983 -0.6789
14212TIP3   OH264050   1.492   4.417  14.717  0.6785 -0.1976 -0.1110
14212TIP3    H164051   1.516   4.325  14.703 -0.5323 -0.4631 -0.5611
14212TIP3    H264052   1.397   4.418  14.706  0.7628  1.2442 -0.8418
14213TIP3   OH264053   3.807   2.975   0.437  0.1824  0.0211 -0.8569
14213TIP3    H164054   3.777   2.972   0.347 -0.2318 -1.0156 -0.6956
14213TIP3    H264055   3.902   2.964   0.431  0.0775 -0.7630 -1.1271
14214TIP3   OH264056   2.833   6.140  13.429  0.0389 -0.3602  0.5101
14214TIP3    H164057   2.843   6.154  13.523 -0.3642  1.2140  0.3410
14214TIP3    H264058   2.749   6.181  13.407  1.8057  2.5693 -1.1281
14215TIP3   OH264059   6.193   0.264   2.319 -0.9077 -0.0700 -0.0803
14215TIP3    H164060   6.131   0.332   2.344  0.8934  1.9061 -0.8366
14215TIP3    H264061   6.216   0.221   2.402  1.4711  3.3609  1.1464
14216TIP3   OH264062   2.534   4.373   5.395  0.2057 -0.0823  0.5980
14216TIP3    H164063   2.531   4.362   5.300 -1.3091  1.0055  0.4879
14216TIP3    H264064   2.557   4.465   5.407  2.1071 -0.6405  1.3208
14217TIP3   OH264065   6.267   4.712   4.004  0.0764  0.1361 -0.1146
14217TIP3    H164066   6.236   4.636   3.955 -0.8387  0.4929 -0.0952
14217TIP3    H264067   6.233   4.700   4.092 -0.8283  1.0213 -0.3384
14218TIP3   OH264068   2.656   4.180   5.727 -0.0699 -0.2409 -0.2394
14218TIP3    H164069   2.590   4.229   5.678 -2.0606 -2.6910 -0.1009
14218TIP3    H264070   2.622   4.178   5.817 -0.9637 -3.3263 -0.5884
14219TIP3   OH264071   6.185   2.459  13.678 -0.0195 -0.3732  0.8153
14219TIP3    H164072   6.199   2.375  13.633 -1.8922 -0.0427 -0.4537
14219TIP3    H264073   6.187   2.437  13.771  0.7243 -1.6210  0.5149
14220TIP3   OH264074   6.058   3.894   5.884  0.2200 -0.2386 -0.0730
14220TIP3    H164075   6.019   3.841   5.815  0.8469 -1.1812  0.2828
14220TIP3    H264076   5.997   3.966   5.897 -0.6497 -0.8798 -0.5644
14221TIP3   OH264077   0.632   5.974   3.406 -0.4023 -0.0843 -0.0519
14221TIP3    H164078   0.651   6.040   3.473 -0.5429  0.5518 -0.6290
14221TIP3    H264079   0.590   5.903   3.454 -1.7756  0.9558  0.3486
14222TIP3   OH264080   1.108   2.899   1.161  0.7010  0.0291  0.3768
14222TIP3    H164081   1.171   2.959   1.121  1.0982 -0.2620  0.5616
14222TIP3    H264082   1.141   2.886   1.250  1.0369 -1.0522  0.0969
14223TIP3   OH264083   6.083   4.052   5.318 -0.8075 -0.1472  0.1435
14223TIP3    H164084   6.142   3.978   5.335  0.9984  1.1190 -0.4357
14223TIP3    H264085   6.050   4.077   5.404  0.8845  0.2202  0.7020
14224TIP3   OH264086   1.669   1.466   6.210  0.2421  0.3968  0.2912
14224TIP3    H164087   1.657   1.556   6.178 -2.4937 -0.0476 -0.0559
14224TIP3    H264088   1.713   1.476   6.294  1.1927  1.9900 -0.3836
14225TIP3   OH264089   2.668   4.987   2.656  0.3802  0.2912 -0.0826
14225TIP3    H164090   2.714   4.904   2.641 -1.3868 -0.3383 -2.2808
14225TIP3    H264091   2.738   5.049   2.679  1.9453 -1.3616 -0.2521
14226TIP3   OH264092   4.492   0.314  11.960 -0.0240 -0.0713 -0.1639
14226TIP3    H164093   4.551   0.253  12.006 -0.2552 -1.8557 -2.1471
14226TIP3    H264094   4.543   0.394  11.950  0.7423 -0.3446  1.4056
14227TIP3   OH264095   5.268   1.173   0.730  0.0112 -0.0817  0.0105
14227TIP3    H164096   5.197   1.114   0.706 -1.8811  2.3576 -0.6461
14227TIP3    H264097   5.251   1.195   0.821 -0.2026  0.6455 -0.1987
14228TIP3   OH264098   5.268   5.999  13.099 -0.0817  0.3109  0.3737
14228TIP3    H164099   5.275   5.909  13.067  0.8068  0.3121  0.5446
14228TIP3    H264100   5.347   6.011  13.152  0.1111  1.3885 -0.1547
14229TIP3   OH264101   6.265   4.568  13.778 -0.0638 -0.2443 -0.2773
14229TIP3    H164102   6.209   4.645  13.769 -0.3197 -0.3654  0.2499
14229TIP3    H264103   6.261   4.546  13.871  1.3846  0.1266 -0.1240
14230TIP3   OH264104   3.848   1.540  17.097 -0.3162 -0.2457 -0.1170
14230TIP3    H164105   3.833   1.544  17.002 -1.3119  0.8971  0.0835
14230TIP3    H264106   3.940   1.562  17.107 -0.5916  1.2172 -0.7010
14231TIP3   OH264107   0.559   4.321   0.564 -0.1776  0.1867  0.1833
14231TIP3    H164108   0.481   4.280   0.602  0.6362  0.7954  2.5645
14231TIP3    H264109   0.525   4.385   0.502 -1.5060 -1.9595 -1.4090
14232TIP3   OH264110   0.100   3.133  16.694  0.0812  0.4857 -0.0024
14232TIP3    H164111   0.004   3.132  16.688  0.1155  0.6043 -0.6509
14232TIP3    H264112   0.126   3.208  16.641  0.5652  0.0198 -0.4372
14233TIP3   OH264113   4.279   6.566   2.009 -0.0292 -0.1540 -0.0256
14233TIP3    H164114   4.301   6.492   1.953  0.8772  1.8946 -2.4781
14233TIP3    H264115   4.363   6.602   2.036 -0.4646  0.3034  0.7517
14234TIP3   OH264116   0.506   0.566   1.166 -0.4828 -0.3300  0.7442
14234TIP3    H164117   0.583   0.548   1.113 -0.1025 -0.7119  1.4141
14234TIP3    H264118   0.526   0.648   1.211 -0.8991  0.1150  0.1299
14235TIP3   OH264119   2.396   0.203   5.910 -0.1221  0.8806 -0.7596
14235TIP3    H164120   2.380   0.114   5.880 -1.1891  1.3416 -1.5854
14235TIP3    H264121   2.335   0.215   5.983  1.0105  0.4630  0.2644
14236TIP3   OH264122   2.592   6.054   1.604  0.0128 -0.0326 -0.2933
14236TIP3    H164123   2.565   6.128   1.658 -0.0441  0.6848 -1.2933
14236TIP3    H264124   2.675   6.025   1.643  2.2889  3.2964 -2.4187
14237TIP3   OH264125   1.141   1.131   4.076 -0.2497  0.2744  0.5118
14237TIP3    H164126   1.051   1.151   4.101  0.3401 -0.5046  3.5418
14237TIP3    H264127   1.148   1.036   4.088  0.7881  0.2389 -0.3329
14238TIP3   OH264128   3.487   1.382  11.916 -0.2650  0.4497 -0.0071
14238TIP3    H164129   3.552   1.352  11.853 -0.4679 -1.9673  0.8891
14238TIP3    H264130   3.425   1.434  11.863 -0.1348 -1.0671 -1.6914
14239TIP3   OH264131   3.455   4.391   0.531 -0.2777 -0.0301  0.7131
14239TIP3    H164132   3.423   4.309   0.492 -2.5601  0.6497  1.0651
14239TIP3    H264133   3.500   4.363   0.611  1.6737 -1.1698 -0.7301
14240TIP3   OH264134   2.100   4.751   0.790  0.2754  0.3717 -0.0262
14240TIP3    H164135   2.032   4.712   0.845 -0.0220 -0.2816 -0.8509
14240TIP3    H264136   2.170   4.685   0.788  1.2505  1.3443  1.4127
14241TIP3   OH264137   6.283   0.267   1.079  0.0651  0.8269  0.0531
14241TIP3    H164138   6.210   0.208   1.097  0.0950  0.8540  0.2630
14241TIP3    H264139   6.361   0.211   1.083 -0.1384  0.1917 -2.9523
14242TIP3   OH264140   0.209   5.213   2.204  0.1890  0.5366  0.3761
14242TIP3    H164141   0.242   5.279   2.265  1.9520  0.1951 -0.1700
14242TIP3    H264142   0.281   5.200   2.142  0.2183 -2.5773  1.0144
14243TIP3   OH264143   1.967   6.173   3.862  0.3736 -0.5960 -0.4890
14243TIP3    H164144   1.933   6.191   3.774 -1.7324 -0.2185  0.3704
14243TIP3    H264145   1.923   6.092   3.888  0.2322 -0.1837  0.5912
14244TIP3   OH264146   0.792   6.157   1.704  0.1179 -0.0955  0.2911
14244TIP3    H164147   0.879   6.145   1.667 -0.5184  0.4962 -1.4618
14244TIP3    H264148   0.771   6.072   1.744  1.4698 -0.2452  0.7194
14245TIP3   OH264149   6.717   2.202  15.065 -0.1767  0.1036  0.0508
14245TIP3    H164150   6.758   2.213  15.151  0.1011  0.9546 -0.1915
14245TIP3    H264151   6.649   2.269  15.062  0.1346  0.3949 -0.5879
14246TIP3   OH264152   2.697   0.195   1.833 -0.0633  0.2422 -0.2844
14246TIP3    H164153   2.760   0.126   1.812  0.3898  0.3308  0.7568
14246TIP3    H264154   2.703   0.256   1.758 -0.4304 -0.8069 -1.1766
14247TIP3   OH264155   1.605   5.825   4.241  0.9866  0.0280  0.3593
14247TIP3    H164156   1.563   5.761   4.298 -0.6242  0.1481 -0.6464
14247TIP3    H264157   1.550   5.903   4.249  1.4367  0.4316 -0.4354
14248TIP3   OH264158   5.406   0.721  15.906 -0.2729 -0.3030 -0.1709
14248TIP3    H164159   5.344   0.772  15.958  0.2881  1.1754 -0.9176
14248TIP3    H264160   5.415   0.771  15.824  0.3022 -1.6010 -0.9147
14249TIP3   OH264161   4.017   5.196   1.592  0.1586  0.5051  0.1150
14249TIP3    H164162   4.000   5.257   1.520  0.0411  0.2962 -0.0330
14249TIP3    H264163   4.097   5.230   1.633 -0.2561  1.1155  0.4204
14250TIP3   OH264164   0.915   3.465   4.369 -0.3349  0.0675  0.1136
14250TIP3    H164165   0.978   3.529   4.336 -0.2907 -0.3649 -0.6677
14250TIP3    H264166   0.969   3.397   4.409 -0.2254 -0.9602 -1.7397
14251TIP3   OH264167   3.957   2.015   3.955 -0.0455 -0.2656 -0.3276
14251TIP3    H164168   3.937   1.922   3.950  1.3774 -0.6221  0.2995
14251TIP3    H264169   4.034   2.027   3.899 -0.2874  0.5540 -0.5014
14252TIP3   OH264170   1.778   4.645  13.952  0.1480 -0.6666  0.1616
14252TIP3    H164171   1.759   4.641  13.858 -0.0765  0.1404  0.1726
14252TIP3    H264172   1.873   4.633  13.958  0.1876 -0.5328 -0.1825
14253TIP3   OH264173   0.631   4.719   1.012  0.1549 -0.1736 -0.7776
14253TIP3    H164174   0.579   4.645   1.044 -0.3801  0.8060  0.6936
14253TIP3    H264175   0.612   4.790   1.074  2.5022  0.4937 -0.7635
14254TIP3   OH264176   0.746   1.277  14.331 -0.3101 -0.2022 -0.4587
14254TIP3    H164177   0.788   1.361  14.313 -0.4309  0.2588  1.3574
14254TIP3    H264178   0.780   1.219  14.262  0.4197  1.0998 -1.2290
14255TIP3   OH264179   4.320   3.124   5.966  0.8608  0.1052 -0.3754
14255TIP3    H164180   4.330   3.048   6.023 -3.0521  0.3409  0.7075
14255TIP3    H264181   4.336   3.199   6.024 -0.7867  0.2752 -0.1429
14256TIP3   OH264182   3.034   6.665   2.663  0.1348  0.0027  0.4141
14256TIP3    H164183   3.081   6.742   2.632  1.0498 -0.4657  0.6266
14256TIP3    H264184   3.101   6.610   2.702 -0.9489  0.4976  3.1003
14257TIP3   OH264185   0.783   0.552  15.279 -0.8492  0.3271 -0.0540
14257TIP3    H164186   0.690   0.561  15.263 -0.8900  2.2525  1.1567
14257TIP3    H264187   0.819   0.640  15.268  0.9177 -0.4661 -0.9931
14258TIP3   OH264188   6.030   4.017  16.479 -0.6464 -0.0925  0.3131
14258TIP3    H164189   6.027   4.059  16.393  0.1060 -0.3580  0.1516
14258TIP3    H264190   6.064   4.084  16.538  1.1844 -0.6690 -0.0723
14259TIP3   OH264191   5.639   3.231   2.344 -0.3205  0.2050  0.3352
14259TIP3    H164192   5.593   3.182   2.276  0.1026  0.3833 -0.0831
14259TIP3    H264193   5.618   3.323   2.324 -0.8445  0.2176  0.9202
14260TIP3   OH264194   6.241   1.164  13.750  0.1663 -0.8072  0.1215
14260TIP3    H164195   6.304   1.109  13.795  1.9122 -0.3211 -1.6329
14260TIP3    H264196   6.200   1.216  13.819  2.9486  0.1195  1.1453
14261TIP3   OH264197   4.965   2.178  11.586 -0.5164  0.0662 -0.4181
14261TIP3    H164198   5.033   2.155  11.523 -0.9125 -0.1320 -0.7747
14261TIP3    H264199   4.900   2.107  11.579 -0.6354  0.1175  0.1018
14262TIP3   OH264200   5.437   6.530  12.888 -0.3464 -0.0590  0.5454
14262TIP3    H164201   5.468   6.578  12.811 -0.7815  0.8369  0.9313
14262TIP3    H264202   5.448   6.590  12.961 -0.4874 -0.6957  1.0986
14263TIP3   OH264203   0.295   5.205   0.246 -0.5043  0.1045 -0.5551
14263TIP3    H164204   0.321   5.294   0.220 -0.9754  0.4891  0.2581
14263TIP3    H264205   0.219   5.218   0.304 -1.1112 -0.8789 -1.1182
14264TIP3   OH264206   5.757   0.486  15.420 -0.0625 -0.1114  0.2612
14264TIP3    H164207   5.676   0.527  15.449 -1.4155 -1.1893 -1.7960
14264TIP3    H264208   5.820   0.502  15.490 -1.7611  1.6662  1.4090
14265TIP3   OH264209   0.486   6.720  13.517  0.3345 -0.4810 -0.3072
14265TIP3    H164210   0.476   6.810  13.547  0.3907 -0.5157 -0.1856
14265TIP3    H264211   0.525   6.674  13.591 -0.9661 -0.9084  0.1259
14266TIP3   OH264212   6.692   3.722   3.227 -0.1329  0.0427 -0.0406
14266TIP3    H164213   6.764   3.746   3.167  1.1414  0.8095  1.7567
14266TIP3    H264214   6.654   3.806   3.254  0.7063 -0.1739  1.8905
14267TIP3   OH264215   1.398   4.630  11.422  0.6242  0.4144  0.4465
14267TIP3    H164216   1.476   4.656  11.470  0.1125  1.8664  0.5200
14267TIP3    H264217   1.428   4.621  11.331  1.5683 -2.2510  0.9816
14268TIP3   OH264218   2.521   5.280   4.889  0.0476  0.8090  0.2079
14268TIP3    H164219   2.584   5.252   4.956 -0.3974 -0.4151  0.1242
14268TIP3    H264220   2.503   5.372   4.910  0.8091  0.7663  1.0626
14269TIP3   OH264221   0.336   2.194  10.720 -0.6425 -0.9342 -0.3438
14269TIP3    H164222   0.310   2.140  10.645 -1.6131  0.8306 -1.2994
14269TIP3    H264223   0.355   2.280  10.683  0.1980 -0.4101  1.2570
14270TIP3   OH264224   5.503   2.328   0.854  0.0626 -0.2611 -0.3112
14270TIP3    H164225   5.543   2.252   0.812  1.0891  0.4845 -0.7115
14270TIP3    H264226   5.503   2.395   0.785  2.2364  1.1450  0.9920
14271TIP3   OH264227   6.314   1.461  13.213  0.2782 -0.2301  0.6801
14271TIP3    H164228   6.298   1.405  13.137 -0.6783  0.6029  0.2507
14271TIP3    H264229   6.373   1.410  13.269  1.4807 -0.5928 -0.9042
14272TIP3   OH264230   0.958   6.184   0.078  0.2133  0.1584 -0.1183
14272TIP3    H164231   1.015   6.224   0.143  1.0079  0.0360 -0.7394
14272TIP3    H264232   0.983   6.224  -0.005  0.8496 -1.4186 -0.7126
14273TIP3   OH264233   1.857   3.794   2.358  0.9564  0.2823 -0.7391
14273TIP3    H164234   1.824   3.742   2.285  1.8663 -1.6128  0.1665
14273TIP3    H264235   1.852   3.735   2.434 -1.3447  2.6637  1.0574
14274TIP3   OH264236   4.890   5.089  12.227  0.8776 -0.1613  0.1089
14274TIP3    H164237   4.982   5.107  12.207  1.1416 -0.3549  1.1083
14274TIP3    H264238   4.882   4.994  12.220  0.4801 -0.0544 -1.0628
14275TIP3   OH264239   1.900   3.088   5.040  0.6610 -0.0162 -0.1421
14275TIP3    H164240   1.982   3.137   5.033  0.9544 -0.3398  0.9302
14275TIP3    H264241   1.842   3.145   5.092 -0.0789  0.5724 -1.6006
14276TIP3   OH264242   2.473   5.432  14.149 -0.7198 -0.2192 -0.3246
14276TIP3    H164243   2.469   5.527  14.164 -1.7184 -0.1636 -0.9354
14276TIP3    H264244   2.401   5.397  14.202  0.8843 -0.8555  1.5106
14277TIP3   OH264245   5.143   1.592  14.823  0.0743  0.4731  0.3912
14277TIP3    H164246   5.114   1.642  14.900  1.7463  3.0162 -0.5600
14277TIP3    H264247   5.067   1.593  14.764  0.0260  1.8050  0.4566
14278TIP3   OH264248   1.426   5.572  13.032 -0.0084 -1.0582  0.0865
14278TIP3    H164249   1.504   5.518  13.023  1.3827  0.4801  2.2242
14278TIP3    H264250   1.426   5.628  12.955  2.3464  0.5152  1.1528
14279TIP3   OH264251   1.814   3.065   2.131  0.2922  0.6267  0.1785
14279TIP3    H164252   1.782   3.145   2.172  0.6530  0.1742  1.3789
14279TIP3    H264253   1.776   2.994   2.184  2.4422  0.0716  1.0183
14280TIP3   OH264254   1.044   2.590  14.235 -0.1830  0.5825 -0.3284
14280TIP3    H164255   1.062   2.499  14.259 -0.6344  0.6045  0.1099
14280TIP3    H264256   1.025   2.588  14.142  0.1834  0.2830 -0.3961
14281TIP3   OH264257   6.706   3.769  15.759 -0.7011 -0.9371 -0.4396
14281TIP3    H164258   6.634   3.707  15.764 -1.3071 -0.0712  2.0053
14281TIP3    H264259   6.683   3.838  15.821  1.3536  0.2706 -0.9745
14282TIP3   OH264260   0.170   1.113   2.250 -0.3113 -0.1811 -0.2090
14282TIP3    H164261   0.129   1.071   2.325 -1.0797  1.2912  0.2080
14282TIP3    H264262   0.097   1.150   2.200  0.3670  0.7899 -0.4872
14283TIP3   OH264263   6.674   6.577   5.693  0.0601  0.5631 -0.1920
14283TIP3    H164264   6.626   6.634   5.633  2.3363  1.5868 -1.1237
14283TIP3    H264265   6.613   6.557   5.763 -2.1382  0.6798 -2.0313
14284TIP3   OH264266   0.736   4.275  11.542  0.0311  0.1234 -0.8937
14284TIP3    H164267   0.772   4.188  11.560 -2.0280 -0.4695  0.6268
14284TIP3    H264268   0.811   4.328  11.518  1.6706 -1.4391  0.6662
14285TIP3   OH264269   4.237   5.574   5.397  0.0505 -0.2564  0.2155
14285TIP3    H164270   4.188   5.642   5.444  0.1390 -0.0620  0.0286
14285TIP3    H264271   4.210   5.584   5.306 -0.1215 -0.6345  0.2242
14286TIP3   OH264272   6.294   5.842  11.828  0.2032  0.7267  0.0891
14286TIP3    H164273   6.244   5.761  11.840  0.3952  0.1067 -2.7782
14286TIP3    H264274   6.385   5.815  11.837  0.3723  0.1635 -2.8313
14287TIP3   OH264275   6.510   5.706   6.237  0.1913  0.5494  0.6934
14287TIP3    H164276   6.548   5.665   6.315  2.3349 -0.3026 -0.7508
14287TIP3    H264277   6.509   5.636   6.172  1.6993  2.1529 -1.0941
14288TIP3   OH264278   0.331   3.635  11.386  0.0104 -0.4272  0.7257
14288TIP3    H164279   0.361   3.553  11.346 -1.3858 -1.6923  2.2217
14288TIP3    H264280   0.258   3.664  11.331  0.1489 -0.4756  0.5172
14289TIP3   OH264281   1.747   3.385  11.180  0.3980 -0.1151  0.2555
14289TIP3    H164282   1.792   3.414  11.102  2.1929  1.2940  1.7719
14289TIP3    H264283   1.696   3.462  11.208 -0.0256 -0.5240  0.6154
14290TIP3   OH264284   3.388   0.186  14.145  0.3336 -0.2257 -0.0636
14290TIP3    H164285   3.460   0.125  14.135  1.2260  0.6744  0.7610
14290TIP3    H264286   3.399   0.223  14.233 -1.8339 -0.9711  0.5509
14291TIP3   OH264287   6.222   5.157   6.048 -0.4174 -0.1522 -0.5194
14291TIP3    H164288   6.153   5.114   6.099  0.2125 -2.4453 -1.5058
14291TIP3    H264289   6.200   5.250   6.050 -1.6385 -0.4595  2.0142
14292TIP3   OH264290   4.712   3.358   4.122 -0.6635 -0.6380 -0.3560
14292TIP3    H164291   4.787   3.392   4.172 -1.0672 -2.0891  1.2804
14292TIP3    H264292   4.639   3.414   4.148 -0.5128 -0.2890 -0.6713
14293TIP3   OH264293   2.716   1.242   4.269 -0.2657  0.1450  0.1791
14293TIP3    H164294   2.693   1.167   4.323  2.8328 -0.6034  0.5300
14293TIP3    H264295   2.734   1.312   4.332  1.0614 -0.0570  0.0245
14294TIP3   OH264296   1.126   1.246   2.233  0.4037 -0.2854  0.3428
14294TIP3    H164297   1.047   1.241   2.181  0.6877  2.1382 -0.3703
14294TIP3    H264298   1.114   1.324   2.288  2.1569 -0.0263  0.3949
14295TIP3   OH264299   4.913   3.306   0.898 -0.4285  0.4943  0.7017
14295TIP3    H164300   4.996   3.260   0.912  0.1464 -0.1997 -4.2634
14295TIP3    H264301   4.851   3.259   0.954  0.9965 -3.9044 -1.2005
14296TIP3   OH264302   1.284   1.095   3.485 -0.2190  0.0859  0.3047
14296TIP3    H164303   1.345   1.058   3.549  0.9247  0.5360 -0.4892
14296TIP3    H264304   1.292   1.038   3.408  1.0003  1.4935 -0.6556
14297TIP3   OH264305   4.384   0.164   4.419  0.4665  0.0277  0.4034
14297TIP3    H164306   4.463   0.210   4.390  0.7357 -1.3368 -1.1125
14297TIP3    H264307   4.314   0.202   4.366  0.7009 -1.3340 -0.9040
14298TIP3   OH264308   2.830   0.649  10.725 -0.1061  0.0477  0.2998
14298TIP3    H164309   2.852   0.571  10.775  1.8609  0.1486 -0.3457
14298TIP3    H264310   2.801   0.616  10.640 -0.6180 -0.0306  0.5067
14299TIP3   OH264311   0.976   0.578  13.844  0.0951  0.3736 -0.5540
14299TIP3    H164312   0.965   0.663  13.801  0.7615  0.8103  0.1169
14299TIP3    H264313   0.887   0.549  13.863 -0.1174  1.3075 -0.0644
14300TIP3   OH264314   3.694   3.768  15.461 -0.2035 -0.2481 -0.3053
14300TIP3    H164315   3.726   3.836  15.522 -0.5383 -1.3692  1.1369
14300TIP3    H264316   3.643   3.816  15.397  0.6123  1.0330 -0.0208
14301TIP3   OH264317   4.789   0.432  15.831 -0.1549 -0.0591  0.3998
14301TIP3    H164318   4.785   0.357  15.772  0.3045  0.9177 -0.9067
14301TIP3    H264319   4.864   0.414  15.888 -0.4680 -0.9123  0.5481
14302TIP3   OH264320   3.753   5.202  16.700 -0.0052  0.4472 -0.0905
14302TIP3    H164321   3.833   5.246  16.728  0.2063  0.2268 -0.3415
14302TIP3    H264322   3.760   5.198  16.605  0.0469 -0.2538 -0.0594
14303TIP3   OH264323   1.537   2.308  13.721 -0.3153 -0.1861  0.4191
14303TIP3    H164324   1.572   2.396  13.727  1.0621 -0.7310  0.5511
14303TIP3    H264325   1.608   2.251  13.751 -0.9322 -1.3827 -0.3197
14304TIP3   OH264326   3.609   6.550  13.877 -0.3194  0.4192 -0.0180
14304TIP3    H164327   3.565   6.561  13.793  1.3205  0.2966 -0.9214
14304TIP3    H264328   3.687   6.606  13.870  1.3417 -1.7928  0.2937
14305TIP3   OH264329   3.190   2.220  12.353 -0.1839 -0.1511  0.9584
14305TIP3    H164330   3.104   2.193  12.386  0.2814 -1.9501  0.7627
14305TIP3    H264331   3.252   2.190  12.420  0.3152  0.9001  0.9718
14306TIP3   OH264332   3.907   1.259  17.150 -0.1011  0.8696 -0.1076
14306TIP3    H164333   3.900   1.347  17.112  0.4030  0.1938 -1.8090
14306TIP3    H264334   3.901   1.274  17.244  0.8026  2.8272 -0.3206
14307TIP3   OH264335   1.655   2.563  11.230 -0.6430 -0.1993 -0.5308
14307TIP3    H164336   1.671   2.583  11.137 -1.0748 -0.0373 -0.5698
14307TIP3    H264337   1.562   2.580  11.242  0.0547  3.2735  0.7649
14308TIP3   OH264338   4.551   1.491   4.147 -0.0177 -0.1341  0.4762
14308TIP3    H164339   4.614   1.435   4.102 -0.1646  0.4075 -0.4400
14308TIP3    H264340   4.507   1.434   4.209 -0.2284 -1.0549 -0.5108
14309TIP3   OH264341   0.113   6.474  13.479 -0.2902 -0.2865 -0.1601
14309TIP3    H164342   0.108   6.501  13.570 -0.2317  0.0417 -0.2540
14309TIP3    H264343   0.206   6.477  13.458 -0.5842  3.2744 -1.3155
14310TIP3   OH264344   1.490   2.262  15.055 -0.4421 -0.0689  0.2303
14310TIP3    H164345   1.448   2.249  14.970 -0.4367 -0.5862  0.3083
14310TIP3    H264346   1.422   2.303  15.109 -0.0893  1.3456 -0.3600
14311TIP3   OH264347   0.860   1.891  15.361  0.2421  0.3617  0.3603
14311TIP3    H164348   0.841   1.799  15.380  0.4596  0.7237  2.3973
14311TIP3    H264349   0.956   1.896  15.360  0.2351  0.4087 -0.5827
14312TIP3   OH264350   3.082   2.011   1.584  0.2005  0.4452 -0.0198
14312TIP3    H164351   3.005   2.053   1.621  0.1321 -1.0430  1.5868
14312TIP3    H264352   3.147   2.014   1.655  0.9370 -0.1169 -0.6669
14313TIP3   OH264353   4.362   3.263  13.044  0.0741  1.1322 -0.2117
14313TIP3    H164354   4.437   3.206  13.025 -0.4488 -0.1672  1.4761
14313TIP3    H264355   4.331   3.233  13.129 -3.1024  0.8715 -1.4087
14314TIP3   OH264356   5.532   3.960   0.897  0.0988  0.5782 -0.6529
14314TIP3    H164357   5.519   3.944   0.991  2.3389 -0.1103 -0.4419
14314TIP3    H264358   5.558   4.051   0.891  0.7675  0.3979 -0.5186
14315TIP3   OH264359   2.387   3.673  17.167  0.6466  0.3271  0.6047
14315TIP3    H164360   2.467   3.719  17.143 -0.0535  0.8020 -0.8344
14315TIP3    H264361   2.354   3.720  17.243  1.3810  0.5178  0.8132
14316TIP3   OH264362   3.905   5.255  10.797 -0.3401  0.1399 -0.7567
14316TIP3    H164363   3.918   5.311  10.721  1.3006  0.8577  0.0275
14316TIP3    H264364   3.869   5.314  10.864 -0.2788 -0.1328 -0.4824
14317TIP3   OH264365   4.121   4.024  14.452  0.3853 -0.0374  0.2074
14317TIP3    H164366   4.105   4.028  14.546 -1.1782  0.1113 -0.0508
14317TIP3    H264367   4.126   4.115  14.424 -0.3727 -0.0708 -0.0477
14318TIP3   OH264368   4.072   0.929   0.555  0.1447 -0.5340  0.8675
14318TIP3    H164369   4.080   0.985   0.478  0.9916  1.4541  2.3433
14318TIP3    H264370   4.026   0.851   0.524  0.8821  0.0117 -1.7363
14319TIP3   OH264371   1.709   1.269  13.543  0.2142 -0.1890 -0.2135
14319TIP3    H164372   1.705   1.181  13.505 -0.3814 -0.2691  0.0219
14319TIP3    H264373   1.802   1.290  13.547  0.3717 -0.9215 -0.0220
14320TIP3   OH264374   1.798   6.736  16.966  0.7729  0.4406 -0.6367
14320TIP3    H164375   1.879   6.778  16.994  0.8807  0.7606 -1.4239
14320TIP3    H264376   1.786   6.765  16.876  1.3504 -1.9336 -1.5363
14321TIP3   OH264377   1.907   4.473  14.746 -0.4621  0.1247 -0.0750
14321TIP3    H164378   1.829   4.523  14.772 -0.5075 -0.0086  0.0438
14321TIP3    H264379   1.945   4.443  14.828  0.2731  1.0346 -0.0778
14322TIP3   OH264380   3.597   2.135  13.275  0.2751  0.0625 -0.2923
14322TIP3    H164381   3.663   2.105  13.214  0.4500  0.4823 -0.3135
14322TIP3    H264382   3.642   2.139  13.360  0.0709 -0.3862 -0.1634
14323TIP3   OH264383   5.502   0.710   4.503  0.0848  0.2610 -0.3120
14323TIP3    H164384   5.540   0.653   4.570  0.6127  0.8841 -0.0783
14323TIP3    H264385   5.408   0.710   4.522  0.1271 -0.2611 -0.1030
14324TIP3   OH264386   1.085   2.814  14.450  0.3304  0.2969  0.3121
14324TIP3    H164387   1.104   2.905  14.426  0.5261  0.1780  0.0113
14324TIP3    H264388   1.084   2.767  14.367  1.2286 -0.1594  0.5447
14325TIP3   OH264389   6.347   6.032  13.479  0.1617  0.3224 -0.2875
14325TIP3    H164390   6.283   5.968  13.449 -0.8429 -0.5131  3.3902
14325TIP3    H264391   6.426   6.012  13.429 -0.8933 -2.1287 -1.0417
14326TIP3   OH264392   2.600   4.060   4.894  0.3829 -0.2048 -0.3225
14326TIP3    H164393   2.641   4.130   4.945  0.8461  1.1559 -2.4983
14326TIP3    H264394   2.553   4.105   4.824 -1.3862 -1.9652 -0.3052
14327TIP3   OH264395   1.860   5.203  13.755  0.1874 -0.2648 -0.4471
14327TIP3    H164396   1.951   5.211  13.783 -0.0369 -0.1200  0.2692
14327TIP3    H264397   1.822   5.289  13.775 -0.7599 -1.1483  1.7466
14328TIP3   OH264398   0.764   5.048  11.412 -0.0217  0.1851 -0.2083
14328TIP3    H164399   0.686   5.103  11.417  0.3403  0.7372 -0.5581
14328TIP3    H264400   0.794   5.058  11.322 -0.1104 -0.8145 -0.3518
14329TIP3   OH264401   0.219   4.706   1.802  0.2669 -0.3641 -0.0916
14329TIP3    H164402   0.242   4.788   1.758 -1.0391 -0.8622 -1.7336
14329TIP3    H264403   0.208   4.731   1.894 -3.3334  1.9798 -1.0839
14330TIP3   OH264404   2.284   0.643  12.384  0.2421 -0.3961 -0.2700
14330TIP3    H164405   2.240   0.558  12.391 -2.0428  0.9097  2.2679
14330TIP3    H264406   2.306   0.666  12.475  1.0039  1.6035 -0.9348
14331TIP3   OH264407   2.025   4.091  15.282 -0.4562 -0.5285 -0.1723
14331TIP3    H164408   2.068   4.177  15.274 -0.7883 -0.4725 -1.6578
14331TIP3    H264409   2.095   4.031  15.309  0.4763 -0.3515 -2.1030
14332TIP3   OH264410   6.529   6.395   0.221 -0.2912  0.0734  0.3197
14332TIP3    H164411   6.591   6.468   0.220 -0.3060  0.0829 -1.5044
14332TIP3    H264412   6.505   6.383   0.129 -2.3359 -0.4882  0.9048
14333TIP3   OH264413   3.400   5.298  15.655  0.0923  0.4477 -0.3681
14333TIP3    H164414   3.347   5.259  15.585 -1.2312 -0.7282  1.2392
14333TIP3    H264415   3.365   5.387  15.665 -0.5530  0.2002 -0.3778
14334TIP3   OH264416   4.184   6.203   2.597  0.2077 -0.1439  0.3716
14334TIP3    H164417   4.113   6.255   2.558 -1.1585 -1.6024  0.8911
14334TIP3    H264418   4.163   6.113   2.574  1.5904 -0.6458  1.0475
14335TIP3   OH264419   0.409   5.261  15.527 -0.4136  0.1033  0.1522
14335TIP3    H164420   0.321   5.237  15.496 -0.4864  0.1424  0.3291
14335TIP3    H264421   0.451   5.177  15.547 -0.7838  0.1394  1.0848
14336TIP3   OH264422   2.876   2.091   2.551 -0.5915  0.2249 -0.4830
14336TIP3    H164423   2.870   2.027   2.621  0.6870 -1.0271 -1.4840
14336TIP3    H264424   2.935   2.158   2.584 -2.6877  1.4296  0.9435
14337TIP3   OH264425   1.153   2.248  11.954  0.0532 -0.2193  0.3442
14337TIP3    H164426   1.121   2.217  12.039 -1.3357  0.7904  0.1974
14337TIP3    H264427   1.172   2.169  11.905  0.0646 -0.8171  1.3000
14338TIP3   OH264428   0.725   4.927   5.630 -0.0378  0.4343 -0.2776
14338TIP3    H164429   0.636   4.938   5.663  0.0659  0.6039 -0.0497
14338TIP3    H264430   0.728   4.837   5.597 -0.1414  0.2582  0.1922
14339TIP3   OH264431   0.234   4.838  15.215 -0.4601 -0.6283  0.1510
14339TIP3    H164432   0.299   4.769  15.226 -0.1577 -0.3904 -0.1385
14339TIP3    H264433   0.280   4.918  15.239 -0.1047 -0.2342 -1.8139
14340TIP3   OH264434   6.396   4.851  17.054 -0.0930 -0.1278  0.2114
14340TIP3    H164435   6.462   4.885  17.114  0.6758 -2.7175  0.8893
14340TIP3    H264436   6.390   4.758  17.074 -2.5847 -0.3244 -1.1508
14341TIP3   OH264437   6.161   0.533  10.694 -0.1235  0.3136 -0.1837
14341TIP3    H164438   6.213   0.564  10.620  0.3668  0.6062  0.2767
14341TIP3    H264439   6.072   0.525  10.659  0.1790  0.0740 -0.9029
14342TIP3   OH264440   3.770   3.724   1.611 -0.4230  0.4709  0.2568
14342TIP3    H164441   3.805   3.812   1.601  0.7139  0.2922  2.4019
14342TIP3    H264442   3.712   3.729   1.687 -0.1207 -0.7042  0.5737
14343TIP3   OH264443   4.104   2.417   3.937 -0.2444 -0.1898  0.4180
14343TIP3    H164444   4.138   2.362   4.008 -2.0269 -2.8480 -0.7250
14343TIP3    H264445   4.171   2.411   3.868 -0.6970 -1.4409  0.0713
14344TIP3   OH264446   4.148   0.398   2.305  0.0552  0.4520  0.1191
14344TIP3    H164447   4.202   0.343   2.361 -0.3825 -0.7859 -0.6556
14344TIP3    H264448   4.209   0.438   2.244  0.0605 -1.3950 -1.1288
14345TIP3   OH264449   5.121   5.745  16.786 -0.2087  0.1791 -0.4528
14345TIP3    H164450   5.215   5.726  16.788 -0.1019  0.6919 -0.6345
14345TIP3    H264451   5.081   5.665  16.750  0.3487  0.7065 -2.2824
14346TIP3   OH264452   0.802   0.984   6.301  0.4694  0.1421 -0.0952
14346TIP3    H164453   0.768   1.069   6.270 -2.6650 -1.6577 -1.9180
14346TIP3    H264454   0.789   0.925   6.227  3.6076 -1.7529  0.7692
14347TIP3   OH264455   5.592   3.881   0.474 -0.5007  0.0686  0.7366
14347TIP3    H164456   5.676   3.915   0.505  1.0099 -1.1602 -1.7883
14347TIP3    H264457   5.606   3.786   0.468 -2.2160 -0.1938  0.7018
14348TIP3   OH264458   3.617   3.649   5.180  0.6285  0.0545  0.1314
14348TIP3    H164459   3.528   3.653   5.145  0.1586  0.8445  1.3709
14348TIP3    H264460   3.671   3.688   5.112 -0.2944  1.7381  0.3429
14349TIP3   OH264461   3.999   6.082   5.327 -0.1755  0.2742  0.4674
14349TIP3    H164462   4.074   6.138   5.310 -0.6194  0.4746 -0.8839
14349TIP3    H264463   3.961   6.116   5.408  0.5561  0.8506  0.5713
14350TIP3   OH264464   2.041   6.203  13.840 -0.1388  0.1791 -0.4032
14350TIP3    H164465   1.958   6.155  13.832 -0.2904  0.1988  0.9341
14350TIP3    H264466   2.087   6.158  13.912 -0.3233  2.0882  0.9447
14351TIP3   OH264467   5.479   5.250   2.428 -0.2320  0.2514 -0.1849
14351TIP3    H164468   5.407   5.312   2.423  0.6986  1.3174 -0.4347
14351TIP3    H264469   5.470   5.197   2.348 -2.0973 -1.1474  0.9183
14352TIP3   OH264470   3.966   6.754  13.848 -0.5391  0.7751  0.0212
14352TIP3    H164471   4.030   6.692  13.881 -0.8281 -0.4840 -1.6623
14352TIP3    H264472   3.980   6.834  13.898  2.7822  0.7404 -0.7708
14353TIP3   OH264473   5.049   0.930  15.489  0.0336 -0.0293  0.3055
14353TIP3    H164474   5.125   0.892  15.533  1.3960  0.9092 -1.1586
14353TIP3    H264475   5.013   0.991  15.553  2.5106  1.9612 -0.0851
14354TIP3   OH264476   1.991   2.946  16.466  0.4249 -0.6688 -0.4831
14354TIP3    H164477   1.992   2.997  16.547 -0.7225 -0.4148 -0.6112
14354TIP3    H264478   2.037   3.001  16.402  0.4446 -0.4238 -0.2561
14355TIP3   OH264479   4.358   1.175  16.576  0.1978  0.7132  0.6577
14355TIP3    H164480   4.398   1.097  16.613  1.1944 -0.1680 -2.2036
14355TIP3    H264481   4.264   1.164  16.594  0.3202 -1.1517  0.2621
14356TIP3   OH264482   1.029   4.229   1.945  0.4290  0.2587 -0.2735
14356TIP3    H164483   1.066   4.318   1.940 -1.6978  1.1960  0.1436
14356TIP3    H264484   1.034   4.195   1.856  1.8784  0.5270 -0.3060
14357TIP3   OH264485   2.162   5.318   4.268  0.6142 -0.4984 -0.0039
14357TIP3    H164486   2.215   5.339   4.191  1.6709 -2.0366  0.2984
14357TIP3    H264487   2.071   5.322   4.237  1.0534 -1.7207 -1.4862
14358TIP3   OH264488   0.978   1.182  14.198 -0.2309 -0.0090 -0.1989
14358TIP3    H164489   1.021   1.243  14.258  0.4642 -0.5388 -0.1535
14358TIP3    H264490   1.015   1.203  14.112 -2.7546  2.1775 -0.8392
14359TIP3   OH264491   3.981   2.457  15.534  0.3645  0.3421 -0.1487
14359TIP3    H164492   4.056   2.399  15.516  1.1044  0.4550  2.3874
14359TIP3    H264493   4.020   2.543  15.545  0.0770  0.1947  2.4469
14360TIP3   OH264494   3.808   0.551  13.543  0.6256  0.5483 -0.2606
14360TIP3    H164495   3.850   0.636  13.555  0.3690  0.6102  0.2373
14360TIP3    H264496   3.878   0.495  13.509  0.3846  1.3422 -2.0686
14361TIP3   OH264497   3.914   3.408   4.994 -0.1048 -1.1113  0.0136
14361TIP3    H164498   3.976   3.351   4.949  0.2870 -1.9775  1.6224
14361TIP3    H264499   3.949   3.417   5.082  0.4429  2.5327 -0.4824
14362TIP3   OH264500   0.762   0.335  17.183  0.1268 -1.1259 -0.8269
14362TIP3    H164501   0.791   0.409  17.236  2.0765 -1.9521 -0.6952
14362TIP3    H264502   0.735   0.269  17.246  0.9968 -1.5357 -0.8701
14363TIP3   OH264503   4.585   3.884   5.201  0.1329 -0.0203  0.2408
14363TIP3    H164504   4.649   3.908   5.268 -0.3830  3.5723 -0.4622
14363TIP3    H264505   4.505   3.930   5.227 -1.7290 -3.1106  0.1913
14364TIP3   OH264506   5.531   2.696   5.664 -0.4216 -0.3475 -0.9505
14364TIP3    H164507   5.553   2.606   5.642  1.4233  0.1061 -1.1298
14364TIP3    H264508   5.592   2.719   5.734 -0.0293  1.1244 -1.7404
14365TIP3   OH264509   4.365   0.090   4.112 -0.2031  0.1420 -0.0310
14365TIP3    H164510   4.290   0.139   4.075 -0.2108 -1.6414 -2.4813
14365TIP3    H264511   4.418   0.157   4.154 -2.4071  1.6712  0.4275
14366TIP3   OH264512   5.991   3.375  15.856 -0.2069  0.1010 -0.3432
14366TIP3    H164513   6.026   3.373  15.767 -0.3973  1.1298 -0.4435
14366TIP3    H264514   6.029   3.298  15.898  0.7028  0.1873 -0.9994
14367TIP3   OH264515   1.064   1.124  10.565 -0.0420  0.1982  0.0313
14367TIP3    H164516   1.135   1.102  10.505  0.5858  0.2087  0.7591
14367TIP3    H264517   1.019   1.197  10.524 -0.2410 -0.4485 -0.9181
14368TIP3   OH264518   6.460   2.271  12.892 -0.2094  0.2999 -0.1823
14368TIP3    H164519   6.460   2.216  12.971 -2.3820  0.7339  0.1282
14368TIP3    H264520   6.425   2.214  12.824  0.1206  0.4580 -0.4870
14369TIP3   OH264521   2.431   4.269  11.799  0.2227 -0.0765  0.5560
14369TIP3    H164522   2.502   4.318  11.841 -0.3974  0.8752  0.5041
14369TIP3    H264523   2.361   4.267  11.864 -0.0447 -0.2259  0.2673
14370TIP3   OH264524   1.715   2.543   0.662 -0.3017  0.5706  0.4276
14370TIP3    H164525   1.709   2.488   0.740  0.9780  1.1222  0.9237
14370TIP3    H264526   1.625   2.571   0.646 -0.8674 -1.0331  0.6107
14371TIP3   OH264527   3.795   3.466  13.236  0.8031  0.1990 -0.1367
14371TIP3    H164528   3.705   3.433  13.227  0.5343  0.7069  0.6662
14371TIP3    H264529   3.790   3.556  13.205  1.0884  0.1674 -0.2760
14372TIP3   OH264530   4.670   4.572   5.882  0.6655  0.0748 -0.3223
14372TIP3    H164531   4.609   4.636   5.846 -1.1284 -1.8619 -0.8812
14372TIP3    H264532   4.756   4.601   5.852  0.1192  3.1607  0.9452
14373TIP3   OH264533   6.056   5.151   0.859 -0.2304 -0.1855  0.5114
14373TIP3    H164534   6.040   5.097   0.781 -1.3988 -0.2977  0.8121
14373TIP3    H264535   6.102   5.228   0.825 -2.9492  0.9776 -0.7445
14374TIP3   OH264536   5.977   0.929   5.517  0.4438  0.0395 -0.4004
14374TIP3    H164537   5.908   0.957   5.456  0.2287  0.3156 -0.0366
14374TIP3    H264538   6.032   0.870   5.466 -0.8616 -1.2849 -0.3081
14375TIP3   OH264539   3.674   0.287  17.062  0.3274 -0.1610 -0.5929
14375TIP3    H164540   3.709   0.234  17.133  0.8913  0.9016 -0.0687
14375TIP3    H264541   3.710   0.247  16.983  1.5382  0.0232 -0.1405
14376TIP3   OH264542   6.111   0.993   1.775 -0.0040 -0.1060  0.5325
14376TIP3    H164543   6.061   0.997   1.857  0.4628 -1.1341  0.8748
14376TIP3    H264544   6.050   1.022   1.708 -0.0820  1.7827  1.3795
14377TIP3   OH264545   6.035   5.326  14.983  0.8010 -0.0921 -0.0613
14377TIP3    H164546   5.955   5.335  15.036  0.7137  0.4708 -0.2875
14377TIP3    H264547   6.003   5.320  14.893  1.1429  3.1131 -0.4536
14378TIP3   OH264548   0.955   6.122   5.908 -0.3093 -0.6672 -0.3818
14378TIP3    H164549   0.951   6.212   5.876 -0.7864 -0.6391 -0.2558
14378TIP3    H264550   0.874   6.112   5.959 -0.5226 -1.3396 -0.8521
14379TIP3   OH264551   1.020   3.395  15.157  0.0159 -0.3801  0.1388
14379TIP3    H164552   1.052   3.480  15.187  3.8289 -2.1554  1.3747
14379TIP3    H264553   0.936   3.385  15.200  0.3747  1.9469  1.4695
14380TIP3   OH264554   0.603   0.714   1.640  0.6148 -0.0409  0.7967
14380TIP3    H164555   0.687   0.756   1.620  0.1201  1.4013  1.6889
14380TIP3    H264556   0.549   0.733   1.563  0.7944 -0.1347  0.6458
14381TIP3   OH264557   1.405   0.692   5.786 -0.4109 -0.9609  0.1950
14381TIP3    H164558   1.446   0.665   5.704  1.8028 -2.3776  1.6949
14381TIP3    H264559   1.467   0.663   5.854 -1.3594  1.7043  2.2687
14382TIP3   OH264560   6.130   2.461  14.231 -0.3976 -0.4943  0.2133
14382TIP3    H164561   6.061   2.507  14.280  0.0592  0.3029  0.1193
14382TIP3    H264562   6.164   2.526  14.170 -0.0221 -1.0848 -0.2119
14383TIP3   OH264563   1.795   5.998  15.955 -0.0502 -0.3663  0.0344
14383TIP3    H164564   1.877   6.048  15.961  0.2307 -0.8005 -0.1808
14383TIP3    H264565   1.731   6.061  15.923  0.6027 -0.4829 -1.5224
14384TIP3   OH264566   5.136   4.402  16.617  0.3736  0.0192  0.1156
14384TIP3    H164567   5.182   4.485  16.600  0.8500 -0.0730  0.9438
14384TIP3    H264568   5.187   4.336  16.570  1.1466 -0.0967  1.1103
14385TIP3   OH264569   2.713   3.383   2.088  0.1781  0.1754  1.0425
14385TIP3    H164570   2.647   3.409   2.152  0.0429  0.3105  0.8486
14385TIP3    H264571   2.679   3.303   2.049 -0.1100  0.5203  0.5846
14386TIP3   OH264572   3.538   4.297   5.309 -0.4670  0.3684 -0.2183
14386TIP3    H164573   3.565   4.385   5.333 -2.1306  0.5404  1.1827
14386TIP3    H264574   3.478   4.309   5.236 -1.1953  0.4684  0.3867
14387TIP3   OH264575   1.784   1.469  13.312  0.2309 -0.2676 -0.7632
14387TIP3    H164576   1.877   1.458  13.331  0.1755  0.0247 -0.3275
14387TIP3    H264577   1.767   1.561  13.330 -0.4095 -0.5902  0.2741
14388TIP3   OH264578   1.614   6.575  15.656 -0.4065 -0.7212  0.0031
14388TIP3    H164579   1.623   6.544  15.566 -2.3379  1.3029 -0.9457
14388TIP3    H264580   1.694   6.626  15.672 -0.1203 -0.9746 -0.6073
14389TIP3   OH264581   6.505   0.672  14.791 -0.2322 -0.0258 -0.2372
14389TIP3    H164582   6.465   0.687  14.876  0.2324  1.0428 -0.2061
14389TIP3    H264583   6.448   0.717  14.729 -0.0964 -0.0697 -0.3963
14390TIP3   OH264584   4.695   6.277  15.559  0.5596 -0.1049 -0.2361
14390TIP3    H164585   4.752   6.213  15.515 -0.8077 -1.0977 -0.6075
14390TIP3    H264586   4.658   6.330  15.488  0.0903 -0.2527 -0.1049
14391TIP3   OH264587   6.330   1.709  13.042  0.4585 -0.6686  0.1833
14391TIP3    H164588   6.310   1.635  13.099  1.9787 -1.2147  0.0442
14391TIP3    H264589   6.420   1.692  13.012 -0.3329 -0.4461 -2.4358
14392TIP3   OH264590   1.711   3.100  14.979 -0.2367  0.0493 -0.0302
14392TIP3    H164591   1.800   3.089  14.947 -0.3001  0.1475 -0.2439
14392TIP3    H264592   1.718   3.089  15.073 -0.2238 -1.2957 -0.1821
14393TIP3   OH264593   6.470   5.132   1.026  0.4576 -0.3516  0.1510
14393TIP3    H164594   6.521   5.051   1.019  1.8318  0.4693  0.4572
14393TIP3    H264595   6.535   5.200   1.044 -0.7250  0.7641  0.3057
14394TIP3   OH264596   5.817   6.556   3.950 -0.2978 -0.3331  0.0822
14394TIP3    H164597   5.735   6.577   3.995 -0.2626  3.2228 -1.4060
14394TIP3    H264598   5.821   6.617   3.877  3.4899 -0.7330 -0.1486
14395TIP3   OH264599   1.518   5.584   3.493 -0.0959 -0.5046 -0.0448
14395TIP3    H164600   1.587   5.647   3.472  0.7653 -1.3497  0.1470
14395TIP3    H264601   1.462   5.581   3.416  0.7582 -0.6555 -0.6646
14396TIP3   OH264602   0.050   5.367  14.868  0.3166 -0.3982  0.1531
14396TIP3    H164603   0.094   5.433  14.922 -1.3433 -0.0571  1.1355
14396TIP3    H264604   0.058   5.400  14.778 -1.8735  2.0235  0.7812
14397TIP3   OH264605   3.617   2.668  13.928 -0.4435  0.5139  0.6261
14397TIP3    H164606   3.643   2.644  13.839 -1.5208  0.8876  0.2055
14397TIP3    H264607   3.535   2.621  13.943 -0.7124  1.1188  1.1070
14398TIP3   OH264608   1.166   1.739  13.116 -0.1081  0.1116  0.6506
14398TIP3    H164609   1.170   1.670  13.050 -3.1159  0.2350  0.2655
14398TIP3    H264610   1.141   1.817  13.066 -0.2227  0.6955  1.6123
14399TIP3   OH264611   5.693   4.888  15.433 -0.0066 -0.2831  0.3123
14399TIP3    H164612   5.607   4.869  15.397 -0.2296  0.3023  0.5313
14399TIP3    H264613   5.682   4.971  15.480  0.4979 -0.5662  0.9432
14400TIP3   OH264614   2.421   1.135  11.249  0.0642 -0.6647 -0.2268
14400TIP3    H164615   2.452   1.211  11.202 -0.9121 -2.1932 -3.4642
14400TIP3    H264616   2.326   1.136  11.237 -0.0370 -1.9752  0.2843
14401TIP3   OH264617   3.423   3.971   5.721  0.1234  0.2301  0.5423
14401TIP3    H164618   3.474   3.890   5.718  1.1744  0.8792  0.8086
14401TIP3    H264619   3.487   4.040   5.704 -0.5336  1.1027  1.6117
14402TIP3   OH264620   0.731   4.093   0.623 -0.3240 -0.3271  0.3145
14402TIP3    H164621   0.687   4.177   0.614 -0.1785 -0.3039 -0.1954
14402TIP3    H264622   0.824   4.115   0.630 -0.0428 -0.5612 -2.2259
14403TIP3   OH264623   4.870   2.485   2.749  0.2981 -0.3839  0.2909
14403TIP3    H164624   4.916   2.414   2.705 -0.0594 -1.3494  1.4484
14403TIP3    H264625   4.779   2.456   2.751  0.1223  0.1844  0.6309
14404TIP3   OH264626   3.939   2.381  16.608  0.4615  0.5563  0.5442
14404TIP3    H164627   3.868   2.412  16.553  0.8829 -1.1044 -0.9975
14404TIP3    H264628   3.921   2.418  16.694 -2.6195 -0.3884  0.3527
14405TIP3   OH264629   2.327   3.112  12.119  0.2534 -0.1057 -0.0181
14405TIP3    H164630   2.253   3.053  12.137  0.9653 -0.7534  0.8382
14405TIP3    H264631   2.398   3.054  12.092  0.4420  0.5208 -0.8726
14406TIP3   OH264632   2.240   4.667   3.645 -0.4184  0.2401 -0.4379
14406TIP3    H164633   2.245   4.657   3.550 -0.4165 -1.2554 -0.2876
14406TIP3    H264634   2.331   4.665   3.674 -0.3721  1.5664 -0.4882
14407TIP3   OH264635   6.323   0.605   5.338 -0.7905 -0.7539  0.5679
14407TIP3    H164636   6.379   0.602   5.260  0.2398  0.8629  1.2400
14407TIP3    H264637   6.330   0.517   5.376  0.2708 -0.9408 -0.0481
14408TIP3   OH264638   4.338   6.277  14.699  0.3568 -0.1621 -0.2574
14408TIP3    H164639   4.378   6.241  14.620  3.1212  0.1725  0.8936
14408TIP3    H264640   4.400   6.255  14.769 -1.6228  0.2437  1.6759
14409TIP3   OH264641   2.338   2.504   4.361 -0.2706  0.1421  0.2607
14409TIP3    H164642   2.415   2.479   4.413  0.0397  1.4565  0.4578
14409TIP3    H264643   2.366   2.494   4.270 -1.1062 -3.0514  0.2905
14410TIP3   OH264644   3.406   4.397  12.635  0.7641 -0.0840 -0.1663
14410TIP3    H164645   3.497   4.377  12.658  0.9583 -0.8122 -1.5062
14410TIP3    H264646   3.384   4.333  12.567 -0.8734 -0.1605  0.4017
14411TIP3   OH264647   0.766   1.687   1.732  0.7839 -0.6005  0.3361
14411TIP3    H164648   0.745   1.594   1.720 -1.6298 -0.2419  1.4354
14411TIP3    H264649   0.703   1.733   1.676  0.6565  0.4286  1.3031
14412TIP3   OH264650   5.896   2.001   5.433  0.0081 -0.3942 -0.2282
14412TIP3    H164651   5.802   1.988   5.446 -0.1484  0.7129 -0.2027
14412TIP3    H264652   5.902   2.078   5.376  0.9117  0.1110  0.5365
14413TIP3   OH264653   5.961   4.665   2.760  0.3549  0.1015  0.1262
14413TIP3    H164654   5.880   4.617   2.744  0.9194 -1.1188  0.8609
14413TIP3    H264655   6.015   4.646   2.683  0.6655 -0.6564  0.5206
14414TIP3   OH264656   1.277   5.205   1.809  0.2867  0.3797  0.5832
14414TIP3    H164657   1.203   5.248   1.852 -0.7158  0.8003 -1.4806
14414TIP3    H264658   1.351   5.264   1.825 -0.8157  2.3372 -1.1624
14415TIP3   OH264659   4.136   1.553   0.357  0.1824 -0.1490  0.6088
14415TIP3    H164660   4.114   1.483   0.418 -0.8195 -1.0095 -0.7016
14415TIP3    H264661   4.231   1.552   0.352  0.3347  0.6689  2.9736
14416TIP3   OH264662   2.420   6.388   5.907 -0.4382 -0.0501  0.1790
14416TIP3    H164663   2.371   6.438   5.971 -0.6508 -0.5921  0.4439
14416TIP3    H264664   2.511   6.394   5.936 -0.6005 -0.7567  0.8446
14417TIP3   OH264665   5.379   6.502  13.313 -0.3560  0.1381  0.3683
14417TIP3    H164666   5.388   6.504  13.408  0.4631  0.0403  0.2960
14417TIP3    H264667   5.431   6.426  13.286 -2.1751 -1.0252  0.0118
14418TIP3   OH264668   2.514   6.071   0.615 -0.0649  0.9558  0.2431
14418TIP3    H164669   2.463   6.052   0.536 -0.5728  0.5800  0.6463
14418TIP3    H264670   2.600   6.097   0.583  0.1656 -0.5083 -0.4112
14419TIP3   OH264671   0.443   1.558   2.373 -0.8297 -0.0990 -0.2461
14419TIP3    H164672   0.458   1.653   2.375  1.7378 -0.4680  0.9681
14419TIP3    H264673   0.380   1.542   2.443  0.4866  0.4996  1.1217
14420TIP3   OH264674   1.526   0.234  15.857  0.2121  0.0786  0.2743
14420TIP3    H164675   1.594   0.172  15.831 -1.0624 -1.4393  0.5189
14420TIP3    H264676   1.557   0.270  15.940 -0.1163 -1.9326  1.2852
14421TIP3   OH264677   1.439   5.373   6.018  0.4356  0.0915  0.2052
14421TIP3    H164678   1.408   5.353   6.107 -3.2281  0.5043 -0.8642
14421TIP3    H264679   1.393   5.309   5.962  2.6995 -0.1801 -1.3973
14422TIP3   OH264680   6.768   2.777  17.211  0.3341 -0.0364  0.7268
14422TIP3    H164681   6.826   2.718  17.259 -0.5621 -0.3455  1.4674
14422TIP3    H264682   6.734   2.724  17.139 -0.5183 -0.4711  1.4267
14423TIP3   OH264683   3.159   0.002  15.103  0.1848  0.0471  0.0417
14423TIP3    H164684   3.208  -0.076  15.075  0.7830  0.0757  0.9711
14423TIP3    H264685   3.204   0.075  15.060  0.3814 -0.0157  0.1369
14424TIP3   OH264686   0.327   2.991  16.182  0.1613  0.1975 -0.2827
14424TIP3    H164687   0.279   3.023  16.258 -1.3423 -1.4414 -0.5012
14424TIP3    H264688   0.260   2.985  16.113  0.6721 -2.0208 -0.6222
14425TIP3   OH264689   5.234   2.370  14.343  0.0250 -1.1483 -0.1067
14425TIP3    H164690   5.165   2.373  14.410  0.4807 -0.5617  0.3405
14425TIP3    H264691   5.250   2.276  14.330 -0.7304 -1.2849 -0.0867
14426TIP3   OH264692   4.441   1.458  10.359 -0.0811  0.3085  1.0023
14426TIP3    H164693   4.505   1.390  10.378  1.9191  2.0352  0.6608
14426TIP3    H264694   4.492   1.528  10.317 -2.5912  0.7537 -1.4998
14427TIP3   OH264695   0.604   0.356  13.238  0.1509 -0.6782  0.0867
14427TIP3    H164696   0.528   0.383  13.289 -0.3693 -3.2347  0.7611
14427TIP3    H264697   0.566   0.314  13.160  0.8639 -1.4124  0.1321
14428TIP3   OH264698   1.100   0.097  11.155 -0.1956 -0.4532  0.2730
14428TIP3    H164699   1.024   0.059  11.199  0.8063 -1.6543  1.0272
14428TIP3    H264700   1.159   0.122  11.227 -0.1558  1.0389 -0.2806
14429TIP3   OH264701   1.795   3.637  13.753  0.0022 -0.3337  0.0448
14429TIP3    H164702   1.738   3.695  13.804 -0.4722 -1.1968  0.5071
14429TIP3    H264703   1.880   3.642  13.798  0.2663  0.8371 -0.5577
14430TIP3   OH264704   1.472   1.263   5.237 -0.0351 -0.0329 -0.3790
14430TIP3    H164705   1.518   1.220   5.165 -0.2114 -0.0336 -0.4910
14430TIP3    H264706   1.542   1.287   5.298  0.0964 -0.1939 -0.4649
14431TIP3   OH264707   0.425   0.047  13.819  0.0262 -0.0530  0.0254
14431TIP3    H164708   0.463   0.127  13.854 -0.6299  0.1044  0.3882
14431TIP3    H264709   0.331   0.056  13.835  0.1017 -1.5541  1.4593
14432TIP3   OH264710   2.529   6.732   3.873  0.4059  0.4031  0.0249
14432TIP3    H164711   2.532   6.765   3.963  1.6895 -0.3012  0.2486
14432TIP3    H264712   2.546   6.809   3.819 -0.5272  0.8602  0.3697
14433TIP3   OH264713   3.753   0.942  15.126 -0.2112 -0.1637  1.1562
14433TIP3    H164714   3.770   0.862  15.077 -1.9444 -0.8981  1.6855
14433TIP3    H264715   3.816   0.940  15.198  0.5749 -0.4175  0.4690
14434TIP3   OH264716   3.559   2.937  16.428 -0.0893  0.4753 -0.2035
14434TIP3    H164717   3.616   2.934  16.351  0.6727  0.1921  0.3632
14434TIP3    H264718   3.619   2.931  16.502 -0.6877  2.2437  0.4543
14435TIP3   OH264719   3.041   1.919  11.650 -0.6293 -0.3976 -0.0298
14435TIP3    H164720   2.983   1.876  11.713 -0.9611 -0.0533 -0.1058
14435TIP3    H264721   3.066   2.001  11.691 -1.3107  0.0951 -0.6018
14436TIP3   OH264722   4.985   0.631  17.015 -0.3195 -0.1960  0.3241
14436TIP3    H164723   4.926   0.688  16.966 -1.2311 -3.4397 -2.6061
14436TIP3    H264724   5.071   0.669  17.003 -1.1089  1.4715 -0.1724
14437TIP3   OH264725   4.533   3.692  10.548 -0.2222 -0.1385  0.5170
14437TIP3    H164726   4.461   3.637  10.578 -1.4681  1.6031  0.7260
14437TIP3    H264727   4.495   3.746  10.479  0.8998  0.7316  0.5681
14438TIP3   OH264728   1.250   1.282   1.791 -0.4159 -0.1727 -0.5581
14438TIP3    H164729   1.246   1.191   1.817 -1.9352 -0.2195 -0.9032
14438TIP3    H264730   1.165   1.300   1.751 -0.6014  1.7293  0.6051
14439TIP3   OH264731   0.437   0.691   4.499  0.3776  0.0997  0.1349
14439TIP3    H164732   0.457   0.647   4.582  1.6643  0.3289 -0.0416
14439TIP3    H264733   0.345   0.714   4.506  0.0707 -1.2816  0.8496
14440TIP3   OH264734   6.776   1.176  16.589 -0.4665  0.1663  0.0142
14440TIP3    H164735   6.744   1.092  16.556  1.3178  0.3105 -2.1098
14440TIP3    H264736   6.869   1.162  16.605 -0.4106  1.4020  0.8425
14441TIP3   OH264737   5.911   3.221  16.311  0.4825  0.0782 -0.0640
14441TIP3    H164738   6.004   3.214  16.331  0.7585 -1.3629 -1.6961
14441TIP3    H264739   5.889   3.138  16.268 -1.3891  0.6634 -0.3045
14442TIP3   OH264740   1.491   3.208   1.204 -0.0792 -0.0870  0.3935
14442TIP3    H164741   1.402   3.192   1.235 -0.7792  0.8357 -1.0818
14442TIP3    H264742   1.534   3.255   1.275 -0.4771 -1.3316  1.4782
14443TIP3   OH264743   3.839   6.593   3.807 -0.3054 -0.3790 -0.2689
14443TIP3    H164744   3.812   6.535   3.736 -0.9899 -0.3132 -0.0660
14443TIP3    H264745   3.904   6.651   3.767 -1.7986  0.6639 -1.2591
14444TIP3   OH264746   6.599   2.277  12.376 -0.2395  0.4654 -0.2503
14444TIP3    H164747   6.626   2.362  12.342  0.9620 -0.2712 -1.1351
14444TIP3    H264748   6.506   2.289  12.396  0.2326  2.4162  0.9937
14445TIP3   OH264749   2.644   0.151  14.502  0.0226  0.0781 -0.8360
14445TIP3    H164750   2.653   0.225  14.562 -0.6082  0.8946 -1.7135
14445TIP3    H264751   2.665   0.188  14.416  0.4056 -0.9441 -1.1884
14446TIP3   OH264752   1.900   5.321   2.985  0.0421 -0.1776 -0.1446
14446TIP3    H164753   1.860   5.271   2.913  2.4485 -1.0254 -0.9440
14446TIP3    H264754   1.883   5.412   2.963  0.0345 -0.4659 -1.3726
14447TIP3   OH264755   4.826   2.642  11.167  0.4888  0.1333  0.4029
14447TIP3    H164756   4.887   2.569  11.178  0.1504 -0.2880 -0.4335
14447TIP3    H264757   4.774   2.644  11.247  1.4200  0.3315  1.0125
14448TIP3   OH264758   2.310   6.724  12.936 -0.4933  0.2387 -0.7641
14448TIP3    H164759   2.263   6.780  12.874 -1.7292 -2.6873 -2.5738
14448TIP3    H264760   2.246   6.706  13.006 -0.8167 -0.6076 -1.2690
14449TIP3   OH264761   6.411   2.927   4.547 -0.5401  0.4550 -0.4524
14449TIP3    H164762   6.376   2.838   4.543  0.7936 -0.1461  0.5955
14449TIP3    H264763   6.506   2.915   4.556 -0.2943  1.9919 -0.7551
14450TIP3   OH264764   1.051   6.286   3.364 -0.0035  0.4385  0.0135
14450TIP3    H164765   1.129   6.277   3.309 -1.3748  0.5410 -2.0065
14450TIP3    H264766   1.071   6.359   3.422  2.0570 -0.6133  0.7013
14451TIP3   OH264767   3.284   5.544  11.548 -0.0089 -0.0208 -0.2551
14451TIP3    H164768   3.276   5.489  11.470 -0.9695  1.5376 -1.2952
14451TIP3    H264769   3.201   5.592  11.552  0.8379  1.4038  0.5647
14452TIP3   OH264770   5.033   1.244   5.290 -0.0318  0.3455 -0.2834
14452TIP3    H164771   5.059   1.243   5.382 -1.6210  3.4842  0.2579
14452TIP3    H264772   5.116   1.241   5.242  0.8649  0.0533  1.2644
14453TIP3   OH264773   3.771   2.208   0.433  0.7996 -0.0643 -0.1219
14453TIP3    H164774   3.807   2.186   0.519  1.8769  2.1643  0.0479
14453TIP3    H264775   3.677   2.217   0.448  0.5049 -3.0558  0.0624
14454TIP3   OH264776   3.919   2.468   2.792 -0.0333  0.7121  0.2491
14454TIP3    H164777   3.950   2.433   2.876  0.8742  2.1079  0.5044
14454TIP3    H264778   3.998   2.478   2.739 -0.3797  1.6240 -0.1064
14455TIP3   OH264779   0.445   6.615  16.834 -0.1800 -0.5272  0.2842
14455TIP3    H164780   0.405   6.702  16.835  2.4318  0.7505  2.3998
14455TIP3    H264781   0.418   6.576  16.918  0.3893 -0.8966  0.2963
14456TIP3   OH264782   6.770   6.552  13.149  0.2942 -0.2890  0.0603
14456TIP3    H164783   6.779   6.589  13.237  0.4671 -0.2744  0.0375
14456TIP3    H264784   6.681   6.573  13.123  0.4841  0.3677 -0.0688
14457TIP3   OH264785   5.390   4.338  14.158 -0.2354  0.3601  0.0403
14457TIP3    H164786   5.408   4.396  14.232 -0.0592  0.6431 -0.2255
14457TIP3    H264787   5.296   4.320  14.164 -0.1787  0.1851  0.4756
14458TIP3   OH264788   4.416   1.460   5.931  0.0820  0.5680 -0.3058
14458TIP3    H164789   4.375   1.406   5.864 -0.6690  0.3589  0.3116
14458TIP3    H264790   4.489   1.407   5.963 -0.2587  0.1814 -0.1596
14459TIP3   OH264791   4.242   4.872   2.481 -0.3600 -0.4281 -0.1164
14459TIP3    H164792   4.246   4.792   2.430 -1.4216 -1.6894  1.7009
14459TIP3    H264793   4.215   4.843   2.568 -0.6300  1.8931  0.6003
14460TIP3   OH264794   2.931   4.364  13.615  0.4774  0.1468  0.3532
14460TIP3    H164795   2.935   4.459  13.601 -1.0836 -0.0395 -1.4604
14460TIP3    H264796   2.967   4.326  13.535  2.6880 -0.8072  1.7442
14461TIP3   OH264797   4.674   6.362   5.023 -0.2854  0.3725 -0.2402
14461TIP3    H164798   4.743   6.332   5.084 -0.6443 -1.0794 -0.5297
14461TIP3    H264799   4.720   6.417   4.960  0.9319 -1.9161 -1.4030
14462TIP3   OH264800   2.086   4.995   4.659 -0.4910  0.1003 -0.3496
14462TIP3    H164801   2.128   4.989   4.573 -0.1469 -0.5629 -0.1325
14462TIP3    H264802   1.997   5.024   4.639 -0.3430  0.1918 -0.9088
14463TIP3   OH264803   1.087   3.512  16.260  0.3925 -0.3567  0.7161
14463TIP3    H164804   1.144   3.587  16.247 -1.0172  0.7965  0.9799
14463TIP3    H264805   1.072   3.509  16.355 -3.8595  2.3844  0.2691
14464TIP3   OH264806   6.088   4.665   2.502 -0.3210  0.2098  0.0888
14464TIP3    H164807   6.157   4.714   2.457 -0.0747 -0.3856 -0.1806
14464TIP3    H264808   6.077   4.585   2.450 -0.7049 -0.0323  0.5398
14465TIP3   OH264809   4.008   0.355   0.474  0.2863 -0.0132 -0.4357
14465TIP3    H164810   3.924   0.323   0.441  0.1995  1.0605 -1.2860
14465TIP3    H264811   4.012   0.446   0.445  1.1050  0.3601  0.8391
14466TIP3   OH264812   0.075   0.162   5.221 -0.2537 -0.0189  0.1517
14466TIP3    H164813   0.110   0.081   5.183  0.7389  1.2541 -1.7570
14466TIP3    H264814   0.153   0.208   5.254 -0.4257  1.4731 -1.4282
14467TIP3   OH264815   0.943   3.545  16.866 -0.2458  0.0478 -0.5908
14467TIP3    H164816   1.013   3.583  16.813  0.9762  2.4988  2.5861
14467TIP3    H264817   0.987   3.509  16.942 -2.0674 -2.2116 -0.5604
14468TIP3   OH264818   4.590   1.436  13.105 -0.2896  0.4595  0.0043
14468TIP3    H164819   4.584   1.396  13.191  0.9385 -0.6318 -0.4030
14468TIP3    H264820   4.500   1.435  13.071 -0.5490 -0.3110  0.7261
14469TIP3   OH264821   4.750   1.931   4.752 -0.0621  0.7377 -0.2825
14469TIP3    H164822   4.755   1.858   4.814 -0.1006  0.7008 -0.3224
14469TIP3    H264823   4.794   2.003   4.796 -1.0596  1.0376  0.2511
14470TIP3   OH264824   1.276   2.404  13.333  0.5526  0.1639 -0.0873
14470TIP3    H164825   1.362   2.366  13.318  0.0551 -0.8308 -0.4121
14470TIP3    H264826   1.280   2.489  13.290  0.6714 -0.7462 -1.8894
14471TIP3   OH264827   6.452   3.928  14.567  0.2280 -0.8431 -0.4382
14471TIP3    H164828   6.440   3.902  14.658 -1.9820 -0.0944 -0.4809
14471TIP3    H264829   6.367   3.913  14.526  0.1399  2.2604 -1.5161
14472TIP3   OH264830   2.536   6.007   5.677 -0.3482  0.5910  0.3134
14472TIP3    H164831   2.617   6.056   5.662  0.3421 -0.9096 -1.0049
14472TIP3    H264832   2.467   6.073   5.674  0.3996  1.3535 -3.1081
14473TIP3   OH264833   6.346   1.401   5.520 -0.3045  0.4959  0.0929
14473TIP3    H164834   6.316   1.311   5.510  3.1365 -1.0194  2.3264
14473TIP3    H264835   6.347   1.417   5.614  0.9045  2.1979 -0.1708
14474TIP3   OH264836   0.136   0.438   1.947 -0.0500 -0.5614  0.0927
14474TIP3    H164837   0.118   0.512   2.006  2.0553 -0.8841  1.2005
14474TIP3    H264838   0.092   0.460   1.866 -1.0939  0.9956  1.0638
14475TIP3   OH264839   2.960   0.736   3.536 -0.3680 -0.1105 -0.7673
14475TIP3    H164840   2.931   0.786   3.612 -2.5075  0.1394 -1.6792
14475TIP3    H264841   2.947   0.644   3.561  0.0469 -0.0695 -0.4057
14476TIP3   OH264842   2.573   5.617   0.250  0.0056 -0.1246 -0.0000
14476TIP3    H164843   2.526   5.692   0.285 -0.5080 -0.9485  1.1072
14476TIP3    H264844   2.660   5.623   0.290 -0.4582 -0.8495  1.1446
14477TIP3   OH264845   5.825   0.365   4.011  0.4073  0.4615  0.2207
14477TIP3    H164846   5.846   0.417   4.088  0.4501  1.0237 -0.1697
14477TIP3    H264847   5.754   0.307   4.040  0.9157  0.1645  0.8841
14478TIP3   OH264848   6.326   0.753   4.515 -0.0421  0.6754  0.6724
14478TIP3    H164849   6.413   0.737   4.550 -0.0525  0.2139  0.4952
14478TIP3    H264850   6.342   0.789   4.428 -0.0267 -1.5704 -0.2900
14479TIP3   OH264851   0.868   6.567   4.637 -0.5900 -0.6419 -0.1871
14479TIP3    H164852   0.865   6.654   4.675 -1.6422 -0.3109 -1.0229
14479TIP3    H264853   0.962   6.550   4.623 -0.4197  0.5571 -0.5083
14480TIP3   OH264854   5.699   4.085   4.937  0.5492  0.4374  0.4520
14480TIP3    H164855   5.606   4.089   4.916  0.3657 -2.1538  0.5147
14480TIP3    H264856   5.743   4.079   4.852  0.6109  0.9108  0.4491
14481TIP3   OH264857   5.032   0.010  16.071 -0.8808 -0.3494  0.0318
14481TIP3    H164858   5.032   0.062  15.990 -0.1316  0.6771  0.6840
14481TIP3    H264859   4.943  -0.026  16.077 -0.6895 -1.1752 -1.7095
14482TIP3   OH264860   2.174   0.967  14.829  0.4414 -0.2096  0.1359
14482TIP3    H164861   2.209   0.926  14.908 -0.8717  0.5172  1.1040
14482TIP3    H264862   2.245   1.025  14.800  0.9955 -0.6067  0.6788
14483TIP3   OH264863   0.221   0.079   2.454  0.0254 -0.4050  0.4129
14483TIP3    H164864   0.222   0.046   2.365  0.5048 -1.5697  0.8454
14483TIP3    H264865   0.313   0.095   2.475 -0.1469  0.5645  0.4441
14484TIP3   OH264866   2.796   6.449   4.158  0.1510 -0.1266 -0.2313
14484TIP3    H164867   2.716   6.397   4.150 -0.7973  0.7167  2.9513
14484TIP3    H264868   2.825   6.435   4.249  1.8376  2.0860 -0.3843
14485TIP3   OH264869   6.038   6.035  11.045  0.3520  0.4595 -0.5994
14485TIP3    H164870   6.089   5.959  11.019 -0.1063 -0.0559  0.0043
14485TIP3    H264871   5.996   6.065  10.964  0.4559  0.0098 -0.8203
14486TIP3   OH264872   1.926   4.033  12.715 -0.1462 -0.3615  0.2532
14486TIP3    H164873   1.996   4.065  12.658 -0.7398  0.9344  0.2371
14486TIP3    H264874   1.968   3.967  12.770  0.5958 -1.1006 -1.1783
14487TIP3   OH264875   0.381   1.222   1.882  0.6024  0.1278  0.1792
14487TIP3    H164876   0.392   1.313   1.907  1.4614 -0.2967  1.3729
14487TIP3    H264877   0.361   1.225   1.788  0.6159  1.5304  0.2177
14488TIP3   OH264878   6.055   3.202  14.500 -0.0969 -0.1406  0.3954
14488TIP3    H164879   6.143   3.174  14.474 -0.0760  0.3471 -0.0780
14488TIP3    H264880   6.059   3.298  14.500 -0.5001 -0.1211  0.8315
14489TIP3   OH264881   2.278   2.879  16.273 -0.0554  0.1270  0.5063
14489TIP3    H164882   2.288   2.970  16.243  0.6672  0.2455  1.0806
14489TIP3    H264883   2.299   2.826  16.196 -0.0532  0.4436  0.2863
14490TIP3   OH264884   6.602   2.316   2.666  0.5801 -0.0868 -0.1549
14490TIP3    H164885   6.563   2.270   2.592 -0.3320 -2.0237  1.4761
14490TIP3    H264886   6.569   2.406   2.658 -1.5629 -0.8826 -0.6770
14491TIP3   OH264887   2.583   0.849  12.715  0.1223  0.6729 -0.2041
14491TIP3    H164888   2.549   0.875  12.800 -0.4749 -0.5341 -0.0696
14491TIP3    H264889   2.515   0.793  12.678  0.2854  1.3487 -1.5571
14492TIP3   OH264890   4.023   3.839   0.434 -0.0660  0.0894 -0.2010
14492TIP3    H164891   4.086   3.868   0.369 -0.3665  0.4272 -0.3465
14492TIP3    H264892   3.999   3.750   0.407 -0.5361  0.3979 -0.8204
14493TIP3   OH264893   0.077   2.066  11.345  0.7188  0.0227  0.0377
14493TIP3    H164894   0.062   1.975  11.374  0.2370  0.6294  1.7578
14493TIP3    H264895   0.003   2.084  11.287 -0.5003  0.0915  1.5838
14494TIP3   OH264896   3.557   6.288   2.939  0.3386  0.0159  0.5338
14494TIP3    H164897   3.492   6.317   3.003  1.7754  1.5842  1.3306
14494TIP3    H264898   3.587   6.203   2.973  0.9468  0.7441  1.8687
14495TIP3   OH264899   2.474   0.695  14.220 -0.6415  0.5784 -0.3223
14495TIP3    H164900   2.483   0.606  14.186 -2.8643  0.2542 -0.1706
14495TIP3    H264901   2.547   0.705  14.282 -0.9275 -1.4989  0.3957
14496TIP3   OH264902   0.516   1.678   4.902  0.1611 -0.4626 -0.0578
14496TIP3    H164903   0.420   1.674   4.900  0.1904 -1.7152  0.4491
14496TIP3    H264904   0.537   1.760   4.858 -1.0608 -1.4074 -2.5052
14497TIP3   OH264905   6.495   0.758  16.901 -0.2538  0.0109 -0.2234
14497TIP3    H164906   6.495   0.842  16.856  0.4551 -0.4769 -1.1520
14497TIP3    H264907   6.569   0.710  16.863  0.1864 -0.5159  1.2630
14498TIP3   OH264908   1.160   3.613  12.728  0.4835 -0.1673 -0.6640
14498TIP3    H164909   1.208   3.562  12.663 -0.1592 -0.7592 -0.6742
14498TIP3    H264910   1.103   3.550  12.771  0.3952  0.3567 -0.0066
14499TIP3   OH264911   1.838   5.054   2.204  0.3716  0.5469 -0.3316
14499TIP3    H164912   1.837   4.964   2.236 -1.1838 -0.2471 -2.5567
14499TIP3    H264913   1.781   5.102   2.265 -0.2099 -0.3435 -0.1671
14500TIP3   OH264914   1.565   1.658  13.352 -0.0592  0.2217  0.3630
14500TIP3    H164915   1.495   1.723  13.340 -0.3893 -0.2637 -0.4226
14500TIP3    H264916   1.574   1.617  13.265  1.0264  0.1068  0.5231
14501TIP3   OH264917   3.587   4.138  11.106 -0.1065 -0.1222  0.3941
14501TIP3    H164918   3.606   4.069  11.042 -0.2239 -0.5810  0.8500
14501TIP3    H264919   3.502   4.173  11.079  0.9044  1.2899 -1.0852
14502TIP3   OH264920   2.782   0.249  14.015  0.2078 -0.4623 -0.1860
14502TIP3    H164921   2.844   0.255  14.088 -0.9200 -1.4821  0.8799
14502TIP3    H264922   2.776   0.155  13.998 -0.6213 -0.3239 -0.6562
14503TIP3   OH264923   0.203   1.692   4.106 -0.4405 -0.0892  0.5787
14503TIP3    H164924   0.142   1.679   4.034  1.8348 -1.6452 -1.1118
14503TIP3    H264925   0.152   1.672   4.184 -2.4341 -0.1594 -0.7144
14504TIP3   OH264926   6.345   2.211   1.746 -0.1879 -0.5585 -0.3068
14504TIP3    H164927   6.350   2.119   1.723  0.6260 -0.5282 -0.2612
14504TIP3    H264928   6.367   2.258   1.665  0.1413 -0.4142 -0.1340
14505TIP3   OH264929   3.834   3.195   0.215  0.5602 -0.4307 -0.0714
14505TIP3    H164930   3.814   3.106   0.186 -0.2808 -0.6099  1.0252
14505TIP3    H264931   3.761   3.218   0.271  0.0253  1.5164 -1.5240
14506TIP3   OH264932   6.554   0.189  12.984 -0.0963  0.4029 -0.6599
14506TIP3    H164933   6.544   0.153  12.896  0.6565  0.7853 -0.8964
14506TIP3    H264934   6.497   0.266  12.985 -0.9161 -0.1932 -0.4740
14507TIP3   OH264935   1.385   4.468   2.941  0.1556  0.2573  0.1148
14507TIP3    H164936   1.467   4.452   2.987  0.4463  3.2345  0.7439
14507TIP3    H264937   1.407   4.534   2.876 -1.4879  0.1606 -0.5574
14508TIP3   OH264938   3.255   3.104   2.901  0.1799  0.4124  0.2006
14508TIP3    H164939   3.221   3.127   2.988  1.1420  2.5849  0.0479
14508TIP3    H264940   3.345   3.137   2.901  0.8035 -1.1877 -1.0033
14509TIP3   OH264941   2.798   2.603   6.763  0.1617 -0.0242  0.3381
14509TIP3    H164942   2.769   2.694   6.760 -0.5846 -0.1332  2.6257
14509TIP3    H264943   2.751   2.560   6.692 -1.5766  0.8409  0.9238
14510TIP3   OH264944   3.418   2.807  16.700  0.0106  0.4380 -0.1369
14510TIP3    H164945   3.454   2.865  16.633 -0.7756  1.1577  0.0691
14510TIP3    H264946   3.362   2.747  16.651 -0.0451  0.5469 -0.2061
14511TIP3   OH264947   1.859   0.444  12.520 -0.0216  0.0863  0.0873
14511TIP3    H164948   1.790   0.496  12.479 -0.5696  1.2603  2.4139
14511TIP3    H264949   1.824   0.355  12.522 -0.5021  0.2482 -0.8239
14512TIP3   OH264950   5.373   4.940   3.366  0.1368  0.4279 -0.3655
14512TIP3    H164951   5.317   5.001   3.320 -1.4152 -1.3188 -0.8322
14512TIP3    H264952   5.398   4.986   3.446 -2.9553  0.7903  0.4375
14513TIP3   OH264953   3.905   4.809   6.292  0.4171  0.1730  0.6114
14513TIP3    H164954   3.831   4.852   6.248  1.4127  1.2362 -0.0650
14513TIP3    H264955   3.884   4.814   6.385 -1.9446 -2.5134  0.2891
14514TIP3   OH264956   4.460   1.371  13.380 -0.1266  0.2584 -0.0691
14514TIP3    H164957   4.477   1.292  13.330 -0.7523 -0.2266  0.4731
14514TIP3    H264958   4.365   1.384  13.373 -0.0923  0.6948  0.2402
14515TIP3   OH264959   1.757   2.875  11.798  0.3307 -0.4310 -0.3591
14515TIP3    H164960   1.787   2.796  11.754  1.7842  0.3442 -0.7895
14515TIP3    H264961   1.807   2.946  11.758 -1.1195  0.7491 -0.1433
14516TIP3   OH264962   2.787   2.206  11.809 -0.3343 -0.6956 -0.1504
14516TIP3    H164963   2.790   2.301  11.798 -2.0000 -0.8225 -1.8941
14516TIP3    H264964   2.709   2.178  11.761 -0.4174 -2.8416  1.1687
14517TIP3   OH264965   5.642   5.520   6.263  0.1455  0.1704 -0.7526
14517TIP3    H164966   5.722   5.571   6.265 -0.1876  0.6626  2.7369
14517TIP3    H264967   5.650   5.459   6.336 -2.1773 -0.5048 -1.0045
14518TIP3   OH264968   6.443   0.680  12.767 -0.0141 -0.6882  0.0376
14518TIP3    H164969   6.517   0.720  12.813  1.0454 -1.4123 -0.9948
14518TIP3    H264970   6.478   0.597  12.733 -0.9333 -0.4604 -1.5295
14519TIP3   OH264971   1.575   1.608   5.453 -0.1034 -0.5659 -0.0589
14519TIP3    H164972   1.517   1.656   5.395  0.5724  0.4147  0.0581
14519TIP3    H264973   1.570   1.517   5.423 -1.6867 -0.4999 -0.0400
14520TIP3   OH264974   6.607   6.212   5.785  0.2771  0.2445 -0.5018
14520TIP3    H164975   6.650   6.158   5.851  0.3074  0.7078 -0.1360
14520TIP3    H264976   6.525   6.238   5.825  1.2087  2.2448  0.2012
14521TIP3   OH264977   6.702   4.016   3.889 -0.2669 -0.5151  0.2351
14521TIP3    H164978   6.724   4.105   3.861  2.2325 -1.0506  0.3709
14521TIP3    H264979   6.746   3.960   3.825 -0.7345 -1.6688  0.9149
14522TIP3   OH264980   6.582   1.664  13.993 -0.2005 -0.4174 -0.0148
14522TIP3    H164981   6.526   1.708  13.930  0.4935 -0.9020 -1.0034
14522TIP3    H264982   6.577   1.717  14.072 -0.5546  0.5916 -0.7021
14523TIP3   OH264983   2.312   5.400  17.131  0.0805  0.0302  0.7041
14523TIP3    H164984   2.232   5.347  17.139  1.2706 -2.5227 -2.9029
14523TIP3    H264985   2.373   5.360  17.193  0.2568 -1.5246 -0.4318
14524TIP3   OH264986   5.724   4.246   4.058 -0.1157  0.4255  0.2043
14524TIP3    H164987   5.661   4.176   4.041  0.4413 -0.0979  0.2612
14524TIP3    H264988   5.800   4.223   4.004 -0.1190  1.2516 -0.1511
14525TIP3   OH264989   0.104   6.038  15.335  0.2257  0.0207  0.9522
14525TIP3    H164990   0.015   6.049  15.369  0.8670 -1.0071  3.0472
14525TIP3    H264991   0.154   6.002  15.408  1.7453 -2.0570 -1.0085
14526TIP3   OH264992   0.472   0.564   6.050  0.1210  0.1398 -0.4990
14526TIP3    H164993   0.563   0.590   6.064 -0.0652  0.6026 -0.1595
14526TIP3    H264994   0.449   0.514   6.129  0.1762 -0.2357 -0.7196
14527TIP3   OH264995   6.778   6.677   1.796 -0.2427  0.3707  0.3927
14527TIP3    H164996   6.733   6.746   1.748  0.1977 -0.1825 -0.8354
14527TIP3    H264997   6.807   6.616   1.728  0.4122 -0.4025  1.3623
14528TIP3   OH264998   1.049   3.913  15.347 -0.0849 -0.8002 -0.2460
14528TIP3    H164999   1.070   3.990  15.400 -3.1001 -1.4289  2.0117
14528TIP3    H265000   0.984   3.944  15.284 -0.4046 -1.1986 -0.1184
14529TIP3   OH265001   3.938   0.438   2.769 -0.0670 -0.2405  0.3751
14529TIP3    H165002   3.910   0.367   2.827 -0.4527  0.4809  1.0828
14529TIP3    H265003   3.890   0.423   2.688 -0.7567 -0.3318  0.8003
14530TIP3   OH265004   6.167   3.578   5.800  0.2376  0.6884 -0.9478
14530TIP3    H165005   6.133   3.543   5.882 -0.1941  0.6108 -1.1574
14530TIP3    H265006   6.239   3.635   5.826  1.1798 -0.6256 -0.6260
14531TIP3   OH265007   0.055   2.737   3.356 -0.4349  0.0600 -0.0442
14531TIP3    H165008   0.027   2.657   3.401  0.7664 -0.0606  0.5189
14531TIP3    H265009   0.000   2.741   3.278 -0.3269 -1.4634 -0.2208
14532TIP3   OH265010   2.887   5.809   5.218  0.3718 -0.1906  0.0957
14532TIP3    H165011   2.847   5.890   5.249 -0.8815 -1.4862  1.9294
14532TIP3    H265012   2.973   5.837   5.184 -0.1094  1.9073  0.5158
14533TIP3   OH265013   3.697   2.129  13.005 -0.5323  0.0834  0.3163
14533TIP3    H165014   3.677   2.058  12.944 -1.1241  0.8588 -0.4181
14533TIP3    H265015   3.789   2.116  13.029 -0.3698 -0.3879 -0.5466
14534TIP3   OH265016   4.794   0.381  15.014 -0.5068 -0.4386 -0.3831
14534TIP3    H165017   4.709   0.372  14.970 -0.2921 -3.2727 -0.3202
14534TIP3    H265018   4.778   0.354  15.104  0.2446  0.0785 -0.0865
14535TIP3   OH265019   1.914   5.061  11.022 -0.2230 -0.0366 -0.1272
14535TIP3    H165020   1.910   4.994  10.954 -1.1866 -0.6115  0.4781
14535TIP3    H265021   1.826   5.062  11.060  0.2105  0.5071  0.8859
14536TIP3   OH265022   2.846   3.101   2.514 -0.0496  0.0315 -0.1738
14536TIP3    H165023   2.896   3.089   2.595 -1.1018 -1.3368  0.2929
14536TIP3    H265024   2.826   3.195   2.512  2.9379  0.6994 -0.6354
14537TIP3   OH265025   0.568   1.136   5.131  0.4899  0.6701  0.1182
14537TIP3    H165026   0.524   1.053   5.147  1.1382  0.2786 -0.0853
14537TIP3    H265027   0.594   1.167   5.218  0.2322  0.6667  0.1952
14538TIP3   OH265028   4.254   6.560   1.591  0.1878  0.2763 -0.1639
14538TIP3    H165029   4.198   6.528   1.521  2.7310 -0.1284 -2.0907
14538TIP3    H265030   4.225   6.512   1.669 -1.8731 -0.1513 -1.1567
14539TIP3   OH265031   2.162   3.134  12.601 -0.0819  0.0997 -0.3615
14539TIP3    H165032   2.196   3.058  12.553  0.7492  0.0263  0.3328
14539TIP3    H265033   2.143   3.100  12.689 -1.0450  0.3651 -0.4647
14540TIP3   OH265034   3.758   1.313   4.187 -0.1622 -0.2812 -0.1550
14540TIP3    H165035   3.696   1.371   4.231 -1.1368 -0.4037 -1.3440
14540TIP3    H265036   3.752   1.231   4.236 -1.1919 -0.3984 -0.4668
14541TIP3   OH265037   2.801   1.901   5.033 -0.1366  0.2493  0.1173
14541TIP3    H165038   2.843   1.815   5.032 -0.2797  0.1509  1.2442
14541TIP3    H265039   2.708   1.883   5.025 -0.1382  0.3178 -0.0116
14542TIP3   OH265040   1.515   0.908  13.973 -0.3053  0.4021  0.7088
14542TIP3    H165041   1.431   0.931  14.015 -1.2643 -1.4260 -0.1428
14542TIP3    H265042   1.575   0.896  14.046 -1.6853 -1.6757  1.5466
14543TIP3   OH265043   4.586   5.980  10.965  0.3551 -0.0416  0.1561
14543TIP3    H165044   4.631   6.003  11.047 -2.3895 -1.0671  2.0383
14543TIP3    H265045   4.507   6.034  10.965 -1.3100 -2.3717 -0.1463
14544TIP3   OH265046   5.642   5.156   1.234 -0.0411  0.1030  0.1654
14544TIP3    H165047   5.661   5.238   1.280  0.7281  0.0279 -0.0136
14544TIP3    H265048   5.693   5.161   1.153  0.3762 -0.7613  0.3736
14545TIP3   OH265049   1.382   2.363  16.192 -0.1728  0.1791  0.3724
14545TIP3    H165050   1.329   2.294  16.153  0.0373  0.4790 -0.4524
14545TIP3    H265051   1.471   2.345  16.160 -0.2298  1.2065 -0.3674
14546TIP3   OH265052   2.214   6.389   1.650  0.0702 -0.3107 -0.2195
14546TIP3    H165053   2.259   6.378   1.567  2.7298  2.9962  0.6752
14546TIP3    H265054   2.156   6.463   1.637 -0.3421 -0.4910  0.5479
14547TIP3   OH265055   0.418   1.810  13.657  0.5675 -0.4029  0.4419
14547TIP3    H165056   0.474   1.881  13.687  1.6653 -0.3736 -1.6454
14547TIP3    H265057   0.459   1.778  13.577 -1.9233 -0.9629 -0.6515
14548TIP3   OH265058   1.387   0.874   5.407 -0.1739 -0.0408  0.4555
14548TIP3    H165059   1.432   0.791   5.420  1.9902  1.1439  0.7813
14548TIP3    H265060   1.377   0.910   5.496 -1.1846  0.0098  0.3285
14549TIP3   OH265061   6.411   3.704  12.664 -0.4587  0.2198 -0.4547
14549TIP3    H165062   6.489   3.669  12.707 -1.6634 -0.4053  1.2360
14549TIP3    H265063   6.423   3.799  12.667 -0.6065  0.1917  1.4086
14550TIP3   OH265064   6.074   2.781   4.954  0.3379  0.5388  0.5238
14550TIP3    H165065   6.141   2.781   5.024  1.7645 -0.3094 -0.8073
14550TIP3    H265066   6.034   2.695   4.960  2.4877 -0.6738 -1.5407
14551TIP3   OH265067   2.210   2.120  13.481  0.2531  0.4941 -0.9253
14551TIP3    H165068   2.288   2.162  13.517 -0.8888  0.9584  1.0971
14551TIP3    H265069   2.233   2.027  13.480  1.3880  0.7705 -1.8006
14552TIP3   OH265070   5.245   4.928   4.475 -0.3746 -0.2293  0.2335
14552TIP3    H165071   5.175   4.955   4.534 -0.2102 -0.9229  0.7560
14552TIP3    H265072   5.319   4.982   4.498 -0.8883  0.8930 -0.6915
14553TIP3   OH265073   1.307   6.017   3.919  0.1579  0.0872 -0.1220
14553TIP3    H165074   1.304   5.930   3.880  2.5597 -0.4870  0.8797
14553TIP3    H265075   1.255   6.010   3.998  0.5196 -0.5125  0.0651
14554TIP3   OH265076   0.486   2.163  13.975  0.3942  0.1130 -0.4654
14554TIP3    H165077   0.500   2.185  13.882 -0.9492  0.2140 -0.6522
14554TIP3    H265078   0.459   2.246  14.015  2.0477  0.3275  0.2612
14555TIP3   OH265079   1.841   1.812  17.236  0.1687 -0.2393 -0.1310
14555TIP3    H165080   1.829   1.845  17.147  0.3803 -0.3394 -0.1959
14555TIP3    H265081   1.759   1.766  17.256  0.7217 -1.5285 -0.8308
14556TIP3   OH265082   2.915   2.016  10.593  0.3793  0.6236  0.8816
14556TIP3    H165083   2.861   2.094  10.578  0.6344  0.5737 -0.3476
14556TIP3    H265084   3.005   2.046  10.583  0.4242 -0.1496 -1.2222
14557TIP3   OH265085   5.653   0.288  11.957 -0.1577  0.2777  0.0353
14557TIP3    H165086   5.658   0.359  11.892  0.1494  1.3907  1.2461
14557TIP3    H265087   5.611   0.216  11.910 -2.2642  1.9083 -0.6939
14558TIP3   OH265088   2.694   2.338  16.966  0.3798 -0.1184 -0.0959
14558TIP3    H165089   2.682   2.404  17.034 -0.5776  0.0899 -0.4687
14558TIP3    H265090   2.788   2.321  16.966  0.1720 -1.7679  2.8734
14559TIP3   OH265091   3.665   6.513   3.050  0.8402 -0.3076  0.1656
14559TIP3    H165092   3.621   6.582   3.002  2.5768  0.3846 -0.4765
14559TIP3    H265093   3.659   6.436   2.994  1.2636  0.0235 -0.3306
14560TIP3   OH265094   1.453   6.780  11.618  0.3621 -0.1525  0.2670
14560TIP3    H165095   1.530   6.804  11.567  0.3940 -0.2966  0.2470
14560TIP3    H265096   1.476   6.698  11.660 -0.1930 -0.8088 -0.6731
14561TIP3   OH265097   6.323   3.744  15.613  0.0172 -0.0830 -0.5326
14561TIP3    H165098   6.294   3.681  15.547 -1.1686  0.6202 -0.6861
14561TIP3    H265099   6.352   3.820  15.562  1.1501 -0.3711 -0.3326
14562TIP3   OH265100   4.469   1.646   5.579  0.2299 -0.0790 -0.1764
14562TIP3    H165101   4.452   1.705   5.506 -0.5762 -2.3121 -1.8577
14562TIP3    H265102   4.383   1.614   5.606  0.6169 -0.2130  0.9683
14563TIP3   OH265103   6.606   4.713   0.337  0.2401 -0.3171 -0.2779
14563TIP3    H165104   6.634   4.622   0.344  3.0938  0.7495  2.8375
14563TIP3    H265105   6.533   4.721   0.399 -1.0563 -0.8093 -1.6970
14564TIP3   OH265106   6.783   2.013   3.465  0.7889 -0.5060  0.1656
14564TIP3    H165107   6.704   2.015   3.520  0.3053  0.4166 -0.5493
14564TIP3    H265108   6.773   1.933   3.413 -0.4430  0.4117 -1.0290
14565TIP3   OH265109   3.850   4.874  15.018 -0.5596 -0.3672  0.2036
14565TIP3    H165110   3.816   4.794  14.978 -3.9265  0.2031  1.7653
14565TIP3    H265111   3.822   4.944  14.960 -2.9665  0.1877  1.9489
14566TIP3   OH265112   2.168   0.583   1.158 -0.0478  0.4395  0.0131
14566TIP3    H165113   2.183   0.613   1.248 -1.2881 -0.4005  0.5150
14566TIP3    H265114   2.081   0.542   1.161  1.1792 -2.3958 -0.8246
14567TIP3   OH265115   1.493   0.595   0.219  0.0483 -0.2608  0.2123
14567TIP3    H165116   1.580   0.568   0.250 -0.0106  1.1493  1.6506
14567TIP3    H265117   1.498   0.690   0.211 -1.1272 -0.2436 -0.4500
14568TIP3   OH265118   0.092   3.984  13.587 -0.2880  0.0183  0.1006
14568TIP3    H165119   0.097   3.892  13.615  0.0833  0.0724  0.2170
14568TIP3    H265120  -0.001   3.998  13.568 -0.3369 -0.4037  0.0111
14569TIP3   OH265121   0.040   6.749   5.430  0.2402  0.0599 -0.4060
14569TIP3    H165122   0.032   6.798   5.348 -2.0441 -0.5340 -0.5683
14569TIP3    H265123   0.022   6.814   5.498 -0.6019 -0.0562 -0.5140
14570TIP3   OH265124   6.162   1.273   4.273  0.2018 -0.2109 -0.2168
14570TIP3    H165125   6.173   1.276   4.368 -0.9445  1.4928 -0.1259
14570TIP3    H265126   6.076   1.233   4.260 -0.8006  1.9449 -0.4374
14571TIP3   OH265127   5.591   2.026  13.915  0.0023 -0.4010  0.5055
14571TIP3    H165128   5.646   2.084  13.862  0.5697 -0.3576  1.1283
14571TIP3    H265129   5.598   1.941  13.871 -0.9617  0.0310 -0.4992
14572TIP3   OH265130   0.026   1.767   3.050  0.2961  0.0260  0.0137
14572TIP3    H165131  -0.024   1.848   3.053  0.0340 -0.0995 -0.9197
14572TIP3    H265132  -0.039   1.699   3.034  0.3770 -0.4976  1.7514
14573TIP3   OH265133   6.414   6.278  11.471  0.3588  0.3418 -0.4365
14573TIP3    H165134   6.335   6.331  11.465  0.8501  1.0939 -0.2468
14573TIP3    H265135   6.387   6.201  11.522 -0.0087  1.0484  0.4403
14574TIP3   OH265136   0.389   3.716  17.070  0.1023 -0.3978 -0.3225
14574TIP3    H165137   0.361   3.800  17.036  0.4932 -0.5969 -1.1523
14574TIP3    H265138   0.389   3.658  16.994 -0.1419 -1.1359  0.2375
14575TIP3   OH265139   4.919   4.814   2.115 -0.0284 -0.8445 -0.2201
14575TIP3    H165140   4.915   4.726   2.152 -0.6628 -0.2120  1.2692
14575TIP3    H265141   5.008   4.844   2.131  0.0487 -1.0331 -0.2994
14576TIP3   OH265142   6.028   0.031   3.180 -0.1648  0.3632  0.5455
14576TIP3    H165143   6.121   0.021   3.200 -0.0988  1.6502  0.9251
14576TIP3    H265144   5.999   0.103   3.235 -1.5396 -0.4206  0.8673
14577TIP3   OH265145   5.999   3.861  14.975 -0.0529  0.0571  0.3237
14577TIP3    H165146   5.989   3.809  15.055 -1.0827 -0.9436 -0.4321
14577TIP3    H265147   6.050   3.937  15.002  1.0384 -1.0938  1.5751
14578TIP3   OH265148   1.242   2.340   5.920 -0.1397  0.2303 -0.1742
14578TIP3    H165149   1.225   2.428   5.956 -0.8896 -0.3069  0.8091
14578TIP3    H265150   1.330   2.319   5.950 -0.9660 -0.4440  1.8725
14579TIP3   OH265151   6.546   5.581   2.260  0.1227 -0.2064  0.4369
14579TIP3    H165152   6.524   5.519   2.190 -0.9362  0.9826 -0.2949
14579TIP3    H265153   6.614   5.536   2.311  1.3508 -0.8474 -1.6985
14580TIP3   OH265154   1.225   0.161   1.433 -0.2988  0.3994  0.3004
14580TIP3    H165155   1.160   0.208   1.381 -1.0754 -0.4456  0.5017
14580TIP3    H265156   1.304   0.163   1.380 -0.9974 -0.1734 -0.7739
14581TIP3   OH265157   1.756   5.724   5.456 -0.2452 -0.1366 -0.1604
14581TIP3    H165158   1.701   5.803   5.459  1.9451  1.5073 -1.5754
14581TIP3    H265159   1.751   5.694   5.365  2.4935  1.0556 -0.7679
14582TIP3   OH265160   5.769   2.684   3.681  0.0510 -0.1711 -0.2061
14582TIP3    H165161   5.748   2.746   3.751  2.6306 -1.2882  1.6159
14582TIP3    H265162   5.758   2.598   3.722 -0.7182 -0.9020 -1.8950
14583TIP3   OH265163   6.606   3.513   6.340  0.1986 -0.1819  0.4058
14583TIP3    H165164   6.571   3.600   6.322 -4.6425 -1.6083  2.0877
14583TIP3    H265165   6.625   3.514   6.433  1.2236 -0.5933  0.2060
14584TIP3   OH265166   1.693   2.538  13.267  0.1516  0.0561 -0.0340
14584TIP3    H165167   1.786   2.526  13.285 -0.1599 -0.6814  1.1669
14584TIP3    H265168   1.687   2.627  13.231  1.1241  0.7210  1.4015
14585TIP3   OH265169   2.973   5.813  12.292  0.3109 -0.3699 -0.1768
14585TIP3    H165170   2.976   5.736  12.236 -0.9986 -0.3601 -0.2823
14585TIP3    H265171   3.020   5.881  12.243  2.3145 -1.3422  0.3388
14586TIP3   OH265172   6.036   1.072  17.085 -0.0673  0.5085  0.3358
14586TIP3    H165173   6.052   0.996  17.030 -1.2124  0.4037  0.1380
14586TIP3    H265174   5.953   1.107  17.054  0.5240  1.9316  0.3284
14587TIP3   OH265175   0.100   2.400   3.254  0.0096  0.0686  0.0782
14587TIP3    H165176   0.156   2.452   3.312 -1.7433  0.2051  1.6856
14587TIP3    H265177   0.149   2.319   3.240  1.3035  0.8088  0.1586
14588TIP3   OH265178   1.472   1.675   1.601  0.4506 -0.4656 -0.3527
14588TIP3    H165179   1.563   1.686   1.575  0.7857 -2.5138 -0.1153
14588TIP3    H265180   1.470   1.700   1.693  0.8227 -0.7467 -0.2722
14589TIP3   OH265181   0.293   6.779   0.031 -0.5471 -0.9028  0.3721
14589TIP3    H165182   0.294   6.686   0.008  0.0877 -0.8477  0.1667
14589TIP3    H265183   0.345   6.785   0.110 -0.2601 -0.6663  0.1664
14590TIP3   OH265184   1.904   3.096  16.027 -0.5683 -0.1502  0.4168
14590TIP3    H165185   1.868   3.183  16.011  1.5892  0.3488 -2.0211
14590TIP3    H265186   1.964   3.107  16.101 -0.2570  0.4587  0.0737
14591TIP3   OH265187   5.255   5.680   1.649 -0.1690  0.0115 -0.0182
14591TIP3    H165188   5.223   5.627   1.722  0.6129  0.1549  0.4351
14591TIP3    H265189   5.317   5.623   1.604  0.4569  0.4335  0.3005
14592TIP3   OH265190   2.585   6.396   5.632 -0.4795 -0.0234  0.7944
14592TIP3    H165191   2.645   6.425   5.564 -1.0204 -1.4937 -0.3294
14592TIP3    H265192   2.633   6.408   5.714  1.9625 -2.6837 -0.1955
14593TIP3   OH265193   2.482   0.004  13.703  0.4588 -0.5146 -0.1655
14593TIP3    H165194   2.390  -0.016  13.720  0.5432 -2.8541 -2.1129
14593TIP3    H265195   2.480   0.090  13.660 -0.5804  0.5459  1.9395
14594TIP3   OH265196   5.266   3.980  12.861  0.0347 -0.0934  0.5243
14594TIP3    H165197   5.354   4.011  12.839 -0.4724  1.5483  0.7103
14594TIP3    H265198   5.208   4.047  12.824 -1.2088 -1.9925 -1.0189
14595TIP3   OH265199   3.184   3.845   5.645  0.1954 -0.2324 -0.1287
14595TIP3    H165200   3.259   3.904   5.645  0.4448 -0.5281  1.6585
14595TIP3    H265201   3.112   3.898   5.613  1.0084  0.2581 -1.1814
14596TIP3   OH265202   5.095   5.915  14.654  0.8170 -0.7872  0.3745
14596TIP3    H165203   5.108   5.958  14.739 -3.0534  0.6218  0.3585
14596TIP3    H265204   5.045   5.835  14.676 -0.4515 -0.2677 -0.5615
14597TIP3   OH265205   4.014   1.228   3.886  0.3446  0.3502  0.4061
14597TIP3    H165206   4.054   1.142   3.894 -1.1265 -0.3001  1.0086
14597TIP3    H265207   3.926   1.217   3.923  0.4471  2.3287  1.3040
14598TIP3   OH265208   4.658   4.435  12.715  0.0040 -0.5232  0.5335
14598TIP3    H165209   4.747   4.457  12.688  0.1046 -1.2723  0.2380
14598TIP3    H265210   4.603   4.502  12.675  0.6453  1.2840  2.5783
14599TIP3   OH265211   5.499   6.104  11.703 -0.3732  0.4912  0.3153
14599TIP3    H165212   5.459   6.186  11.733  0.0772  0.1031  2.0011
14599TIP3    H265213   5.430   6.062  11.652 -1.8625  0.2460  2.4601
14600TIP3   OH265214   6.118   5.136  13.970 -0.4229 -0.2941 -0.3350
14600TIP3    H165215   6.206   5.152  13.936  0.0394 -0.8718  0.5675
14600TIP3    H265216   6.092   5.052  13.932 -0.4595 -0.2744 -0.3547
14601TIP3   OH265217   3.448   5.184  15.895  0.5356 -0.4283  0.0320
14601TIP3    H165218   3.451   5.213  15.804  2.4132  0.5213  0.3634
14601TIP3    H265219   3.436   5.265  15.945  3.3499 -0.4428  0.8208
14602TIP3   OH265220   3.715   4.196  11.985  0.5639  0.2554  0.2923
14602TIP3    H165221   3.664   4.174  11.907  1.5149  0.7120 -0.4746
14602TIP3    H265222   3.760   4.115  12.007 -1.3187 -0.4638  1.6362
14603TIP3   OH265223   2.933   6.495  14.109  0.5286 -0.4848  0.1628
14603TIP3    H165224   2.896   6.482  14.196  1.3695  0.5856  0.7039
14603TIP3    H265225   2.971   6.584  14.112 -2.1129  0.8076 -2.2446
14604TIP3   OH265226   6.035   5.490  14.163  0.8386  0.0686 -0.4312
14604TIP3    H165227   6.011   5.469  14.073  1.2183 -0.0253 -0.5139
14604TIP3    H265228   6.056   5.405  14.202  0.8643  0.1308 -0.3123
14605TIP3   OH265229   6.215   2.069  16.129  0.1409 -0.5214 -0.2049
14605TIP3    H165230   6.266   2.006  16.181  0.4466 -0.3134 -0.2561
14605TIP3    H265231   6.146   2.016  16.089  1.9957 -1.3360 -2.4465
14606TIP3   OH265232   3.279   3.304   5.613 -0.4091  0.2823 -0.4825
14606TIP3    H165233   3.356   3.346   5.650  0.6437  0.8263 -3.1324
14606TIP3    H265234   3.232   3.375   5.569 -2.5923 -0.0008  1.3336
14607TIP3   OH265235   5.735   5.490  11.646 -1.1756 -0.2583  0.0132
14607TIP3    H165236   5.775   5.481  11.732 -0.2630 -0.5832 -0.4367
14607TIP3    H265237   5.777   5.423  11.592 -0.1824  1.3183 -1.2359
14608TIP3   OH265238   4.485   4.210  15.228  0.5355  0.2681  0.3207
14608TIP3    H165239   4.408   4.190  15.176  0.2776  0.7107  0.5252
14608TIP3    H265240   4.545   4.137  15.213  1.3477  1.3835 -2.2883
14609TIP3   OH265241   4.965   1.406  12.447 -0.4799 -0.1825 -0.4217
14609TIP3    H165242   4.943   1.497  12.468 -0.5464 -0.2088 -0.3767
14609TIP3    H265243   4.990   1.408  12.355 -3.5776 -0.6514 -1.3285
14610TIP3   OH265244   2.780   4.460  16.302  0.2533  0.1371  0.0495
14610TIP3    H165245   2.854   4.519  16.312  0.4293 -0.2245  0.9303
14610TIP3    H265246   2.790   4.423  16.214  1.7846 -0.8078  0.6090
14611TIP3   OH265247   6.362   6.730  13.797  0.1850  0.4214  0.3874
14611TIP3    H165248   6.279   6.687  13.818 -0.1689  1.0819  0.3496
14611TIP3    H265249   6.428   6.661  13.807 -0.3134  0.0126  0.8682
14612TIP3   OH265250   3.702   3.146   2.264 -0.0024  0.1924 -0.6867
14612TIP3    H165251   3.763   3.166   2.335 -1.6939  0.7399  0.6508
14612TIP3    H265252   3.640   3.084   2.303  0.7323 -1.7789 -2.5615
14613TIP3   OH265253   0.283   5.102   5.383  0.0851 -0.0064 -0.5144
14613TIP3    H165254   0.325   5.112   5.468  0.4385  2.3973 -0.9349
14613TIP3    H265255   0.320   5.172   5.330 -0.1376 -1.4678 -2.6664
14614TIP3   OH265256   6.566   5.803   0.038  0.0281 -0.1937  0.0938
14614TIP3    H165257   6.522   5.807  -0.047  1.1749  0.2564 -0.4987
14614TIP3    H265258   6.577   5.709   0.055 -0.7293 -0.2972  0.0249
14615TIP3   OH265259   3.554   2.782   6.393 -0.1812 -0.7952  0.0150
14615TIP3    H165260   3.531   2.875   6.393  1.5407 -0.3416 -0.1111
14615TIP3    H265261   3.502   2.745   6.464  0.7074  0.7072  1.4988
14616TIP3   OH265262   5.713   3.316  12.105 -0.2139  0.1396  0.6714
14616TIP3    H165263   5.690   3.233  12.147 -1.2588  0.3063  0.4320
14616TIP3    H265264   5.809   3.320  12.112 -0.3297 -0.0013  2.6955
14617TIP3   OH265265   3.429   2.677   3.228  0.8857  0.0841 -0.0124
14617TIP3    H165266   3.430   2.741   3.158 -0.1993  1.0904  0.8781
14617TIP3    H265267   3.336   2.662   3.247  1.1057 -2.0366 -0.4572
14618TIP3   OH265268   3.928   1.990  13.084 -0.1361 -0.2729  0.4819
14618TIP3    H165269   3.998   2.000  13.020 -0.4928 -2.2813 -0.2663
14618TIP3    H265270   3.973   1.978  13.168  0.3408  1.7941  0.5482
14619TIP3   OH265271   1.805   2.587   0.175 -0.6705  0.4923 -0.0071
14619TIP3    H165272   1.780   2.667   0.130 -0.9115  0.9577  0.9515
14619TIP3    H265273   1.756   2.518   0.130  0.3511  0.7340 -1.5242
14620TIP3   OH265274   2.636   3.063  13.374 -0.2562  0.5594 -0.3327
14620TIP3    H165275   2.725   3.091  13.353 -0.1811  0.1129 -0.6011
14620TIP3    H265276   2.599   3.137  13.423  0.9891 -0.1688  1.7457
14621TIP3   OH265277   4.643   5.433   5.023  0.0913  0.2421  0.1612
14621TIP3    H165278   4.630   5.411   4.931 -0.3062  1.4342 -0.0705
14621TIP3    H265279   4.738   5.445   5.032  0.0495  0.8987 -0.2711
14622TIP3   OH265280   1.913   1.367  11.492  0.3188 -0.4188  0.3660
14622TIP3    H165281   1.885   1.346  11.581 -0.0211  0.4103  0.4616
14622TIP3    H265282   1.834   1.404  11.450  0.5320 -0.6049 -0.2099
14623TIP3   OH265283   0.895   2.571   6.140  0.0678 -0.0968 -0.6566
14623TIP3    H165284   0.962   2.506   6.160 -1.4243 -1.2990  0.5476
14623TIP3    H265285   0.902   2.635   6.211 -1.2968 -1.2361  0.5387
14624TIP3   OH265286   6.589   0.052  15.572  0.4374 -0.5141  0.7938
14624TIP3    H165287   6.553   0.044  15.484 -1.0593  0.8205  1.2578
14624TIP3    H265288   6.517   0.024  15.630  0.9610 -0.1371  1.6413
14625TIP3   OH265289   1.822   6.013   5.088 -0.1434  0.4359 -0.1727
14625TIP3    H165290   1.788   5.935   5.132 -0.9154 -0.1200 -1.7229
14625TIP3    H265291   1.905   6.031   5.132 -0.7657 -0.2610  1.3238
14626TIP3   OH265292   5.692   2.193   6.004 -0.1198 -0.4947  0.2272
14626TIP3    H165293   5.705   2.100   5.984 -0.1913 -0.4642  0.0404
14626TIP3    H265294   5.598   2.202   6.017 -0.1054 -0.4606  0.3051
14627TIP3   OH265295   6.220   3.022   2.734  0.2758 -0.1916  0.3817
14627TIP3    H165296   6.155   3.083   2.768  0.3201 -0.3332  0.7189
14627TIP3    H265297   6.183   2.992   2.651  0.6098  0.8850 -0.1694
14628TIP3   OH265298   1.249   0.997   1.830 -1.2450 -0.0090 -0.4600
14628TIP3    H165299   1.329   0.984   1.881 -2.0286  2.0845  1.3859
14628TIP3    H265300   1.178   0.966   1.887 -1.7136 -3.1914 -2.6338
14629TIP3   OH265301   6.317   5.604  15.555  0.2339  0.3970 -0.2112
14629TIP3    H165302   6.377   5.664  15.598  0.4737  1.2875 -1.7501
14629TIP3    H265303   6.348   5.599  15.465 -1.0030 -0.4307 -0.6132
14630TIP3   OH265304   5.415   5.719  16.778  0.4526 -0.0752 -0.1574
14630TIP3    H165305   5.439   5.812  16.783  2.3209 -0.5785  0.8175
14630TIP3    H265306   5.486   5.680  16.728 -0.0922 -1.0588 -0.1578
14631TIP3   OH265307   5.747   3.585   0.256 -0.9051 -0.5931  0.6191
14631TIP3    H165308   5.787   3.639   0.324 -0.5283 -0.8350  0.5900
14631TIP3    H265309   5.654   3.583   0.279 -1.0423  0.6757  0.1978
14632TIP3   OH265310   1.122   6.384  15.591 -0.1510 -0.3984  0.1008
14632TIP3    H165311   1.194   6.443  15.612 -1.6883  1.7397 -0.5439
14632TIP3    H265312   1.162   6.297  15.591  2.4711  0.7625 -0.4513
14633TIP3   OH265313   5.660   2.070   0.325  0.7397  0.2066 -0.3723
14633TIP3    H165314   5.652   2.042   0.234  0.3472  0.2827 -0.3633
14633TIP3    H265315   5.657   1.989   0.376  0.0933  0.2225 -0.3765
14634TIP3   OH265316   5.473   4.976   1.927  0.7243  0.1519  0.3754
14634TIP3    H165317   5.427   4.935   1.854  0.9775  0.2450  0.1614
14634TIP3    H265318   5.477   5.069   1.903 -1.2096  0.5754  1.5695
14635TIP3   OH265319   6.159   5.957   4.304  0.4678  0.4593  0.0654
14635TIP3    H165320   6.103   6.034   4.298  0.5415  0.6019  1.0711
14635TIP3    H265321   6.244   5.991   4.332  0.4517 -0.0016  0.6876
14636TIP3   OH265322   6.139   5.270  16.899  0.1254 -0.6909  0.2422
14636TIP3    H165323   6.233   5.288  16.900  0.2005 -1.1080  1.3763
14636TIP3    H265324   6.133   5.176  16.915 -0.4557 -0.7813 -0.5246
14637TIP3   OH265325   4.908   6.063  11.474  0.0106  0.0667  0.0839
14637TIP3    H165326   4.890   5.976  11.511 -0.9402  0.2360  0.0451
14637TIP3    H265327   4.979   6.049  11.412  0.0144 -0.6429  0.2441
14638TIP3   OH265328   4.431   4.934  13.910  0.2190 -0.3849  0.0617
14638TIP3    H165329   4.468   4.940  13.822 -1.9122 -1.7300 -0.9658
14638TIP3    H265330   4.454   4.846  13.940 -0.6137 -0.5841  0.1237
14639TIP3   OH265331   5.230   3.357   1.018 -0.0488 -0.0775  0.8243
14639TIP3    H165332   5.216   3.271   0.979  0.4926 -0.2512  1.0075
14639TIP3    H265333   5.297   3.342   1.086  1.6198  0.8545 -0.5741
14640TIP3   OH265334   6.304   1.552  12.801  0.4137 -0.4184 -0.1805
14640TIP3    H165335   6.368   1.604  12.753 -0.1694 -0.6031 -1.1637
14640TIP3    H265336   6.356   1.492  12.854  1.1068  1.3976  1.2655
14641TIP3   OH265337   0.960   1.790  12.825  0.5134 -0.0827 -0.0412
14641TIP3    H165338   0.901   1.832  12.888  0.3940 -0.0816 -0.1536
14641TIP3    H265339   0.996   1.716  12.872  1.0586  0.3964  0.3037
14642TIP3   OH265340   6.131   2.838  14.367 -0.3229  0.0566 -0.1232
14642TIP3    H165341   6.083   2.898  14.425 -0.3400 -1.9212  1.9397
14642TIP3    H265342   6.065   2.810  14.303 -0.7548  0.8586 -0.0417
14643TIP3   OH265343   3.610   0.840   1.075  0.4678 -0.0178  0.0023
14643TIP3    H165344   3.594   0.751   1.045 -2.0750  0.0605  0.9529
14643TIP3    H265345   3.584   0.839   1.168  0.6111  1.6298  0.0773
14644TIP3   OH265346   2.399   6.263   4.868 -0.1175 -0.5773  0.2358
14644TIP3    H165347   2.361   6.330   4.924 -1.8865 -2.0213  0.7900
14644TIP3    H265348   2.329   6.238   4.808  0.1053 -2.7961  0.8359
14645TIP3   OH265349   3.971   1.578  16.341  0.4156 -0.4973 -0.1222
14645TIP3    H165350   3.910   1.520  16.387 -1.7351  1.0536 -0.9438
14645TIP3    H265351   4.056   1.534  16.349 -0.4705 -1.8932  2.4858
14646TIP3   OH265352   0.414   0.086  12.620 -0.0155  0.2804  0.6999
14646TIP3    H165353   0.394   0.047  12.705  3.2501  0.7481  1.7504
14646TIP3    H265354   0.458   0.016  12.571 -0.5246  0.4888 -0.0752
14647TIP3   OH265355   5.267   4.213   5.993  0.2019 -0.4948  0.1448
14647TIP3    H165356   5.178   4.209   5.958  1.1093 -1.9603 -2.1200
14647TIP3    H265357   5.265   4.158   6.071 -0.9885 -0.0744  0.4224
14648TIP3   OH265358   5.514   4.010   4.352 -0.4837  0.5606 -0.2970
14648TIP3    H165359   5.483   4.077   4.413  1.1299  0.5667  0.5665
14648TIP3    H265360   5.498   3.927   4.398  1.3847  0.6017  0.4799
14649TIP3   OH265361   1.791   3.626   2.934 -0.2015  0.3787  0.7871
14649TIP3    H165362   1.829   3.701   2.979  1.1251  0.3449 -0.2336
14649TIP3    H265363   1.859   3.558   2.938  0.2795  0.6497 -1.9306
14650TIP3   OH265364   2.789   5.927   0.629 -0.0891  0.6733  0.1927
14650TIP3    H165365   2.835   5.987   0.688  2.0635  0.1684 -0.9149
14650TIP3    H265366   2.761   5.982   0.556  0.2461  0.6873  0.0714
14651TIP3   OH265367   1.262   0.173   2.780 -0.0399  0.3350  0.4138
14651TIP3    H165368   1.306   0.197   2.862  2.0526  0.0772 -0.5770
14651TIP3    H265369   1.222   0.254   2.749 -1.0422  0.3807  1.7943
14652TIP3   OH265370   4.213   0.185  14.009 -0.0395  0.2841  0.0413
14652TIP3    H165371   4.156   0.130  14.063  1.2751 -0.1669  1.0220
14652TIP3    H265372   4.156   0.220  13.941 -1.6096  0.3230  1.3423
14653TIP3   OH265373   2.054   6.727   2.444  0.4780  0.3107  0.0901
14653TIP3    H165374   1.988   6.688   2.386 -0.2126  1.2576  0.2279
14653TIP3    H265375   2.006   6.748   2.524  1.5158 -1.3614  1.1685
14654TIP3   OH265376   1.817   2.522  12.065 -0.4157  0.3587 -0.2018
14654TIP3    H165377   1.851   2.608  12.090 -1.5155  0.8333 -0.3097
14654TIP3    H265378   1.748   2.504  12.130 -0.0928 -0.5017 -0.0971
14655TIP3   OH265379   0.516   0.537   4.704  0.2466  0.2365  0.1521
14655TIP3    H165380   0.543   0.551   4.794 -0.7996  2.7718  0.0932
14655TIP3    H265381   0.491   0.444   4.701 -1.1459  0.4842  2.8286
14656TIP3   OH265382   2.117   1.615  16.100  0.0397 -0.2733  0.2326
14656TIP3    H165383   2.084   1.590  16.014 -1.2880 -0.2624  0.7241
14656TIP3    H265384   2.156   1.702  16.087 -1.3203  0.2929 -0.0963
14657TIP3   OH265385   3.926   3.355   2.141 -0.0258  0.0340 -0.0941
14657TIP3    H165386   3.901   3.343   2.233 -1.1307  0.2984 -0.3500
14657TIP3    H265387   3.956   3.269   2.113 -0.7764 -0.3312  0.1985
14658TIP3   OH265388   1.585   4.216   5.993 -0.0832 -0.0604 -0.2244
14658TIP3    H165389   1.491   4.230   5.980  0.0141 -0.0109 -0.9064
14658TIP3    H265390   1.605   4.257   6.077 -0.5218  0.6230 -0.4524
14659TIP3   OH265391   5.497   4.739  13.746  0.7500 -0.1916 -0.5120
14659TIP3    H165392   5.416   4.789  13.759  0.1687 -1.4127  0.6845
14659TIP3    H265393   5.468   4.648  13.739  1.7972 -0.3812 -2.6350
14660TIP3   OH265394   4.236   4.722  13.653  0.0521  0.0514 -0.3800
14660TIP3    H165395   4.307   4.694  13.595  1.1827  3.1825 -0.6215
14660TIP3    H265396   4.175   4.768  13.595 -1.7615 -1.8447 -0.0161
14661TIP3   OH265397   0.449   5.244   0.761 -0.0363  0.0130 -0.3308
14661TIP3    H165398   0.419   5.334   0.753  0.9987  0.4260  0.3858
14661TIP3    H265399   0.374   5.198   0.800 -0.9191  0.3437 -1.5912
14662TIP3   OH265400   2.603   6.371  14.463  0.2337 -0.4368  0.4554
14662TIP3    H165401   2.587   6.400  14.553 -0.2273 -1.3029  0.6605
14662TIP3    H265402   2.531   6.408  14.412  1.8139  2.1049 -0.0164
14663TIP3   OH265403   1.451   2.577   5.875 -0.1000 -0.3404 -1.0534
14663TIP3    H165404   1.482   2.548   5.960  0.6174 -0.3542 -1.3152
14663TIP3    H265405   1.358   2.596   5.888 -0.2953 -1.5691 -0.5740
14664TIP3   OH265406   0.138   6.590   3.522  0.0329  0.6860 -0.0945
14664TIP3    H165407   0.178   6.660   3.574 -1.2850  2.3146 -1.1803
14664TIP3    H265408   0.147   6.620   3.431 -0.5733 -0.5411 -0.5639
14665TIP3   OH265409   4.775   2.224  15.080 -0.4502  0.4216 -0.7443
14665TIP3    H165410   4.708   2.178  15.029 -0.1464  0.8073 -1.4860
14665TIP3    H265411   4.725   2.270  15.148 -0.7793 -0.7624 -0.1795
14666TIP3   OH265412   2.553   5.086  16.855 -0.0675  0.5209  0.3093
14666TIP3    H165413   2.499   5.071  16.778 -0.1602  1.4335  0.1945
14666TIP3    H265414   2.496   5.064  16.929 -0.1322  0.1176  0.1449
14667TIP3   OH265415   1.850   4.993   1.698  0.3687  0.2479  0.0217
14667TIP3    H165416   1.914   5.063   1.710  0.1860  0.8100 -2.0761
14667TIP3    H265417   1.765   5.036   1.706  0.2484 -0.0556  0.4050
14668TIP3   OH265418   1.703   0.457  14.892 -0.1990  0.4307 -0.2818
14668TIP3    H165419   1.755   0.534  14.868 -0.0057  0.4219  0.1049
14668TIP3    H265420   1.615   0.475  14.858  0.6000 -0.5607 -3.0128
14669TIP3   OH265421   0.438   6.702  10.681  0.1919 -0.5302 -0.0434
14669TIP3    H165422   0.429   6.755  10.602  0.1671  2.5972  1.9624
14669TIP3    H265423   0.401   6.617  10.658 -1.3786  0.8723 -2.8582
14670TIP3   OH265424   0.402   1.547  11.752 -0.2907  0.2535 -0.1293
14670TIP3    H165425   0.493   1.559  11.724 -0.3899  0.4818 -0.3524
14670TIP3    H265426   0.355   1.620  11.713 -0.2452  1.1693  1.4891
14671TIP3   OH265427   6.608   2.132   0.993  0.1956  1.0634 -0.3884
14671TIP3    H165428   6.681   2.154   0.936 -0.3243 -0.5274 -1.6979
14671TIP3    H265429   6.531   2.134   0.936 -0.2137 -1.4567 -0.0079
14672TIP3   OH265430   3.457   0.816   5.599 -0.2537 -0.3086 -0.0914
14672TIP3    H165431   3.531   0.765   5.566  0.8397 -0.0097  1.7799
14672TIP3    H265432   3.491   0.905   5.606 -1.5609  0.3044 -1.5293
14673TIP3   OH265433   4.640   3.707   3.909 -0.1139 -0.3926  0.6787
14673TIP3    H165434   4.717   3.672   3.865 -0.0798  1.7786 -1.0627
14673TIP3    H265435   4.569   3.699   3.846 -0.9955 -0.9312  1.7050
14674TIP3   OH265436   1.280   4.653  17.109 -0.1696 -0.0637  0.1398
14674TIP3    H165437   1.215   4.719  17.135 -0.9353 -0.6989 -0.1217
14674TIP3    H265438   1.229   4.572  17.100  0.8075 -0.7619  0.7538
14675TIP3   OH265439   3.904   0.553   5.256 -0.2278 -0.5681 -0.0654
14675TIP3    H165440   3.823   0.575   5.211 -0.5359  0.7597  1.1213
14675TIP3    H265441   3.973   0.575   5.192 -0.5620  3.0866  0.6998
14676TIP3   OH265442   0.404   4.944   2.969  0.2004  0.0367 -0.0886
14676TIP3    H165443   0.463   4.869   2.971 -1.2644 -1.1434 -0.3279
14676TIP3    H265444   0.399   4.974   3.059  0.7722 -0.1522  0.0083
14677TIP3   OH265445   4.240   0.519   1.318 -0.2499 -0.0198 -0.0754
14677TIP3    H165446   4.265   0.561   1.400 -0.2260  0.5928 -0.3903
14677TIP3    H265447   4.147   0.538   1.309  0.2960  2.2343 -1.5048
14678TIP3   OH265448   1.187   0.471   0.578  0.6840 -0.4105  0.4324
14678TIP3    H165449   1.118   0.437   0.634  0.1200  1.2983  0.7974
14678TIP3    H265450   1.252   0.508   0.638  0.1498  1.2904 -0.0029
14679TIP3   OH265451   3.436   5.528   6.498  0.5198 -0.1971  0.0177
14679TIP3    H165452   3.433   5.449   6.444 -0.9677  0.4943 -0.9415
14679TIP3    H265453   3.509   5.578   6.462 -1.6868  1.1693 -2.6957
14680TIP3   OH265454   2.001   6.551  11.816  0.0690  0.5898  0.1715
14680TIP3    H165455   2.000   6.626  11.757 -0.4482  0.1969 -0.3331
14680TIP3    H265456   1.909   6.530  11.829  0.2087  0.1139  0.4039
14681TIP3   OH265457   4.146   1.175   4.297  0.6334 -0.2701  0.0714
14681TIP3    H165458   4.171   1.091   4.336  1.2879 -0.6349 -1.1072
14681TIP3    H265459   4.212   1.191   4.229 -1.0572 -0.1654 -1.6039
14682TIP3   OH265460   5.672   0.365  13.054 -0.3543  0.0950  1.2426
14682TIP3    H165461   5.764   0.382  13.035  0.0455 -0.8048  2.4073
14682TIP3    H265462   5.669   0.276  13.087 -1.6735  0.0557  1.0654
14683TIP3   OH265463   5.898   2.442   0.114  0.0728 -0.1209  0.5118
14683TIP3    H165464   5.822   2.491   0.145  0.4092  0.4243  0.4699
14683TIP3    H265465   5.864   2.389   0.042  0.1466  1.5930 -0.8084
14684TIP3   OH265466   4.820   1.388  15.326 -0.1341  0.2950  0.1270
14684TIP3    H165467   4.854   1.345  15.248 -0.8722 -0.4763  0.2158
14684TIP3    H265468   4.809   1.317  15.389 -1.4841  0.5819  0.2303
14685TIP3   OH265469   3.224   0.396  16.237 -0.1280  0.4192  0.3383
14685TIP3    H165470   3.185   0.418  16.321 -3.5559  1.2939 -1.3873
14685TIP3    H265471   3.221   0.300  16.234 -0.4327  0.4032  1.0078
14686TIP3   OH265472   2.752   5.724  12.864  0.5598 -0.3284  0.2260
14686TIP3    H165473   2.835   5.700  12.905  1.1328  0.6014 -0.3678
14686TIP3    H265474   2.722   5.800  12.913 -0.7775 -1.6425  1.4922
14687TIP3   OH265475   0.777   3.756  16.375 -0.4748 -0.3232  0.0157
14687TIP3    H165476   0.755   3.665  16.357  0.3116 -0.5511  0.1894
14687TIP3    H265477   0.868   3.765  16.346 -0.3260  0.2233  0.6470
14688TIP3   OH265478   4.632   2.576  13.202  0.0881 -0.1036 -0.0854
14688TIP3    H165479   4.618   2.670  13.215  3.5339  0.1926  2.0380
14688TIP3    H265480   4.602   2.560  13.112 -0.7309  2.9762 -0.4208
14689TIP3   OH265481   3.421   3.842   4.480 -0.2488  0.0972  0.3890
14689TIP3    H165482   3.410   3.765   4.537 -1.6501 -0.8020 -1.0436
14689TIP3    H265483   3.336   3.886   4.484 -0.0763  0.4937 -0.3393
14690TIP3   OH265484   0.223   3.605   5.510  0.8091  0.0881 -0.3731
14690TIP3    H165485   0.280   3.667   5.465  1.3962  1.3977  2.0805
14690TIP3    H265486   0.207   3.644   5.596 -2.1434 -1.2176 -0.2402
14691TIP3   OH265487   3.387   1.132   5.016  0.0500  0.7590 -0.6278
14691TIP3    H165488   3.390   1.046   4.976 -2.5795  0.5494 -0.4111
14691TIP3    H265489   3.479   1.161   5.016  1.1960 -2.5998  0.6424
14692TIP3   OH265490   2.825   5.018  16.191  0.8151 -0.0884  0.2422
14692TIP3    H165491   2.834   5.001  16.285  2.3365  1.3077  0.3749
14692TIP3    H265492   2.732   5.008  16.173  0.6252 -1.0870  1.7621
14693TIP3   OH265493   3.913   0.639   0.730  0.2689  0.8186  0.8207
14693TIP3    H165494   3.983   0.590   0.774 -0.9460  0.8364  2.8749
14693TIP3    H265495   3.833   0.609   0.773 -0.7926  2.2694 -0.1156
14694TIP3   OH265496   3.245   0.347  15.271 -0.0344  0.3606 -0.1052
14694TIP3    H165497   3.265   0.406  15.343 -0.8989  0.3068  0.1849
14694TIP3    H265498   3.252   0.259  15.309 -2.2976  0.3684  0.4142
14695TIP3   OH265499   2.501   1.895   2.593  0.6063 -0.4990 -0.4460
14695TIP3    H165500   2.419   1.901   2.642  0.3203  0.9871 -1.0941
14695TIP3    H265501   2.548   1.975   2.615  0.3327  0.3512 -2.8480
14696TIP3   OH265502   5.784   3.844  12.432  0.5348  0.2012 -0.4095
14696TIP3    H165503   5.854   3.891  12.477 -1.1784  1.1651  1.3277
14696TIP3    H265504   5.805   3.751  12.446  1.1539  0.4819  0.5679
14697TIP3   OH265505   0.293   3.751   1.520  0.0224  0.9332 -0.3785
14697TIP3    H165506   0.378   3.707   1.522 -1.4603 -2.0654  0.0292
14697TIP3    H265507   0.274   3.769   1.612 -0.7733 -0.4522 -0.2616
14698TIP3   OH265508   3.069   4.525   1.990  0.5443  0.0126  0.7527
14698TIP3    H165509   3.027   4.451   1.945  0.9217 -0.8831  1.8661
14698TIP3    H265510   3.147   4.487   2.031  1.6452  1.3619 -0.0472
14699TIP3   OH265511   1.752   3.956  10.897 -0.3478 -0.2684  0.1122
14699TIP3    H165512   1.734   3.866  10.923 -3.0108 -0.1560 -1.2383
14699TIP3    H265513   1.696   4.009  10.953  0.2795  0.4732  0.0447
14700TIP3   OH265514   3.075   5.830  14.886  0.4286  0.2872  0.1844
14700TIP3    H165515   2.979   5.834  14.884  0.2695 -2.5931 -2.2332
14700TIP3    H265516   3.094   5.788  14.970 -0.5677 -0.8241 -0.1152
14701TIP3   OH265517   5.814   5.916  11.332 -0.1222  0.1211  0.2366
14701TIP3    H165518   5.815   5.920  11.236 -0.2802 -1.2159  0.1703
14701TIP3    H265519   5.746   5.852  11.353  0.0637  0.2451  1.2315
14702TIP3   OH265520   3.354   2.722  15.191 -0.3272  0.5452 -0.1806
14702TIP3    H165521   3.411   2.798  15.205 -1.1461  1.3333 -1.0811
14702TIP3    H265522   3.287   2.753  15.131 -0.6688 -0.9021 -0.5615
14703TIP3   OH265523   4.238   2.996   5.497  0.6339 -0.2405 -0.0994
14703TIP3    H165524   4.241   3.047   5.578  0.2545 -1.2136  0.5339
14703TIP3    H265525   4.288   2.917   5.516  0.8545 -0.3106 -0.9376
14704TIP3   OH265526   5.474   5.449   1.997 -0.4695  0.5174  0.5321
14704TIP3    H165527   5.384   5.444   2.029 -1.0437  1.4387 -0.8673
14704TIP3    H265528   5.486   5.542   1.976  0.3104  0.1571 -0.6703
14705TIP3   OH265529   5.243   6.409   4.998  0.0925  0.2915 -0.5024
14705TIP3    H165530   5.291   6.333   4.964  0.6933  0.2592  0.3997
14705TIP3    H265531   5.280   6.484   4.951 -0.7383  0.0062 -1.6466
14706TIP3   OH265532   0.645   2.632  12.534 -0.5356  0.3131  0.4818
14706TIP3    H165533   0.680   2.544  12.521  0.1332  0.6866 -0.3103
14706TIP3    H265534   0.670   2.655  12.624  1.8114  0.7872 -0.2453
14707TIP3   OH265535   6.284   6.081  15.882  0.5576 -0.6933  0.3053
14707TIP3    H165536   6.363   6.133  15.896  0.3398 -0.0513 -0.7643
14707TIP3    H265537   6.218   6.122  15.937  0.0491  0.9936 -1.5072
14708TIP3   OH265538   2.498   3.555  14.240 -0.6437 -0.7102  0.5036
14708TIP3    H165539   2.486   3.620  14.309 -0.7677 -0.5785  0.3595
14708TIP3    H265540   2.465   3.474  14.277 -0.8912 -0.5983  0.5277
14709TIP3   OH265541   4.491   5.625  13.206  0.0047  0.2840 -0.1353
14709TIP3    H165542   4.525   5.630  13.117 -0.7142  1.4615 -0.3602
14709TIP3    H265543   4.520   5.706  13.247 -1.1936  0.5833  0.1376
14710TIP3   OH265544   5.970   1.894   1.461  0.0932 -0.3178 -0.4573
14710TIP3    H165545   5.896   1.874   1.403  1.0124 -1.0497 -1.4033
14710TIP3    H265546   5.985   1.988   1.449 -0.3546 -0.2734 -0.6701
14711TIP3   OH265547   2.510   3.258   6.626  0.1106 -0.0032  0.1668
14711TIP3    H165548   2.485   3.210   6.706  0.3068  0.6583  0.6305
14711TIP3    H265549   2.590   3.305   6.650  1.1902 -1.2172 -0.9712
14712TIP3   OH265550   1.674   4.604   2.282  0.0851  0.5110  0.2953
14712TIP3    H165551   1.620   4.584   2.205  1.7068  0.1734 -0.7622
14712TIP3    H265552   1.711   4.519   2.308 -0.9911  0.4994  1.8843
14713TIP3   OH265553   5.136   4.635  14.720  0.2242  0.1144  0.3408
14713TIP3    H165554   5.087   4.671  14.794 -1.0447  0.3626 -0.6069
14713TIP3    H265555   5.096   4.550  14.704  0.2042  0.2469 -0.3325
14714TIP3   OH265556   4.085   1.768   5.954  0.4490 -0.2864 -0.0252
14714TIP3    H165557   4.086   1.861   5.977  0.1147 -0.1480 -0.5593
14714TIP3    H265558   4.006   1.757   5.901 -0.1647 -1.1202  1.0282
14715TIP3   OH265559   3.253   0.405   1.861  0.2859  0.1014 -0.9666
14715TIP3    H165560   3.265   0.496   1.833 -0.4786  1.3194  2.3766
14715TIP3    H265561   3.160   0.388   1.847  0.2712  0.0879 -0.8490
14716TIP3   OH265562   2.535   2.185   2.620 -0.1358  0.2780  0.0150
14716TIP3    H165563   2.581   2.169   2.702 -0.4185  0.4444  0.2077
14716TIP3    H265564   2.445   2.206   2.647 -0.3816 -0.2634 -0.3654
14717TIP3   OH265565   5.867   6.076   6.244 -0.1508  0.8478 -0.0799
14717TIP3    H165566   5.940   6.059   6.303  0.5761 -1.2257 -1.5056
14717TIP3    H265567   5.792   6.034   6.286 -0.0269  1.0026  0.2937
14718TIP3   OH265568   1.528   0.494   3.250  0.1519  0.0324 -0.2160
14718TIP3    H165569   1.467   0.512   3.321 -0.3518  1.5952 -1.0298
14718TIP3    H265570   1.613   0.525   3.283  0.3666 -1.3367  0.5709
14719TIP3   OH265571   2.969   1.692   2.282  0.0810 -0.3578 -0.0198
14719TIP3    H165572   3.050   1.741   2.297  0.2270 -0.8767  0.9365
14719TIP3    H265573   2.974   1.618   2.343 -1.1167 -0.3893  0.0545
14720TIP3   OH265574   0.365   1.627   1.096  0.2225 -0.4276 -0.2389
14720TIP3    H165575   0.403   1.558   1.042 -0.8438  0.0122 -1.6025
14720TIP3    H265576   0.312   1.581   1.161  1.2393 -0.9545  0.2168
14721TIP3   OH265577   1.178   5.254  12.503 -0.2962  0.1763  0.2068
14721TIP3    H165578   1.189   5.197  12.426  2.2489 -0.8413  1.2447
14721TIP3    H265579   1.192   5.342  12.470  0.7138 -0.2501 -0.5315
14722TIP3   OH265580   4.332   0.781   5.550  0.5451  0.1128  0.3429
14722TIP3    H165581   4.304   0.710   5.492 -0.8367 -1.4313  2.7721
14722TIP3    H265582   4.418   0.755   5.581  1.3672  1.0348 -1.1420
14723TIP3   OH265583   1.713   3.778  13.955  0.1205 -0.1664 -0.2249
14723TIP3    H165584   1.678   3.863  13.928 -1.1995 -0.7986 -0.5478
14723TIP3    H265585   1.658   3.752  14.029  0.2672 -0.9172 -0.3788
14724TIP3   OH265586   4.723   0.507   0.514 -0.0967 -0.0078 -0.4637
14724TIP3    H165587   4.628   0.516   0.515 -0.3173 -1.7414 -2.2657
14724TIP3    H265588   4.744   0.475   0.602 -1.3274 -0.8430 -0.4553
14725TIP3   OH265589   5.015   5.483  14.365 -0.0992  0.9478  0.7572
14725TIP3    H165590   5.016   5.454  14.456  1.4337  2.1594  1.1357
14725TIP3    H265591   4.933   5.532  14.356 -1.7221 -1.6400  0.6527
14726TIP3   OH265592   3.095   1.660   3.135  0.0116 -0.3918 -0.0272
14726TIP3    H165593   3.064   1.630   3.220  0.0302  0.5545  0.3160
14726TIP3    H265594   3.186   1.630   3.130  0.0433 -0.3524  0.3344
14727TIP3   OH265595   0.215   6.787  11.304 -0.1043  0.0926 -0.0114
14727TIP3    H165596   0.253   6.875  11.305  0.8875 -0.3132 -0.5454
14727TIP3    H265597   0.175   6.776  11.390  1.6340  0.2750  0.8480
14728TIP3   OH265598   0.080   0.330  14.600  0.4494 -0.1269 -0.0919
14728TIP3    H165599   0.167   0.320  14.639  0.6934 -0.4137 -0.7084
14728TIP3    H265600   0.033   0.388  14.660  1.9447  2.2252 -1.1003
14729TIP3   OH265601   6.219   1.507  16.470 -0.2773 -0.9520  1.0788
14729TIP3    H165602   6.132   1.479  16.499  0.2066 -1.2562  2.2823
14729TIP3    H265603   6.236   1.587  16.520 -0.9975  0.6604 -1.1780
14730TIP3   OH265604   2.661   4.740   3.553 -0.0233  0.8191 -0.3502
14730TIP3    H165605   2.581   4.718   3.601  0.2518 -0.4283 -0.4561
14730TIP3    H265606   2.707   4.802   3.609 -0.7593  1.0712 -0.0138
14731TIP3   OH265607   1.263   5.296   2.929  0.1105 -0.0232  0.5152
14731TIP3    H165608   1.194   5.282   2.865  1.0724 -0.7761 -0.3757
14731TIP3    H265609   1.316   5.217   2.925  0.0497 -0.1862  2.4303
14732TIP3   OH265610   0.689   4.205  13.818 -0.0467  0.1430 -0.2146
14732TIP3    H165611   0.720   4.286  13.858 -2.1741  0.2293  1.3126
14732TIP3    H265612   0.596   4.200  13.841 -0.2395 -2.1050 -1.3260
14733TIP3   OH265613   5.080   1.821  10.789  0.2470  0.7129 -0.0962
14733TIP3    H165614   5.154   1.768  10.821 -0.0991  0.1551 -0.2130
14733TIP3    H265615   5.094   1.827  10.695 -0.0978  0.2260 -0.1814
14734TIP3   OH265616   1.591   3.407  16.231  0.2444  0.4099  0.4146
14734TIP3    H165617   1.622   3.322  16.200 -0.7704  0.3842 -0.5606
14734TIP3    H265618   1.557   3.450  16.152  0.3739  1.5543  0.9758
14735TIP3   OH265619   4.687   4.700   0.728 -0.1991  0.0549 -0.7858
14735TIP3    H165620   4.632   4.712   0.806  0.7314 -0.8974  0.0478
14735TIP3    H265621   4.740   4.779   0.724  1.1071 -0.7121  0.6956
14736TIP3   OH265622   5.570   3.584   5.840 -0.0603  0.4553 -0.4814
14736TIP3    H165623   5.516   3.661   5.857 -0.3953  0.2329 -0.5304
14736TIP3    H265624   5.574   3.577   5.745  2.0390  1.8531 -0.5275
14737TIP3   OH265625   4.354   6.729   5.013 -0.4128  0.1739  0.2215
14737TIP3    H165626   4.434   6.691   5.048 -0.1754  0.5211  0.0610
14737TIP3    H265627   4.284   6.690   5.065 -0.1751 -0.4708  0.0647
14738TIP3   OH265628   3.642   0.586   2.122 -0.3870  0.8544 -0.4810
14738TIP3    H165629   3.694   0.593   2.042 -0.7462 -1.9029 -1.0059
14738TIP3    H265630   3.707   0.577   2.192 -0.1118 -1.1523 -0.9769
14739TIP3   OH265631   5.635   1.359   0.494  0.3528  0.4581 -0.5009
14739TIP3    H165632   5.688   1.385   0.569 -0.0773 -1.0976  0.3542
14739TIP3    H265633   5.698   1.328   0.430  0.6793  1.2767 -0.5857
14740TIP3   OH265634   4.511   0.998   4.038 -0.2344  0.1387 -0.2272
14740TIP3    H165635   4.461   0.921   4.067 -0.0259 -0.0455 -0.3555
14740TIP3    H265636   4.555   1.029   4.117 -0.0520 -0.0747 -0.2432
14741TIP3   OH265637   2.528   0.555   2.982  0.1226  0.1288 -0.3244
14741TIP3    H165638   2.524   0.620   3.051 -0.1613  0.0430 -0.2587
14741TIP3    H265639   2.447   0.568   2.932 -1.2327 -1.9328  1.2701
14742TIP3   OH265640   4.582   1.437  12.039  0.2432 -0.0889  0.5131
14742TIP3    H165641   4.503   1.401  11.999  0.6088 -0.1842 -0.1418
14742TIP3    H265642   4.582   1.403  12.128  0.2308 -1.1539  0.1063
14743TIP3   OH265643   1.495   1.658   2.962  0.0582 -0.1126 -0.2470
14743TIP3    H165644   1.527   1.581   2.915  0.7107  0.5402 -0.8806
14743TIP3    H265645   1.552   1.729   2.934 -0.4259  0.5720  0.4745
14744TIP3   OH265646   0.563   0.318  13.794 -0.3055 -0.2013 -0.4705
14744TIP3    H165647   0.591   0.360  13.876  0.1635 -0.7810 -0.3296
14744TIP3    H265648   0.621   0.354  13.728 -0.7633  0.3594 -0.5765
14745TIP3   OH265649   0.347   2.202  16.840 -0.7398 -0.4776  0.1003
14745TIP3    H165650   0.310   2.288  16.861 -0.1521  0.0256 -0.8757
14745TIP3    H265651   0.380   2.169  16.923  3.5636  2.4500 -0.2628
14746TIP3   OH265652   2.616   5.987  15.391  0.1595 -0.2836 -0.0679
14746TIP3    H165653   2.628   5.892  15.392  1.3752 -0.1339  0.6889
14746TIP3    H265654   2.703   6.022  15.373 -0.7427  0.6425 -2.9466
14747TIP3   OH265655   3.236   4.953   4.008 -0.2226 -0.4855  0.2967
14747TIP3    H165656   3.144   4.928   4.005 -0.0741 -1.1570  1.0998
14747TIP3    H265657   3.282   4.883   3.961 -0.0721 -0.4206  0.3448
14748TIP3   OH265658   1.085   4.834  17.173 -0.4777 -0.2511  0.2077
14748TIP3    H165659   1.017   4.813  17.238 -2.6390  0.8875 -1.6151
14748TIP3    H265660   1.104   4.927  17.187 -0.4473 -0.1745 -0.3167
14749TIP3   OH265661   5.966   3.329   5.203 -0.1732 -0.1569 -0.3085
14749TIP3    H165662   6.016   3.280   5.137 -1.3597 -0.5914 -0.9006
14749TIP3    H265663   5.924   3.261   5.255  0.6483  0.1903  0.8228
14750TIP3   OH265664   1.825   5.515  13.085  0.9133 -0.1920  0.1099
14750TIP3    H165665   1.805   5.571  13.160 -1.4423  1.1322 -1.4851
14750TIP3    H265666   1.873   5.441  13.124  1.7291  1.5571  2.5940
14751TIP3   OH265667   4.069   2.690  14.328 -0.3233  0.0878  0.0084
14751TIP3    H165668   4.027   2.776  14.326 -0.1250  0.2235  1.3500
14751TIP3    H265669   4.016   2.636  14.270 -1.6172  0.6005  0.6962
14752TIP3   OH265670   6.372   3.325   3.846  0.4574 -0.0997 -0.1856
14752TIP3    H165671   6.421   3.403   3.872 -0.6596  1.0499 -1.4874
14752TIP3    H265672   6.280   3.353   3.845 -0.0162 -1.6084 -0.0321
14753TIP3   OH265673   1.377   4.703   5.917  0.1373 -0.0694 -0.0229
14753TIP3    H165674   1.312   4.757   5.962  1.8461  1.3646  0.7714
14753TIP3    H265675   1.397   4.633   5.978 -0.4979 -0.3901 -0.1814
14754TIP3   OH265676   5.583   2.857   1.088  0.2636 -0.2250 -0.1111
14754TIP3    H165677   5.668   2.833   1.053 -0.2022  1.6774 -2.7956
14754TIP3    H265678   5.520   2.806   1.037 -0.2719 -0.5924  0.8977
14755TIP3   OH265679   6.176   6.244   3.504  0.3013  0.6814  0.4646
14755TIP3    H165680   6.154   6.171   3.445  2.3100  0.2916  0.1786
14755TIP3    H265681   6.266   6.227   3.531  0.4484  2.5328  1.2064
14756TIP3   OH265682   0.814   5.284   1.708 -0.3498  0.5147 -0.3074
14756TIP3    H165683   0.822   5.365   1.658 -0.3030  0.5123 -0.3035
14756TIP3    H265684   0.792   5.217   1.644  3.5928 -0.2719 -0.9648
14757TIP3   OH265685   4.914   4.732  16.117  0.0034 -0.4563 -0.8345
14757TIP3    H165686   4.973   4.692  16.053  1.6656  1.6711 -0.6995
14757TIP3    H265687   4.961   4.725  16.200 -0.3363  0.3878 -0.5611
14758TIP3   OH265688   0.667   0.705  10.753  1.1870 -0.9809 -0.4099
14758TIP3    H165689   0.727   0.682  10.683  1.4849  0.2341 -0.5584
14758TIP3    H265690   0.721   0.705  10.832  1.0372 -1.4476 -0.3010
14759TIP3   OH265691   3.780   2.450  16.838  0.6026 -0.0034 -0.0335
14759TIP3    H165692   3.740   2.418  16.919  2.0358  1.8492  1.4796
14759TIP3    H265693   3.743   2.538  16.826  0.8225 -0.0453 -1.0870
14760TIP3   OH265694   2.701   5.111  12.875  0.3194  0.0571 -0.2271
14760TIP3    H165695   2.756   5.187  12.852  1.3354 -0.8100 -0.7048
14760TIP3    H265696   2.723   5.093  12.966 -0.7928  1.0544  0.2504
14761TIP3   OH265697   5.256   1.178   4.467 -0.2855 -0.4877 -0.2550
14761TIP3    H165698   5.194   1.219   4.528  0.1473 -0.9561  0.5163
14761TIP3    H265699   5.203   1.121   4.412 -0.2098 -3.2269  2.3707
14762TIP3   OH265700   6.102   0.628  13.407 -0.0381  0.2195  0.4456
14762TIP3    H165701   6.106   0.662  13.318  0.0680 -0.7585  0.0790
14762TIP3    H265702   6.036   0.682  13.450 -0.3570  0.4509 -0.3277
14763TIP3   OH265703   1.222   2.786   3.102 -0.4933  0.2572 -0.5205
14763TIP3    H165704   1.291   2.852   3.106  0.7433 -1.0356 -0.2449
14763TIP3    H265705   1.237   2.740   3.019 -0.3140 -0.7864  0.0819
14764TIP3   OH265706   0.144   0.829   2.318  0.1398 -0.3619  0.2657
14764TIP3    H165707   0.176   0.890   2.252 -0.1191 -2.3348 -1.7457
14764TIP3    H265708   0.089   0.882   2.376  0.8931  1.5325 -0.7260
14765TIP3   OH265709   6.236   6.212   6.827  0.0804 -0.1713 -0.2293
14765TIP3    H165710   6.173   6.282   6.809  0.4243  0.2286  0.1071
14765TIP3    H265711   6.282   6.199   6.745  2.0852  2.0859  0.4682
14766TIP3   OH265712   6.344   4.407  16.705  0.6543 -0.0236  0.4075
14766TIP3    H165713   6.275   4.469  16.727  0.1364 -0.6154  0.4822
14766TIP3    H265714   6.337   4.339  16.772 -0.1042 -1.1940 -0.8338
14767TIP3   OH265715   4.741   4.161   4.067  0.1938  0.1802 -0.6291
14767TIP3    H165716   4.704   4.073   4.075  1.0135 -0.1705 -0.5850
14767TIP3    H265717   4.806   4.166   4.137  0.7556  0.5123 -1.1732
14768TIP3   OH265718   3.166   6.124  15.581  0.2064 -0.0194 -0.5537
14768TIP3    H165719   3.111   6.201  15.578  0.1178 -0.0912 -0.8441
14768TIP3    H265720   3.210   6.128  15.666  0.7386  0.7241 -0.8536
14769TIP3   OH265721   5.231   1.698  13.960 -0.2135 -0.1801  0.2396
14769TIP3    H165722   5.220   1.607  13.932  1.1850 -0.8809  1.8718
14769TIP3    H265723   5.246   1.692  14.054 -0.7287  1.8006  0.4624
14770TIP3   OH265724   0.138   4.365  11.354 -0.7507 -0.5585  0.5844
14770TIP3    H165725   0.061   4.308  11.351 -0.0532 -1.6281  2.1490
14770TIP3    H265726   0.108   4.443  11.400 -1.4812 -0.0247 -0.7879
14771TIP3   OH265727   2.813   5.977  14.253  0.0187  0.1714  0.4291
14771TIP3    H165728   2.900   6.015  14.266  0.5656 -1.7237  2.5527
14771TIP3    H265729   2.755   6.053  14.249  1.8724  1.5309 -2.3224
14772TIP3   OH265730   3.183   4.248  15.037  0.2926  0.5667  0.3220
14772TIP3    H165731   3.135   4.290  15.109 -0.3572  0.5763 -0.1154
14772TIP3    H265732   3.200   4.159  15.069 -0.4382  0.4118  0.2914
14773TIP3   OH265733   1.811   1.823  12.577  0.2501 -0.4370 -0.6069
14773TIP3    H165734   1.802   1.895  12.639  2.4745 -0.8082  0.1947
14773TIP3    H265735   1.798   1.744  12.631 -3.5179 -0.6782 -1.7142
14774TIP3   OH265736   2.971   3.105  14.781  0.3651  0.1937 -0.6499
14774TIP3    H165737   2.922   3.080  14.703  1.8422 -1.0767 -1.2043
14774TIP3    H265738   3.054   3.058  14.773  1.4372  1.8214  0.5585
14775TIP3   OH265739   5.559   0.607   3.899 -0.4367 -0.5053 -0.0722
14775TIP3    H165740   5.617   0.562   3.838  0.4363 -1.0895  1.1742
14775TIP3    H265741   5.517   0.675   3.846  0.9701 -0.4329 -1.1181
14776TIP3   OH265742   5.351   3.889   2.027  0.9381 -0.2788  0.1449
14776TIP3    H165743   5.325   3.874   2.118 -0.2510 -0.4933 -0.2264
14776TIP3    H265744   5.285   3.949   1.992  2.8022  1.8525  0.1402
14777TIP3   OH265745   1.349   5.215   5.803 -0.0076 -0.0471  0.2074
14777TIP3    H165746   1.404   5.147   5.765 -0.4198 -0.4105  0.2515
14777TIP3    H265747   1.291   5.168   5.863 -0.0597  0.3876  0.4994
14778TIP3   OH265748   5.583   2.265  15.353  0.1680 -0.3785  0.1387
14778TIP3    H165749   5.604   2.349  15.393 -1.0937 -0.3695  0.8118
14778TIP3    H265750   5.494   2.276  15.319  0.4483 -1.0502 -0.8546
14779TIP3   OH265751   1.961   5.519   2.390  0.2185  0.3338 -0.2345
14779TIP3    H165752   1.962   5.596   2.334 -0.9828 -0.1709 -0.9724
14779TIP3    H265753   2.049   5.483   2.384  0.3863  0.8686 -0.9739
14780TIP3   OH265754   2.287   0.336   3.636  0.1359 -0.1904  0.3379
14780TIP3    H165755   2.301   0.278   3.561  1.3361  0.0510  0.3816
14780TIP3    H265756   2.263   0.276   3.708 -0.4529 -0.4674 -0.0848
14781TIP3   OH265757   5.707   5.445   5.716 -0.3003  0.0263  0.0979
14781TIP3    H165758   5.646   5.509   5.753  2.4132  2.0109  1.3013
14781TIP3    H265759   5.712   5.376   5.782  0.5147  1.0147  1.1005
14782TIP3   OH265760   4.040   0.031   0.448 -0.5758 -0.0370  0.2857
14782TIP3    H165761   4.128   0.044   0.412 -0.1073  1.2157  1.7966
14782TIP3    H265762   4.008   0.120   0.465 -0.3566 -0.5486  3.8466
14783TIP3   OH265763   5.197   0.580   1.023  0.3898  0.0428 -0.2705
14783TIP3    H165764   5.242   0.505   1.061 -1.5567 -1.4506 -0.8369
14783TIP3    H265765   5.172   0.634   1.099  0.9728 -0.3479  0.2019
14784TIP3   OH265766   2.774   1.895  15.995 -0.6443  0.1764 -0.3109
14784TIP3    H165767   2.694   1.878  16.046 -1.0988  1.3107 -0.6238
14784TIP3    H265768   2.845   1.883  16.057 -1.1900  1.4531  0.5845
14785TIP3   OH265769   0.887   6.015  13.219  0.3003  0.0868  0.2024
14785TIP3    H165770   0.797   6.045  13.229  0.7079  1.5381 -0.3505
14785TIP3    H265771   0.937   6.071  13.278  0.9548 -0.1115 -0.1607
14786TIP3   OH265772   3.826   4.279   4.865 -0.1880 -0.1484  0.4721
14786TIP3    H165773   3.846   4.201   4.814 -1.4815 -1.2140  1.5211
14786TIP3    H265774   3.908   4.326   4.871 -0.0139  0.0403 -2.6107
14787TIP3   OH265775   1.622   4.160   3.266  0.1328  0.8928 -1.0756
14787TIP3    H165776   1.550   4.102   3.291 -1.3101  2.2442 -2.0265
14787TIP3    H265777   1.700   4.103   3.266 -0.9113 -0.5473  0.0571
14788TIP3   OH265778   3.421   3.511  10.582 -0.3426 -0.2208  0.9701
14788TIP3    H165779   3.487   3.442  10.581  2.3817  2.2933 -0.9810
14788TIP3    H265780   3.379   3.505  10.496 -0.4038  0.2598  0.9673
14789TIP3   OH265781   0.911   2.513  13.133 -0.0350 -0.1260 -0.4413
14789TIP3    H165782   0.818   2.534  13.119 -0.4205  0.0045  2.0093
14789TIP3    H265783   0.952   2.597  13.153 -0.2423 -0.6419  2.5221
14790TIP3   OH265784   4.070   2.964   2.125  0.3337  0.2454  0.2111
14790TIP3    H165785   4.108   2.938   2.209 -0.2061  1.6108  0.8958
14790TIP3    H265786   3.980   2.930   2.128  0.2500  0.4711  0.2732
14791TIP3   OH265787   0.733   2.142  15.316 -0.0875  0.6915 -0.4023
14791TIP3    H165788   0.772   2.056  15.330  2.6460  1.9464  0.0176
14791TIP3    H265789   0.795   2.188  15.258  0.1232  3.4440  1.8919
14792TIP3   OH265790   0.063   4.184   4.502 -0.2585  0.4363 -0.0889
14792TIP3    H165791   0.145   4.159   4.461 -0.4533  0.6933 -0.6435
14792TIP3    H265792   0.010   4.104   4.501 -0.0497  0.2949  0.1868
14793TIP3   OH265793   1.116   6.420   6.337  0.2247  0.5565 -0.0940
14793TIP3    H165794   1.092   6.362   6.409  0.8615  0.6672  0.2100
14793TIP3    H265795   1.195   6.381   6.299  0.1986  0.7877 -0.3963
14794TIP3   OH265796   2.658   5.892   0.156 -0.0718 -0.0258  0.1012
14794TIP3    H165797   2.722   5.963   0.146 -0.0213 -0.2910 -1.5303
14794TIP3    H265798   2.693   5.838   0.227  1.9848 -0.6737 -1.3778
14795TIP3   OH265799   2.238   3.555   5.158 -0.4421 -0.2020 -0.1142
14795TIP3    H165800   2.205   3.541   5.247  0.9229 -1.2063  0.2538
14795TIP3    H265801   2.308   3.621   5.168 -1.3556  0.8703 -0.6786
14796TIP3   OH265802   6.678   1.354   0.524 -0.3352  0.0558 -0.1447
14796TIP3    H165803   6.749   1.291   0.532  0.8650  1.5166  0.9790
14796TIP3    H265804   6.703   1.410   0.450 -0.0012  0.9328  0.6150
14797TIP3   OH265805   5.227   1.592  10.785  0.2020  0.3270 -0.2000
14797TIP3    H165806   5.150   1.538  10.765  0.8413 -0.8669  0.4775
14797TIP3    H265807   5.264   1.614  10.700 -0.5137  0.3473 -0.5052
14798TIP3   OH265808   1.914   5.263  16.677 -0.1559 -0.1601 -0.1769
14798TIP3    H165809   1.992   5.265  16.622 -0.2000  0.2477 -0.2277
14798TIP3    H265810   1.934   5.200  16.746  0.1542 -0.1833 -0.2863
14799TIP3   OH265811   1.613   3.309  14.697  0.0729  0.2451 -0.3132
14799TIP3    H165812   1.670   3.334  14.624  0.0889 -0.4053 -0.5287
14799TIP3    H265813   1.613   3.213  14.696 -1.6117  0.2353 -0.7642
14800TIP3   OH265814   6.317   4.630   3.195  0.4014  0.4686 -0.1312
14800TIP3    H165815   6.248   4.674   3.245 -0.4196 -0.7759 -0.1445
14800TIP3    H265816   6.314   4.671   3.109 -0.7774 -0.0458 -0.3416
14801TIP3   OH265817   5.661   2.005  12.727 -0.0885  0.0066  0.2380
14801TIP3    H165818   5.738   1.965  12.687 -0.3527 -0.0721 -0.1855
14801TIP3    H265819   5.602   1.932  12.744 -0.6292  0.2265 -0.6620
14802TIP3   OH265820   5.524   4.636  13.055 -0.3590 -0.6408  0.5552
14802TIP3    H165821   5.529   4.680  13.140 -0.8354  0.4839  0.0108
14802TIP3    H265822   5.610   4.650  13.016 -0.4652 -0.2842  0.4397
14803TIP3   OH265823   2.414   0.602  16.217 -0.2001  0.2826 -0.4874
14803TIP3    H165824   2.468   0.640  16.147  1.0807  2.0893  1.4202
14803TIP3    H265825   2.346   0.668  16.233 -1.1954 -0.6475 -0.8046
14804TIP3   OH265826   3.087   1.828   5.716 -0.4386  1.1213  0.1747
14804TIP3    H165827   3.158   1.891   5.706  1.4453 -0.5304  2.5886
14804TIP3    H265828   3.071   1.826   5.811 -0.9637 -1.4811  0.0505
14805TIP3   OH265829   0.150   1.557  15.965 -0.4638 -0.7869 -0.7254
14805TIP3    H165830   0.056   1.553  15.947 -1.0343  0.6484  1.7016
14805TIP3    H265831   0.158   1.617  16.040  2.2138 -2.3695  0.3413
14806TIP3   OH265832   5.656   6.214   0.063  0.5964 -0.0115  0.1055
14806TIP3    H165833   5.623   6.124   0.072 -1.1999  0.8938  3.4950
14806TIP3    H265834   5.580   6.269   0.080  2.1001  2.1568 -0.0285
14807TIP3   OH265835   4.124   5.492   3.776  0.5631 -0.3343  0.3833
14807TIP3    H165836   4.048   5.443   3.744  0.8745  0.2689 -1.3313
14807TIP3    H265837   4.086   5.570   3.817  0.2684  0.6901 -1.7429
14808TIP3   OH265838   3.447   3.025  17.210  0.4193  0.0786 -0.1035
14808TIP3    H165839   3.476   3.060  17.125  2.0534  0.9970  0.8195
14808TIP3    H265840   3.392   3.094  17.247  0.2901 -0.0333 -0.0836
14809TIP3   OH265841   4.441   3.946  14.008 -0.5475 -0.4418  0.4866
14809TIP3    H165842   4.481   3.990  14.083 -1.8440  0.4885  0.6494
14809TIP3    H265843   4.413   3.861  14.043 -0.4884 -0.3062  0.8719
14810TIP3   OH265844   1.507   5.806   0.973 -0.1441 -0.0396  0.1801
14810TIP3    H165845   1.559   5.731   0.944  1.1637  0.9729 -0.1270
14810TIP3    H265846   1.482   5.784   1.063  0.5084 -0.7008  0.2075
14811TIP3   OH265847   1.402   3.515   0.273 -0.7134 -0.4853 -0.2385
14811TIP3    H165848   1.355   3.491   0.353  0.5589 -1.7873  0.1147
14811TIP3    H265849   1.438   3.433   0.240 -0.7379  0.1317 -1.8462
14812TIP3   OH265850   2.841   1.379  12.408 -0.0994 -0.0931 -0.0695
14812TIP3    H165851   2.777   1.363  12.477 -0.3232 -1.5267 -0.5783
14812TIP3    H265852   2.897   1.301  12.410  0.8948  0.6051 -0.4237
14813TIP3   OH265853   3.735   4.783  15.729 -0.3943 -0.5027  0.2259
14813TIP3    H165854   3.666   4.745  15.784 -2.3615  0.7033 -1.3428
14813TIP3    H265855   3.744   4.873  15.760 -1.0335 -0.0236 -0.9771
14814TIP3   OH265856   2.857   5.404  13.110  0.2881 -0.4968 -0.0989
14814TIP3    H165857   2.890   5.320  13.078  2.7169  0.1437  0.6396
14814TIP3    H265858   2.820   5.384  13.196 -1.7419 -1.2991 -1.1248
14815TIP3   OH265859   2.259   0.520  13.672  0.2532 -0.3074  0.0014
14815TIP3    H165860   2.234   0.601  13.627  1.5461  0.6955  1.0642
14815TIP3    H265861   2.306   0.470  13.605 -0.4204 -0.1259 -0.6155
14816TIP3   OH265862   5.210   6.209   1.953  0.0129  0.2907  0.5821
14816TIP3    H165863   5.284   6.223   2.011  0.4600  0.7251 -0.0890
14816TIP3    H265864   5.174   6.296   1.937  0.8624  0.3673 -1.0500
14817TIP3   OH265865   0.300   2.083  14.260  0.2499 -0.4356 -0.1593
14817TIP3    H165866   0.389   2.064  14.230  0.4718  0.1079  0.1474
14817TIP3    H265867   0.306   2.171  14.298 -0.4278 -0.3810 -0.1809
14818TIP3   OH265868   5.780   5.053  13.152 -0.0963 -0.3941 -0.1657
14818TIP3    H165869   5.832   5.022  13.078 -1.0438 -1.0649 -0.5627
14818TIP3    H265870   5.732   5.128  13.117  0.9635  0.5261  0.3352
14819TIP3   OH265871   5.330   2.005  14.024 -0.0777  0.2870  0.1092
14819TIP3    H165872   5.319   1.921  13.979 -1.1695  1.1350 -1.2388
14819TIP3    H265873   5.398   2.051  13.975 -0.4697  0.7537 -0.0051
14820TIP3   OH265874   4.717   4.148   5.898 -0.0389 -0.0990 -0.2710
14820TIP3    H165875   4.760   4.066   5.871  0.4405 -0.1566  0.6417
14820TIP3    H265876   4.635   4.149   5.850 -0.5578 -1.6609  0.5416
14821TIP3   OH265877   0.959   2.899   0.569 -0.9720 -0.0974 -0.3964
14821TIP3    H165878   1.005   2.818   0.591 -0.8024  0.3049  0.7498
14821TIP3    H265879   0.976   2.957   0.643 -2.5455  0.3830 -0.4072
14822TIP3   OH265880   1.553   2.386   2.559  0.4078  0.3780  0.1531
14822TIP3    H165881   1.488   2.331   2.602  0.1021  1.9955  1.8129
14822TIP3    H265882   1.511   2.472   2.553  0.8011  0.4248 -2.5689
14823TIP3   OH265883   6.326   1.035   3.368  0.0830  0.0934  0.0936
14823TIP3    H165884   6.236   1.004   3.385 -0.2812  1.1776  0.1820
14823TIP3    H265885   6.314   1.120   3.326  1.0614 -0.2915 -0.9897
14824TIP3   OH265886   3.115   2.567   0.776 -0.0338  0.2898 -0.8263
14824TIP3    H165887   3.036   2.514   0.766  0.1044 -0.1143  0.2055
14824TIP3    H265888   3.084   2.657   0.784 -0.3948  0.1148 -0.2808
14825TIP3   OH265889   1.868   0.141  14.068 -0.2841 -0.2507 -0.3197
14825TIP3    H165890   1.937   0.205  14.084 -0.0303 -0.7048  0.4000
14825TIP3    H265891   1.815   0.142  14.148  0.9246 -2.4466  0.5362
14826TIP3   OH265892   2.242   6.483  15.465  0.1438 -0.3582 -0.4260
14826TIP3    H165893   2.189   6.471  15.387  0.1615 -1.5707 -0.2659
14826TIP3    H265894   2.330   6.503  15.432 -0.2247  0.8552 -0.6916
14827TIP3   OH265895   4.754   4.450  13.636 -0.0031 -0.0749  0.0088
14827TIP3    H165896   4.735   4.431  13.544 -1.0310 -0.0113  0.2017
14827TIP3    H265897   4.850   4.450  13.641  0.0772  0.8917 -1.2577
14828TIP3   OH265898   1.133   6.651  14.515 -0.2667 -0.0388  0.2764
14828TIP3    H165899   1.182   6.665  14.434  0.1723 -0.5608  0.4508
14828TIP3    H265900   1.147   6.558  14.536 -0.4341  0.0768  0.9128
14829TIP3   OH265901   5.099   0.113   5.397 -0.4131  0.0189  0.5690
14829TIP3    H165902   5.162   0.087   5.464 -0.3966 -0.7550  0.2656
14829TIP3    H265903   5.125   0.064   5.319 -0.5655  0.7363  0.0540
14830TIP3   OH265904   2.464   1.538   4.490  0.1176 -0.3101 -0.2186
14830TIP3    H165905   2.497   1.523   4.402 -1.7546 -0.7762 -0.8686
14830TIP3    H265906   2.427   1.453   4.517 -0.0203  0.0308  0.6937
14831TIP3   OH265907   6.118   2.767  11.809 -0.0798  0.4742 -0.7602
14831TIP3    H165908   6.165   2.726  11.882  1.2460  1.7286 -0.8814
14831TIP3    H265909   6.039   2.803  11.849  0.0446  0.1070 -0.1749
14832TIP3   OH265910   5.734   4.759   0.993 -0.7540  0.3601  0.0333
14832TIP3    H165911   5.764   4.785   0.906 -0.6330 -0.1185 -0.0658
14832TIP3    H265912   5.802   4.792   1.052 -0.9395  0.8710 -0.0294
14833TIP3   OH265913   1.452   4.981   5.492  0.4458 -0.3148 -0.0486
14833TIP3    H165914   1.396   4.974   5.569  0.5912  0.5143  0.1424
14833TIP3    H265915   1.465   4.891   5.463  1.6801 -0.7806  1.8413
14834TIP3   OH265916   4.138   4.455  14.850 -0.0305 -0.0923  0.1718
14834TIP3    H165917   4.060   4.400  14.855  1.1730 -1.7732  1.0649
14834TIP3    H265918   4.111   4.539  14.887 -0.8945 -1.3133  2.4237
14835TIP3   OH265919   0.184   0.518   5.714 -0.1870 -0.5773  0.0728
14835TIP3    H165920   0.190   0.548   5.623  0.8703  0.2597  0.3965
14835TIP3    H265921   0.091   0.515   5.732 -0.5028 -2.7748 -1.6839
14836TIP3   OH265922   2.523   5.403   3.222 -0.1329  0.2017 -0.1290
14836TIP3    H165923   2.562   5.407   3.310  1.1937 -1.5447 -0.6091
14836TIP3    H265924   2.429   5.396   3.238  0.0827  0.0442  1.1574
14837TIP3   OH265925   3.268   6.719  12.816  0.4441 -0.2990  0.2511
14837TIP3    H165926   3.229   6.654  12.875  0.8426 -0.0400  0.7933
14837TIP3    H265927   3.305   6.785  12.874 -0.9119  0.9834 -0.3116
14838TIP3   OH265928   6.075   3.794   4.729 -0.9132 -0.2317 -0.0694
14838TIP3    H165929   6.035   3.783   4.642 -1.0314  1.6406 -0.2578
14838TIP3    H265930   6.167   3.812   4.711 -1.0976  0.9610  0.1568
14839TIP3   OH265931   2.028   4.266  16.405  0.0497  0.2443 -0.6196
14839TIP3    H165932   2.063   4.309  16.327  0.9421  0.6550 -0.0104
14839TIP3    H265933   2.045   4.173  16.391 -0.9546  0.1818 -1.4798
14840TIP3   OH265934   5.887   4.825   0.006  0.0683 -0.2811  0.4851
14840TIP3    H165935   5.982   4.832   0.001  0.0474 -0.9287 -1.0233
14840TIP3    H265936   5.871   4.751   0.064  0.4979 -0.7514  0.0074
14841TIP3   OH265937   0.771   5.460  11.782 -0.7094  0.3934  0.2343
14841TIP3    H165938   0.698   5.498  11.831 -1.1665 -0.5975  0.3282
14841TIP3    H265939   0.768   5.367  11.803  1.2391  0.5059  1.0605
14842TIP3   OH265940   2.182   5.297   1.027 -0.0254  0.4794 -0.6100
14842TIP3    H165941   2.144   5.334   1.106  0.1575 -1.5626  0.4602
14842TIP3    H265942   2.107   5.263   0.978 -0.0393  0.8082 -0.8160
14843TIP3   OH265943   6.383   5.915   4.500 -0.1725 -0.2324  0.2867
14843TIP3    H165944   6.311   5.976   4.519  0.3387 -0.1921  2.2135
14843TIP3    H265945   6.429   5.906   4.584  1.7273 -0.7138 -0.7901
14844TIP3   OH265946   1.415   2.694   5.122  0.1896 -0.0804  0.3891
14844TIP3    H165947   1.426   2.657   5.210  0.9779  0.9027  0.7296
14844TIP3    H265948   1.368   2.776   5.137  1.3728  0.6772  0.0414
14845TIP3   OH265949   4.541   2.456  13.530  0.0129 -0.4621 -0.4978
14845TIP3    H165950   4.513   2.470  13.620 -0.7099  0.2040 -0.8174
14845TIP3    H265951   4.636   2.464  13.532 -0.1311  1.3581 -0.1049
14846TIP3   OH265952   3.367   3.285   6.039  0.0574  0.6320  0.3883
14846TIP3    H165953   3.359   3.243   6.125 -0.1996 -0.3960 -0.1308
14846TIP3    H265954   3.447   3.338   6.046  1.2037 -1.0644  0.6138
14847TIP3   OH265955   3.033   0.851   2.390 -0.7283 -0.0185  0.5839
14847TIP3    H165956   3.061   0.762   2.372 -1.0567 -0.2570  1.2313
14847TIP3    H265957   3.072   0.903   2.320  0.3436 -0.5092  0.8091
14848TIP3   OH265958   6.637   2.402  13.304 -0.1497 -0.1481  0.3656
14848TIP3    H165959   6.546   2.381  13.322 -0.2898  0.3507  0.2265
14848TIP3    H265960   6.680   2.316  13.296 -0.9712 -0.4070 -1.5104
14849TIP3   OH265961   6.056   3.968  11.876  0.0596 -0.1765 -0.1175
14849TIP3    H165962   6.130   3.986  11.818 -1.6604  0.7244 -2.0684
14849TIP3    H265963   5.984   3.945  11.817 -2.0082  1.7567  1.5938
14850TIP3   OH265964   0.503   5.123   1.126 -0.2946 -0.0042  0.0455
14850TIP3    H165965   0.471   5.033   1.120 -0.5429  0.0975 -0.1848
14850TIP3    H265966   0.504   5.142   1.220  3.8933 -1.6891  0.4283
14851TIP3   OH265967   0.704   0.020   1.507 -0.2553  0.4634  0.6727
14851TIP3    H165968   0.787   0.056   1.477 -0.8688  2.3365  1.2158
14851TIP3    H265969   0.647   0.024   1.430 -0.3746  0.8102  0.7789
14852TIP3   OH265970   0.503   3.574   3.325  0.3008 -0.0087  0.0026
14852TIP3    H165971   0.473   3.532   3.245 -0.7224 -0.6731  0.7273
14852TIP3    H265972   0.534   3.660   3.297 -0.6353  0.0070 -1.0020
14853TIP3   OH265973   5.798   5.375  11.139 -0.0406 -0.1531 -0.1605
14853TIP3    H165974   5.808   5.285  11.170 -0.5354 -0.0032  0.4397
14853TIP3    H265975   5.755   5.421  11.211  0.4684  0.6341 -0.3524
14854TIP3   OH265976   5.656   3.674   6.638 -0.7956  0.8325  0.2164
14854TIP3    H165977   5.655   3.710   6.550  0.7594  0.4050  0.0154
14854TIP3    H265978   5.693   3.743   6.692  0.2214  0.3277  0.1778
14855TIP3   OH265979   4.592   2.247  17.050  0.1468 -0.0184  0.5986
14855TIP3    H165980   4.622   2.169  17.003 -0.4988 -0.6025  1.1461
14855TIP3    H265981   4.579   2.312  16.981 -1.4769 -1.0946 -0.1383
14856TIP3   OH265982   6.393   5.962  14.197  0.3597 -0.1913 -0.1155
14856TIP3    H165983   6.400   5.917  14.113 -0.1828  0.5199 -0.5504
14856TIP3    H265984   6.316   6.018  14.188 -0.5770 -1.1901  1.3761
14857TIP3   OH265985   2.331   4.141   0.365  0.1761 -0.0207  0.0764
14857TIP3    H165986   2.240   4.139   0.336  0.2549  1.6563 -0.3402
14857TIP3    H265987   2.379   4.174   0.289  0.9176  0.6177  0.8205
14858TIP3   OH265988   1.734   6.579  12.360 -0.5461 -0.1400 -0.6336
14858TIP3    H165989   1.698   6.590  12.272  0.8593 -1.8367 -1.4407
14858TIP3    H265990   1.674   6.516  12.402  0.3376 -1.4799 -1.3358
14859TIP3   OH265991   2.680   4.467  15.168 -0.1146 -0.1291  0.0606
14859TIP3    H165992   2.763   4.514  15.181  0.1452 -0.6185  0.1814
14859TIP3    H265993   2.638   4.513  15.096 -0.6350  1.3504  1.2594
14860TIP3   OH265994   4.952   2.326   1.109 -0.6507 -0.1226  0.2851
14860TIP3    H165995   4.926   2.316   1.201  0.5673  0.5339  0.7241
14860TIP3    H265996   4.870   2.333   1.061 -1.3134 -0.9017  1.2823
14861TIP3   OH265997   6.633   2.791   2.845 -0.1022 -0.0878  0.3476
14861TIP3    H165998   6.580   2.721   2.808 -0.9105  1.8115 -2.2334
14861TIP3    H265999   6.709   2.797   2.786  0.6294  0.3556  1.3092
14862TIP3   OH266000   2.300   4.257   3.097  0.1598  0.2666 -0.4486
14862TIP3    H166001   2.363   4.211   3.153 -0.9684 -0.9950 -0.2120
14862TIP3    H266002   2.333   4.347   3.094  1.0800 -0.0059  0.9898
14863TIP3   OH266003   4.119   4.774   6.507 -0.2995 -0.0358 -0.0727
14863TIP3    H166004   4.056   4.843   6.488 -0.6862  0.6736  3.4346
14863TIP3    H266005   4.066   4.696   6.521 -0.1739 -0.1123 -0.0202
14864TIP3   OH266006   4.196   5.721  15.132 -0.4405  0.2423 -0.4662
14864TIP3    H166007   4.204   5.812  15.104 -0.6975 -0.0619 -1.5296
14864TIP3    H266008   4.232   5.670  15.060  0.7063 -0.4566  0.5727
14865TIP3   OH266009   5.298   6.261  11.334  0.2876  0.7130 -0.0688
14865TIP3    H166010   5.261   6.318  11.266 -0.5348  0.7623  0.4184
14865TIP3    H266011   5.295   6.314  11.414 -2.8827 -0.8468  0.9563
14866TIP3   OH266012   6.509   6.102  10.386  0.3533  0.2704 -0.5299
14866TIP3    H166013   6.418   6.104  10.415  0.0139 -1.6081 -1.3974
14866TIP3    H266014   6.509   6.149  10.303 -0.5314 -2.7382 -2.3005
14867TIP3   OH266015   6.216   0.411   1.302  0.3290  0.0055 -0.0653
14867TIP3    H166016   6.258   0.389   1.219 -1.1166  0.2478 -0.8825
14867TIP3    H266017   6.122   0.410   1.282 -0.3152 -4.2603  2.5914
14868TIP3   OH266018   3.028   5.678  11.459  0.2987  0.0446  0.5843
14868TIP3    H166019   2.970   5.745  11.493 -1.4738 -0.5595 -1.1507
14868TIP3    H266020   2.976   5.598  11.460  1.2869 -0.6270 -0.4328
14869TIP3   OH266021   5.133   0.953   1.058 -0.0731 -0.3799 -0.8053
14869TIP3    H166022   5.155   1.046   1.053  1.1987 -0.5748  0.5928
14869TIP3    H266023   5.202   0.910   1.009 -0.6068 -0.5961 -1.3675
14870TIP3   OH266024   2.478   4.000  16.632 -0.0747  0.0856  0.5215
14870TIP3    H166025   2.548   3.960  16.581 -0.9143 -0.5676 -0.1260
14870TIP3    H266026   2.493   3.970  16.721 -0.0230 -0.7419  0.2381
14871TIP3   OH266027   2.963   3.879   2.882  0.6942 -0.2930 -0.5942
14871TIP3    H166028   2.919   3.795   2.870  0.1699 -0.1134  0.0556
14871TIP3    H266029   3.054   3.863   2.855  0.6705 -1.1420 -0.1766
14872TIP3   OH266030   5.125   3.815   1.089 -0.5928 -0.0527  0.3345
14872TIP3    H166031   5.172   3.818   1.006  0.5673  1.7185  1.0211
14872TIP3    H266032   5.048   3.870   1.075  0.1711  1.1508  0.7376
14873TIP3   OH266033   5.777   2.131   5.182  0.2504  0.2877  0.2159
14873TIP3    H166034   5.794   2.076   5.106 -0.7397  0.9635 -0.5144
14873TIP3    H266035   5.863   2.163   5.208  0.6169 -0.0769 -0.5235
14874TIP3   OH266036   0.319   4.383  12.718 -0.0419 -0.2786 -0.2938
14874TIP3    H166037   0.334   4.415  12.629 -2.0693  1.9104  0.0768
14874TIP3    H266038   0.348   4.455  12.775 -0.8566 -0.7385  0.7282
14875TIP3   OH266039   1.264   4.252  12.941  0.5099 -0.0633 -0.3165
14875TIP3    H166040   1.245   4.166  12.904  0.1768 -0.1524  0.0568
14875TIP3    H266041   1.359   4.255  12.947  0.4711 -0.9855  1.0237
14876TIP3   OH266042   1.500   0.015  16.371 -0.8271 -0.0396 -0.6887
14876TIP3    H166043   1.508   0.044  16.280 -0.2623 -1.7572 -1.2056
14876TIP3    H266044   1.591   0.011  16.403 -0.8964 -1.0586 -0.5906
14877TIP3   OH266045   5.376   0.557  13.989  0.0361  0.2929 -0.3810
14877TIP3    H166046   5.443   0.578  14.054  0.4935 -0.7804 -0.4996
14877TIP3    H266047   5.296   0.599  14.021  0.7731  1.6384 -0.2712
14878TIP3   OH266048   2.149   6.013  15.160 -0.4600  0.3444 -0.3280
14878TIP3    H166049   2.181   5.929  15.192  0.0293  0.5057 -0.3826
14878TIP3    H266050   2.224   6.072  15.170 -0.6159  0.6330 -0.8367
14879TIP3   OH266051   0.876   2.341  14.922 -0.1358 -0.0601 -0.0457
14879TIP3    H166052   0.876   2.288  14.843  2.1460 -0.1136 -0.0429
14879TIP3    H266053   0.967   2.370  14.932 -0.3370 -0.1988  2.6517
14880TIP3   OH266054   4.287   1.932   4.613 -0.3646 -0.0028 -0.7050
14880TIP3    H166055   4.379   1.948   4.635 -0.4108  0.1488 -0.6203
14880TIP3    H266056   4.285   1.842   4.580  0.0173  0.4024 -1.8396
14881TIP3   OH266057   0.373   2.366   2.896  0.6736  0.3121  0.0573
14881TIP3    H166058   0.400   2.438   2.953 -0.2320  1.3285 -0.8022
14881TIP3    H266059   0.280   2.354   2.913  0.9324 -1.0666  0.6335
14882TIP3   OH266060   4.235   1.123  13.900 -0.3736 -0.4742  0.7058
14882TIP3    H166061   4.156   1.158  13.941 -0.3553 -0.3866  0.6662
14882TIP3    H266062   4.203   1.077  13.822 -0.4796 -1.2478  1.1990
14883TIP3   OH266063   3.271   1.266  12.035 -0.2646 -0.0231  0.0631
14883TIP3    H166064   3.262   1.174  12.061 -0.1117 -0.5732 -1.7609
14883TIP3    H266065   3.357   1.271  11.993 -0.4909  0.8463 -0.3160
14884TIP3   OH266066   4.324   4.552   4.218 -0.2580 -0.0229  0.3619
14884TIP3    H166067   4.386   4.479   4.222 -0.2858  0.0535  2.4487
14884TIP3    H266068   4.307   4.563   4.124  2.3058 -0.5112 -0.1929
14885TIP3   OH266069   4.118   5.013   2.799  0.0931 -0.2329 -0.1258
14885TIP3    H166070   4.026   4.994   2.783  0.0818  0.4286 -0.8808
14885TIP3    H266071   4.135   4.978   2.886 -0.9813  0.0247  0.1941
14886TIP3   OH266072   0.827   6.183  16.347  0.1025 -0.0332 -0.5414
14886TIP3    H166073   0.761   6.155  16.283 -0.3652  1.7007 -0.8516
14886TIP3    H266074   0.887   6.237  16.296  1.0305 -0.5256  0.0215
14887TIP3   OH266075   5.870   4.713   1.228 -0.2964  0.9501  0.7531
14887TIP3    H166076   5.850   4.632   1.276  2.6068  0.9002  1.9680
14887TIP3    H266077   5.823   4.781   1.276 -1.9490  0.1464  0.3137
14888TIP3   OH266078   0.615   2.988   5.313  0.0356 -0.2618  0.3698
14888TIP3    H166079   0.577   3.076   5.309 -0.9201 -0.6611  0.5116
14888TIP3    H266080   0.568   2.945   5.384  1.3886 -0.4736  1.1421
14889TIP3   OH266081   3.842   0.779   1.922  0.4749 -0.3323 -0.0814
14889TIP3    H166082   3.874   0.774   2.012 -0.7054 -2.0052  0.2528
14889TIP3    H266083   3.921   0.796   1.870  1.0537  1.5595  1.3281
14890TIP3   OH266084   3.987   2.957  16.611  0.9215 -0.2092 -0.0077
14890TIP3    H166085   4.027   2.970  16.696 -0.4941 -0.0510  0.6394
14890TIP3    H266086   4.020   3.030  16.557  1.2917  0.0606  0.5823
14891TIP3   OH266087   2.319   3.132   4.109  0.5381 -0.0061  0.3077
14891TIP3    H166088   2.262   3.069   4.065  1.0516 -0.4894  0.3305
14891TIP3    H266089   2.288   3.132   4.200  0.6158 -0.3220  0.3359
14892TIP3   OH266090   1.701   2.460   3.804  0.3604 -0.6122  0.0545
14892TIP3    H166091   1.761   2.521   3.848 -0.3430 -0.3551  0.6699
14892TIP3    H266092   1.697   2.492   3.714  1.3093 -0.7588 -0.0472
14893TIP3   OH266093   6.453   5.216  12.380 -0.1061 -0.3119 -0.5348
14893TIP3    H166094   6.429   5.297  12.336 -0.9982 -2.0028 -3.2695
14893TIP3    H266095   6.369   5.179  12.409  0.2390 -0.6152  0.0884
14894TIP3   OH266096   6.082   5.386  11.594  0.2064 -0.1956 -0.2139
14894TIP3    H166097   6.086   5.297  11.557  1.7364 -0.3990  0.4085
14894TIP3    H266098   6.044   5.374  11.681 -2.2606  0.1366 -1.1911
14895TIP3   OH266099   2.255   3.321   3.620 -0.0287 -0.2453  0.2764
14895TIP3    H166100   2.311   3.360   3.553  0.3551  0.3772  0.9597
14895TIP3    H266101   2.293   3.234   3.635 -0.9948 -0.9740 -1.3732
14896TIP3   OH266102   4.198   6.057   0.672  0.0484  0.0353  0.3578
14896TIP3    H166103   4.171   5.975   0.713  1.3945 -1.1734 -1.0652
14896TIP3    H266104   4.180   6.124   0.737 -1.9805 -1.2632  1.1921
14897TIP3   OH266105   1.710   3.919   1.914 -0.4511  0.4190  0.2586
14897TIP3    H166106   1.654   3.853   1.956 -0.3426 -1.2913 -2.1868
14897TIP3    H266107   1.671   3.934   1.829  1.0739  1.5331 -0.2734
14898TIP3   OH266108   1.677   0.884   1.190 -0.0685  0.2112  0.0082
14898TIP3    H166109   1.611   0.818   1.212  0.5485  0.5234  3.0264
14898TIP3    H266110   1.760   0.842   1.210  0.5244  0.7564 -1.2621
14899TIP3   OH266111   3.290   2.015   5.700 -0.3612 -0.2013 -0.1082
14899TIP3    H166112   3.382   1.990   5.695  0.0961  1.5055 -0.7739
14899TIP3    H266113   3.286   2.098   5.652 -2.0701  0.1980  0.7091
14900TIP3   OH266114   2.089   3.027   2.319  1.0891 -0.1496 -0.3570
14900TIP3    H166115   2.104   3.068   2.404 -0.1942  0.8230 -0.5842
14900TIP3    H266116   2.144   2.949   2.320 -0.2705 -1.1243  2.0555
14901TIP3   OH266117   2.234   6.536   4.757 -0.4702  0.5650 -0.1769
14901TIP3    H166118   2.181   6.533   4.837  1.2820  0.8412  1.0059
14901TIP3    H266119   2.323   6.552   4.787  0.5119 -1.1063 -2.0693
14902TIP3   OH266120   5.049   1.361  14.220 -0.0672  0.3876 -0.1055
14902TIP3    H166121   5.065   1.309  14.299  0.5307  0.2044 -0.3413
14902TIP3    H266122   5.134   1.365  14.177 -0.0746  1.6752 -0.0252
14903TIP3   OH266123   3.588   3.339  14.994 -0.1032  0.1322 -0.3754
14903TIP3    H166124   3.562   3.309  15.081 -2.2506 -0.8398 -1.3239
14903TIP3    H266125   3.664   3.286  14.971 -0.4923 -0.6952  0.2547
14904TIP3   OH266126   0.331   1.997  15.570 -0.4556 -0.4781  0.5657
14904TIP3    H166127   0.328   2.091  15.584 -0.2357 -0.4989  0.7552
14904TIP3    H266128   0.245   1.975  15.534 -0.1492 -0.0522 -0.4451
14905TIP3   OH266129   4.700   5.390  11.633 -0.7022  0.0038 -0.2696
14905TIP3    H166130   4.699   5.304  11.590 -0.7286  0.2542 -0.7622
14905TIP3    H266131   4.719   5.452  11.563 -3.6553  0.7279 -0.5033
14906TIP3   OH266132   1.483   3.340  12.031  0.2749 -0.0468  0.2807
14906TIP3    H166133   1.526   3.389  11.961  0.6985 -0.5430  0.1874
14906TIP3    H266134   1.422   3.402  12.071 -2.5366 -0.6978 -2.7660
14907TIP3   OH266135   2.800   5.304  14.848 -0.1560  0.3816 -0.1555
14907TIP3    H166136   2.745   5.369  14.805  0.1297  1.8500  1.6140
14907TIP3    H266137   2.889   5.334  14.834  0.0143 -0.0329  0.0248
14908TIP3   OH266138   0.530   1.876  15.714 -0.2600 -0.2583 -0.1676
14908TIP3    H166139   0.486   1.905  15.635  2.0157  0.0076 -1.3638
14908TIP3    H266140   0.513   1.945  15.778 -0.5948  0.4094 -0.9758
14909TIP3   OH266141   0.529   4.533  15.520 -0.3462 -0.1358  0.3351
14909TIP3    H166142   0.467   4.605  15.532 -0.7055 -0.4134  0.1634
14909TIP3    H266143   0.475   4.454  15.523  0.2647 -0.5098  2.3370
14910TIP3   OH266144   1.973   1.437   2.464  0.7228  0.2823 -0.1201
14910TIP3    H166145   1.889   1.469   2.432  1.0656  1.7790  0.4290
14910TIP3    H266146   1.952   1.390   2.544  0.4596  1.1639  0.3337
14911TIP3   OH266147   6.246   5.670   3.635  0.4087 -0.1155 -0.2740
14911TIP3    H166148   6.287   5.592   3.598  0.9517 -0.4145  0.9393
14911TIP3    H266149   6.274   5.741   3.577  0.1312 -0.7658 -1.2264
14912TIP3   OH266150   4.319   5.998  16.941 -0.4932  0.2759  0.2088
14912TIP3    H166151   4.315   5.973  17.033 -1.8066  0.3382  0.1783
14912TIP3    H266152   4.306   5.916  16.893  0.8171  0.1435  0.0696
14913TIP3   OH266153   4.367   2.046  14.288  1.1132  0.3785 -0.2693
14913TIP3    H166154   4.321   2.118  14.245  0.3232 -0.6520 -1.1979
14913TIP3    H266155   4.420   2.007  14.218  2.9720  1.2007  0.6621
14914TIP3   OH266156   6.303   2.933   3.727 -0.2888  0.0717  0.1884
14914TIP3    H166157   6.211   2.914   3.706 -0.5947  1.4874  0.1686
14914TIP3    H266158   6.353   2.866   3.681 -1.3286 -0.8297  0.3518
14915TIP3   OH266159   6.668   0.698  12.387 -0.2728  0.0245  0.4017
14915TIP3    H166160   6.733   0.628  12.375 -0.5583  0.0524 -1.4019
14915TIP3    H266161   6.717   0.779  12.373 -0.7813  0.0274 -1.5272
14916TIP3   OH266162   0.451   2.339  12.384 -0.3477 -0.7401  0.1822
14916TIP3    H166163   0.540   2.311  12.406  1.0798  0.7622 -3.2982
14916TIP3    H266164   0.461   2.429  12.352 -3.1890 -0.3453  0.2626
14917TIP3   OH266165   2.026   4.423   3.487 -0.1997  0.8906 -0.3163
14917TIP3    H166166   2.031   4.433   3.583 -0.8088 -0.8893 -0.0781
14917TIP3    H266167   1.936   4.393   3.472  0.4856 -0.6892 -1.2749
14918TIP3   OH266168   0.950   0.804  15.828 -0.6818  0.2187  0.5449
14918TIP3    H166169   0.923   0.744  15.897 -0.8557 -0.1166  0.1850
14918TIP3    H266170   0.882   0.796  15.761  0.7879 -1.3611 -0.8016
14919TIP3   OH266171   5.240   0.706  11.408 -0.4520 -0.2448  0.1878
14919TIP3    H166172   5.227   0.620  11.368  1.1370 -0.6194  0.4606
14919TIP3    H266173   5.321   0.739  11.369 -1.2993  1.3616 -0.2913
14920TIP3   OH266174   1.313   6.489  13.809 -0.0756 -0.1721 -0.2185
14920TIP3    H166175   1.373   6.517  13.877 -1.5935  0.8067  0.7233
14920TIP3    H266176   1.227   6.520  13.837 -0.4010  2.4705 -3.7671
14921TIP3   OH266177   3.252   4.512  16.421  0.1547 -0.8203 -0.2546
14921TIP3    H166178   3.298   4.502  16.504 -0.1590 -2.3184 -0.2441
14921TIP3    H266179   3.284   4.438  16.368 -1.3382 -1.1741 -0.6692
14922TIP3   OH266180   5.743   6.495  16.781  0.1068  0.0536 -0.6456
14922TIP3    H166181   5.702   6.560  16.838 -0.6796  0.1380 -1.3053
14922TIP3    H266182   5.826   6.535  16.755 -0.9671  1.3645 -2.1141
14923TIP3   OH266183   6.215   5.696   6.079 -0.0878  0.1035 -0.0224
14923TIP3    H166184   6.149   5.685   6.011 -0.5145  1.8635  0.1012
14923TIP3    H266185   6.297   5.667   6.037 -0.3399  1.1845 -1.2893
14924TIP3   OH266186   5.239   3.156  13.756  0.6168  0.5839  0.0581
14924TIP3    H166187   5.311   3.117  13.807 -0.6392 -0.7984  0.8126
14924TIP3    H266188   5.261   3.249  13.751  2.7796  0.0759 -0.2641
14925TIP3   OH266189   0.529   3.338  10.855  0.0894 -0.2580 -0.2936
14925TIP3    H166190   0.507   3.287  10.932 -0.5017  1.7824  0.9454
14925TIP3    H266191   0.448   3.340  10.803 -0.1037  0.0030  0.0122
14926TIP3   OH266192   3.305   4.246  12.447  0.3758 -0.1250  0.3031
14926TIP3    H166193   3.292   4.174  12.510 -2.7332 -0.1720 -0.3270
14926TIP3    H266194   3.320   4.202  12.363 -1.2081 -0.0584 -0.0232
14927TIP3   OH266195   2.340   1.355  10.900 -0.0354  0.0595  0.0856
14927TIP3    H166196   2.414   1.402  10.938 -2.0918  1.3889  2.5359
14927TIP3    H266197   2.336   1.387  10.809  1.0917  1.5699  0.5433
14928TIP3   OH266198   3.665   2.289  16.003 -0.1664 -0.3692 -0.0597
14928TIP3    H166199   3.705   2.343  16.071 -2.1846  0.0002  0.8637
14928TIP3    H266200   3.688   2.333  15.921  0.2808  0.5172  0.5400
14929TIP3   OH266201   1.159   5.025   5.476 -0.1719  0.0946 -0.4167
14929TIP3    H166202   1.235   5.016   5.418  0.7109  0.7191  0.6249
14929TIP3    H266203   1.195   5.019   5.564 -1.5312 -1.0330  0.0844
14930TIP3   OH266204   2.420   1.850   5.349  0.2105  0.1593  0.4372
14930TIP3    H166205   2.347   1.801   5.313  0.1936  0.9762 -0.6630
14930TIP3    H266206   2.385   1.938   5.362  0.7569  0.3390  0.6986
14931TIP3   OH266207   5.074   0.187  13.114 -0.2581 -0.6150  0.2816
14931TIP3    H166208   5.089   0.162  13.205 -1.9306  0.1867  0.7894
14931TIP3    H266209   5.052   0.105  13.070  1.7074 -1.1945  0.3255
14932TIP3   OH266210   0.047   2.169   4.298  0.0199  0.1935 -0.3881
14932TIP3    H166211   0.113   2.195   4.363 -1.0844 -0.0651  0.8775
14932TIP3    H266212   0.052   2.073   4.296 -0.2199  0.1799 -0.3765
14933TIP3   OH266213   4.983   0.326   5.194  0.0415  0.1366 -0.2905
14933TIP3    H166214   5.062   0.381   5.202  0.9788 -1.2190 -0.1199
14933TIP3    H266215   4.989   0.264   5.267 -1.2344  0.0676 -0.2288
14934TIP3   OH266216   2.146   2.203   6.124 -0.2699 -0.5100  0.1466
14934TIP3    H166217   2.204   2.259   6.074  0.2872  0.2773  1.6417
14934TIP3    H266218   2.075   2.261   6.153 -0.4025 -0.8765  0.5661
14935TIP3   OH266219   6.718   4.576   5.324 -0.0464 -0.2963  0.6013
14935TIP3    H166220   6.729   4.670   5.339  0.0772 -0.1444 -0.3867
14935TIP3    H266221   6.700   4.569   5.230  1.5066 -1.3870  0.3581
14936TIP3   OH266222   1.139   1.078  12.102 -0.4175  0.7223  0.1608
14936TIP3    H166223   1.117   1.008  12.041  0.8843 -0.4730  1.0478
14936TIP3    H266224   1.113   1.158  12.057 -0.0958 -0.1911 -1.6817
14937TIP3   OH266225   3.352   1.865   4.420  0.4276 -0.2275 -0.0617
14937TIP3    H166226   3.355   1.951   4.462 -2.3114 -0.5104  0.8379
14937TIP3    H266227   3.347   1.803   4.493 -0.1510 -0.9882 -0.7327
14938TIP3   OH266228   3.352   2.983  12.744 -0.3538 -0.3179  0.0073
14938TIP3    H166229   3.308   3.063  12.716 -1.5918 -1.1558 -0.4465
14938TIP3    H266230   3.284   2.917  12.746  0.8775 -1.6413 -0.7080
14939TIP3   OH266231   3.386   6.111   1.821  0.4128  0.8811  0.3101
14939TIP3    H166232   3.422   6.032   1.861 -1.1802  0.1305  0.2604
14939TIP3    H266233   3.450   6.179   1.842  1.8493 -0.4253  0.2720
14940TIP3   OH266234   3.076   0.244  15.614  0.6125  0.0061 -0.2009
14940TIP3    H166235   3.170   0.224  15.614  0.0706 -2.7828 -0.8187
14940TIP3    H266236   3.054   0.249  15.521  0.0537  0.1721 -0.0578
14941TIP3   OH266237   2.985   4.388   3.507 -0.2086 -0.1027  0.5300
14941TIP3    H166238   3.045   4.327   3.464 -1.8762 -1.6824  0.3716
14941TIP3    H266239   3.042   4.449   3.553  1.5572 -0.1227 -1.5508
14942TIP3   OH266240   4.208   3.896  12.841  0.0736  0.1619  0.1111
14942TIP3    H166241   4.242   3.806  12.840 -0.7404 -0.1525  0.4536
14942TIP3    H266242   4.217   3.924  12.932  1.7878  0.9982 -0.2932
14943TIP3   OH266243   3.553   2.877   3.664 -0.4955  0.2899  0.2049
14943TIP3    H166244   3.604   2.855   3.742 -0.6491  0.3852  0.3327
14943TIP3    H266245   3.550   2.795   3.614  0.6325  0.5443 -0.2902
14944TIP3   OH266246   0.921   3.705   0.062 -0.9161 -0.2936 -0.1084
14944TIP3    H166247   0.961   3.709  -0.025  2.3375  1.4174  1.3701
14944TIP3    H266248   0.992   3.728   0.122 -2.7489 -2.5774  3.1238
14945TIP3   OH266249   1.307   3.462   1.844 -0.7489  0.0047 -0.1506
14945TIP3    H166250   1.292   3.534   1.906 -0.8105 -0.5430  0.4779
14945TIP3    H266251   1.343   3.505   1.766 -1.6942  0.8301 -0.1397
14946TIP3   OH266252   4.974   4.919  15.658 -0.4005  0.5607  0.0217
14946TIP3    H166253   5.013   4.937  15.743  2.4178 -0.2901 -1.0241
14946TIP3    H266254   4.959   4.824  15.658 -1.6641  0.7516  0.0661
14947TIP3   OH266255   5.251   2.590   4.427  0.0530 -0.7877 -0.2056
14947TIP3    H166256   5.278   2.531   4.358 -0.4860 -1.7954  0.4346
14947TIP3    H266257   5.249   2.676   4.386  1.7609 -1.0645 -0.8986
14948TIP3   OH266258   2.026   3.368   0.238 -0.0539  0.0320  0.3582
14948TIP3    H166259   2.083   3.340   0.166 -0.5054  1.9356 -0.7743
14948TIP3    H266260   2.079   3.432   0.286 -0.9610  1.3259 -0.3261
14949TIP3   OH266261   5.544   5.036   0.058 -0.5251 -0.4936  0.4509
14949TIP3    H166262   5.540   4.994   0.144  0.4415 -0.3160  0.5921
14949TIP3    H266263   5.472   5.098   0.058 -2.2200 -2.3961  0.1020
14950TIP3   OH266264   0.449   3.663   4.441 -0.1932  0.2503 -0.1617
14950TIP3    H166265   0.366   3.698   4.474 -0.6636 -0.6615 -0.3445
14950TIP3    H266266   0.491   3.626   4.519  0.0402  0.7050 -0.0697
14951TIP3   OH266267   4.621   2.073   4.386  0.2047 -0.1953 -0.3343
14951TIP3    H166268   4.663   2.137   4.443  1.3129  0.1500 -1.5224
14951TIP3    H266269   4.629   2.110   4.298  0.2656 -1.6456 -0.9537
14952TIP3   OH266270   0.748   4.940   0.368  0.0572 -0.4340  0.3414
14952TIP3    H166271   0.665   4.976   0.401  0.1202 -1.1268  1.2825
14952TIP3    H266272   0.813   4.968   0.432  0.2808 -1.2880  0.4948
14953TIP3   OH266273   5.676   6.072   5.929  0.3701 -0.0943  0.5332
14953TIP3    H166274   5.711   6.084   5.840 -0.4700 -0.6967  0.1159
14953TIP3    H266275   5.581   6.067   5.916  0.1626  0.9775  1.5928
14954TIP3   OH266276   6.025   1.490   3.585 -0.0116  0.0290  0.4268
14954TIP3    H166277   5.952   1.433   3.608  0.0677 -0.7596 -1.2014
14954TIP3    H266278   5.985   1.566   3.543  0.0707 -0.1013  0.1153
14955TIP3   OH266279   2.234   4.441  10.594 -0.1967  0.0359 -0.3653
14955TIP3    H166280   2.219   4.386  10.518  0.5680 -0.8684  0.1285
14955TIP3    H266281   2.241   4.530  10.559 -1.5418 -0.1608 -1.1481
14956TIP3   OH266282   1.283   2.616  14.511  0.9256 -0.6788 -0.1941
14956TIP3    H166283   1.302   2.548  14.447  1.1313 -2.0695  1.3045
14956TIP3    H266284   1.224   2.677  14.466  0.4654 -2.0405 -1.4390
14957TIP3   OH266285   3.319   4.954  16.390  0.1646 -0.2385  0.1680
14957TIP3    H166286   3.278   5.033  16.354  1.6998  0.3095 -0.4367
14957TIP3    H266287   3.362   4.913  16.314 -2.9423 -3.1919 -0.1334
14958TIP3   OH266288   4.797   6.147   0.285 -0.3690  0.4728  0.0607
14958TIP3    H166289   4.872   6.163   0.228 -0.9171 -1.0281 -1.1151
14958TIP3    H266290   4.817   6.063   0.328 -1.2982  0.1257 -0.1706
14959TIP3   OH266291   6.735   5.262  13.214  0.0309  0.1683 -0.1796
14959TIP3    H166292   6.650   5.223  13.232 -0.4270  0.6340 -1.2603
14959TIP3    H266293   6.729   5.351  13.247  0.4817 -0.1416  0.7387
14960TIP3   OH266294   6.737   4.192  14.693  0.5091 -0.5375 -0.2211
14960TIP3    H166295   6.746   4.250  14.769 -1.2134 -0.7021  0.1173
14960TIP3    H266296   6.729   4.252  14.619 -1.1918 -0.3280  0.1179
14961TIP3   OH266297   2.874   3.947  15.467  0.1337  0.0386  0.4770
14961TIP3    H166298   2.962   3.912  15.483  0.3570  0.9028  1.1419
14961TIP3    H266299   2.832   3.946  15.552 -0.0342  0.9152  0.4109
14962TIP3   OH266300   6.369   1.747  11.205  0.2410 -0.4190 -0.0676
14962TIP3    H166301   6.398   1.798  11.281 -0.0746  0.5631 -0.5921
14962TIP3    H266302   6.279   1.776  11.190  1.2004  1.5418 -2.5405
14963TIP3   OH266303   1.475   1.753   0.927 -0.6197  0.5527 -0.2225
14963TIP3    H166304   1.559   1.711   0.913 -0.7810 -0.3663  1.4664
14963TIP3    H266305   1.442   1.771   0.839 -0.1113 -1.9985 -0.9623
14964TIP3   OH266306   3.652   1.825  14.474  0.6516 -0.1648 -0.3763
14964TIP3    H166307   3.746   1.808  14.479  0.6982  0.4442  1.1367
14964TIP3    H266308   3.627   1.847  14.564 -0.8291  0.2276 -0.8717
14965TIP3   OH266309   2.986   3.432   0.524 -0.0955  0.1599  0.3968
14965TIP3    H166310   2.965   3.405   0.613 -0.6227  0.3207  0.3243
14965TIP3    H266311   3.081   3.433   0.521 -0.0719 -0.3392  0.8094
14966TIP3   OH266312   5.880   1.613   2.784  0.7191 -0.7276  0.3019
14966TIP3    H166313   5.842   1.535   2.742  2.4660 -1.4808  0.0622
14966TIP3    H266314   5.968   1.620   2.746  1.7164 -0.4184  2.5844
14967TIP3   OH266315   6.572   3.233   5.671 -0.3425 -0.0880 -0.2934
14967TIP3    H166316   6.630   3.309   5.675  0.0362 -0.3299 -1.1230
14967TIP3    H266317   6.564   3.204   5.762  1.6308 -0.6358 -0.2735
14968TIP3   OH266318   6.487   1.353  13.413  0.1159  0.2886  0.1209
14968TIP3    H166319   6.494   1.419  13.482  1.0163  0.0526  0.2611
14968TIP3    H266320   6.562   1.368  13.357  0.4165 -0.7078  0.2402
14969TIP3   OH266321   6.395   5.864  12.428 -0.0681  0.3615  0.3984
14969TIP3    H166322   6.438   5.852  12.343  0.0931  0.0170  0.5271
14969TIP3    H266323   6.429   5.793  12.482 -1.6116 -0.5879  0.1818
14970TIP3   OH266324   4.678   3.311   0.758  0.2482  0.6253  0.0272
14970TIP3    H166325   4.756   3.333   0.809  0.4697  1.1420 -0.5252
14970TIP3    H266326   4.712   3.278   0.675 -0.1002 -1.0530  0.5429
14971TIP3   OH266327   2.619   4.663  10.917  0.2921  0.3790  0.0360
14971TIP3    H166328   2.652   4.733  10.861  0.9992 -1.0136 -1.3231
14971TIP3    H266329   2.680   4.591  10.905  0.9084  0.3067  3.2497
14972TIP3   OH266330   6.170   1.226   4.543 -0.3196 -0.2532  0.3700
14972TIP3    H166331   6.214   1.271   4.615 -0.4927  0.6530 -0.0897
14972TIP3    H266332   6.077   1.229   4.566 -0.4493  0.7267 -0.2735
14973TIP3   OH266333   0.255   3.589  14.989 -0.4653  0.4274 -0.5324
14973TIP3    H166334   0.205   3.668  15.009 -0.5355  0.1132  0.5627
14973TIP3    H266335   0.321   3.617  14.926  0.7479  1.7794  1.3139
14974TIP3   OH266336   1.107   6.022  13.047  0.1980 -0.3023  0.0675
14974TIP3    H166337   1.121   5.943  12.994 -3.4178  0.3778 -2.0411
14974TIP3    H266338   1.016   6.015  13.077  1.2045  0.9184  3.6110
14975TIP3   OH266339   0.860   3.654   0.650 -0.2317 -0.2350  0.3998
14975TIP3    H166340   0.935   3.597   0.635  0.7670  0.9748  0.6936
14975TIP3    H266341   0.839   3.688   0.563  1.1838  1.3938  0.6644
14976TIP3   OH266342   2.834   0.733  13.313  0.0326  0.1228 -0.0461
14976TIP3    H166343   2.823   0.710  13.220  1.0509  1.0799 -0.4208
14976TIP3    H266344   2.920   0.698  13.336 -0.1838 -0.0441  0.5251
14977TIP3   OH266345   2.006   2.940   4.796 -0.2503  0.1180  0.1311
14977TIP3    H166346   2.073   2.917   4.860  0.4407  1.7054 -0.0122
14977TIP3    H266347   1.948   3.001   4.841 -0.6446  0.0633 -0.2861
14978TIP3   OH266348   0.839   3.114  13.099  0.1649 -0.1300 -0.1593
14978TIP3    H166349   0.776   3.044  13.082  0.0959 -0.3336  0.8714
14978TIP3    H266350   0.798   3.192  13.063 -1.3016 -0.0146  1.6880
14979TIP3   OH266351   0.700   3.972  15.029 -0.4303  0.4327 -0.0269
14979TIP3    H166352   0.791   3.961  15.055 -0.9060 -1.3122  0.9845
14979TIP3    H266353   0.702   4.040  14.962  1.6271  0.2744 -0.1446
14980TIP3   OH266354   2.255   1.337   4.929 -0.0985 -0.4092  0.0896
14980TIP3    H166355   2.255   1.259   4.873 -2.0960 -1.3159  1.3166
14980TIP3    H266356   2.343   1.338   4.967  0.6667 -0.8271 -1.6108
14981TIP3   OH266357   4.947   2.099   0.708 -0.0081  0.0939 -0.1823
14981TIP3    H166358   4.989   2.016   0.732  0.8644  0.7778  0.7020
14981TIP3    H266359   4.864   2.098   0.755  0.8385  0.5510  1.3609
14982TIP3   OH266360   1.708   6.665   1.225 -0.6552 -0.6307  0.5591
14982TIP3    H166361   1.725   6.622   1.309 -1.9552 -0.5463  0.8719
14982TIP3    H266362   1.795   6.678   1.186 -0.1135 -1.4678  1.4924
14983TIP3   OH266363   5.285   2.813   4.260  0.1931  0.1374  0.0396
14983TIP3    H166364   5.294   2.778   4.171 -1.5256 -1.1048  0.3193
14983TIP3    H266365   5.214   2.876   4.254 -0.4221 -0.4948  0.6897
14984TIP3   OH266366   5.362   2.253  11.022  0.2105  0.1061  0.4045
14984TIP3    H166367   5.282   2.302  11.005 -0.1704 -0.4949  0.4519
14984TIP3    H266368   5.432   2.318  11.018 -0.5610  1.2135  3.4589
14985TIP3   OH266369   2.271   2.881  15.246  0.7457  0.8554  0.2622
14985TIP3    H166370   2.340   2.938  15.212  0.9727  0.6465  0.3672
14985TIP3    H266371   2.316   2.799  15.267  0.1363  0.0499 -1.4674
14986TIP3   OH266372   1.229   3.125   1.267 -0.7205  0.4143  0.3178
14986TIP3    H166373   1.238   3.129   1.362 -2.5946 -0.7590  0.5709
14986TIP3    H266374   1.137   3.145   1.251  0.2210  3.6947 -1.5016
14987TIP3   OH266375   0.235   2.918  13.860  0.2957  0.4145 -0.1986
14987TIP3    H166376   0.271   2.960  13.782  0.0973  0.8880 -0.0415
14987TIP3    H266377   0.197   2.991  13.910 -3.9536 -0.4495 -1.9765
14988TIP3   OH266378   2.556   2.946   0.397  0.0325  0.6093  0.6431
14988TIP3    H166379   2.522   3.033   0.377  0.1563  0.5739  0.2874
14988TIP3    H266380   2.486   2.886   0.373  1.5445  0.2645 -3.2628
14989TIP3   OH266381   0.125   6.251  14.524  0.2983 -0.3528 -0.0127
14989TIP3    H166382   0.093   6.162  14.538  0.5695  0.0416  3.6336
14989TIP3    H266383   0.046   6.305  14.522  0.2456 -0.4204  0.1853
14990TIP3   OH266384   3.945   1.191   3.200  0.1470  0.5901 -0.5688
14990TIP3    H166385   3.952   1.096   3.189  0.4417  0.5591 -0.1223
14990TIP3    H266386   4.020   1.226   3.152  1.2139  0.4765  0.9692
14991TIP3   OH266387   4.843   2.229   3.499 -0.0313  0.6023  0.0232
14991TIP3    H166388   4.904   2.302   3.509  1.5946 -0.6977 -0.2307
14991TIP3    H266389   4.824   2.201   3.589  0.2480  0.6080  0.0842
14992TIP3   OH266390   0.273   0.894   2.893  0.4773  0.2470 -0.7808
14992TIP3    H166391   0.219   0.831   2.940  0.7592  0.3096 -0.3738
14992TIP3    H266392   0.221   0.917   2.815 -0.3087  0.6912 -0.1357
14993TIP3   OH266393   0.645   5.316  14.340 -0.4677 -0.0992  0.5621
14993TIP3    H166394   0.648   5.369  14.261 -4.5142 -1.4341 -0.6187
14993TIP3    H266395   0.672   5.229  14.312 -1.4490 -0.4626  0.7303
14994TIP3   OH266396   1.682   0.264   3.176  0.0495  0.7232 -0.2521
14994TIP3    H166397   1.637   0.349   3.174 -0.8569  0.2615 -0.1315
14994TIP3    H266398   1.720   0.260   3.263  0.1099  1.0186 -0.2637
14995TIP3   OH266399   1.798   4.773  13.570 -0.3281  0.0725  0.0578
14995TIP3    H166400   1.738   4.835  13.529 -0.7726 -0.7626 -0.5694
14995TIP3    H266401   1.768   4.766  13.661 -1.7404 -1.0106 -0.4789
14996TIP3   OH266402   3.989   4.122   5.394  0.2913 -0.0078  0.0160
14996TIP3    H166403   3.939   4.200   5.419  0.9410 -0.1985  2.0441
14996TIP3    H266404   3.923   4.061   5.362 -0.4584  0.7203  0.1458
14997TIP3   OH266405   3.924   1.853  13.352 -0.4485  0.4721 -0.5152
14997TIP3    H166406   3.879   1.924  13.398  0.0074  0.6389 -0.3166
14997TIP3    H266407   3.933   1.784  13.416  0.2084  0.7135 -0.3431
14998TIP3   OH266408   4.234   0.927   1.747  0.1517 -0.2776  0.0353
14998TIP3    H166409   4.251   1.007   1.698 -0.2358  0.1569  0.6020
14998TIP3    H266410   4.311   0.916   1.803  0.0957 -0.1655  0.1352
14999TIP3   OH266411   0.396   5.740   4.953  0.4744  0.7627  0.6103
14999TIP3    H166412   0.430   5.691   4.878 -0.1313 -0.9087  1.4084
14999TIP3    H266413   0.308   5.705   4.966 -0.5019  3.0138  0.3707
15000TIP3   OH266414   0.438   6.517  14.922  0.6304 -0.1804 -0.0292
15000TIP3    H166415   0.363   6.479  14.966  1.2517  0.0010  1.1885
15000TIP3    H266416   0.462   6.593  14.975  0.3566  1.0235 -1.5796
15001TIP3   OH266417   3.099   6.650  14.382  0.3355 -0.1271 -0.8162
15001TIP3    H166418   3.193   6.650  14.398 -0.2149  1.1590  2.8994
15001TIP3    H266419   3.075   6.558  14.378  1.7499 -0.4661 -1.9280
15002TIP3   OH266420   5.346   1.117  13.850  0.1119 -0.5150  0.3325
15002TIP3    H166421   5.434   1.082  13.839  0.2114  0.1754 -1.1916
15002TIP3    H266422   5.358   1.209  13.871 -0.2369 -0.4360  0.2007
15003TIP3   OH266423   1.808   0.827   3.680 -0.0461 -0.2124  0.0372
15003TIP3    H166424   1.891   0.795   3.644 -0.1576  0.9287 -1.2537
15003TIP3    H266425   1.752   0.841   3.604 -1.5109 -1.1448  0.9051
15004TIP3   OH266426   3.624   1.731   4.530  0.5406 -0.4422  0.0245
15004TIP3    H166427   3.655   1.692   4.449 -0.4520 -0.3522 -0.4069
15004TIP3    H266428   3.667   1.816   4.533  1.1204 -0.7313 -0.0576
15005TIP3   OH266429   6.108   4.759  15.220 -0.4043  0.3423  0.1463
15005TIP3    H166430   6.131   4.695  15.153 -0.0539 -2.0261  2.4031
15005TIP3    H266431   6.038   4.718  15.270 -1.8912  2.8080  0.1524
15006TIP3   OH266432   2.650   6.223  14.205 -0.0722  0.0554 -0.4764
15006TIP3    H166433   2.660   6.273  14.123  0.3406  1.8437  0.6311
15006TIP3    H266434   2.564   6.248  14.238  1.2123  2.1620  1.4416
15007TIP3   OH266435   5.575   5.120  13.832  0.1693  0.3718 -0.1772
15007TIP3    H166436   5.543   5.091  13.917  1.0178 -0.8024 -0.2464
15007TIP3    H266437   5.608   5.040  13.790 -0.7156  0.8503 -1.8142
15008TIP3   OH266438   3.589   4.906   0.669 -0.8788 -0.0717 -0.0868
15008TIP3    H166439   3.578   4.951   0.585 -0.0996 -1.1028 -0.7593
15008TIP3    H266440   3.624   4.973   0.728  0.4045  0.1658 -1.1074
15009TIP3   OH266441   0.401   1.010  12.493 -0.4463  0.0633 -0.4501
15009TIP3    H166442   0.471   0.946  12.508 -1.9616 -1.3922  0.6724
15009TIP3    H266443   0.432   1.062  12.419  1.8322 -0.5121  0.0415
15010TIP3   OH266444   6.675   5.259   5.590 -0.0032 -0.8916  0.1366
15010TIP3    H166445   6.709   5.203   5.521  0.1537  0.8779 -1.2683
15010TIP3    H266446   6.749   5.271   5.650  0.3651 -1.0724 -0.2847
15011TIP3   OH266447   3.205   0.326  15.899 -0.4595 -0.0680 -0.2053
15011TIP3    H166448   3.134   0.359  15.954 -0.2439  0.2743 -0.1302
15011TIP3    H266449   3.182   0.235  15.882 -0.3166 -0.3033  0.8071
15012TIP3   OH266450   0.830   0.643  13.460 -0.3078  0.1095  0.0288
15012TIP3    H166451   0.876   0.662  13.542 -0.8554  1.4700  0.0362
15012TIP3    H266452   0.869   0.704  13.397 -0.4613 -0.3643 -0.5237
15013TIP3   OH266453   6.449   1.991  13.381 -0.0942 -0.1183 -0.4711
15013TIP3    H166454   6.536   1.976  13.417 -0.2852  0.9960  0.4658
15013TIP3    H266455   6.414   1.903  13.367  0.9046 -0.5665 -0.1923
15014TIP3   OH266456   1.574   3.849  13.411  0.3169  0.0972  0.0165
15014TIP3    H166457   1.492   3.799  13.411 -0.3307  1.1290  0.3590
15014TIP3    H266458   1.638   3.790  13.373 -0.4665 -0.9337  0.2539
15015TIP3   OH266459   5.662   0.584  12.721 -0.5629 -0.1964 -0.4333
15015TIP3    H166460   5.738   0.531  12.695 -0.5957 -0.1897 -0.5462
15015TIP3    H266461   5.593   0.520  12.738 -1.2843 -0.1074 -2.8031
15016TIP3   OH266462   4.228   1.154  13.067 -0.2587 -0.3103  0.0172
15016TIP3    H166463   4.233   1.091  13.139 -0.0699  0.4272  0.6583
15016TIP3    H266464   4.139   1.145  13.033 -0.3847 -0.5880  0.4175
15017TIP3   OH266465   5.173   2.722  10.458 -0.1036  0.3736 -0.4512
15017TIP3    H166466   5.225   2.664  10.515  0.4603 -0.1840 -1.5047
15017TIP3    H266467   5.126   2.662  10.400 -2.0427  0.8682  0.5521
15018TIP3   OH266468   0.076   4.456  15.352 -0.4753  0.4326  0.2218
15018TIP3    H166469   0.143   4.446  15.419  0.3478  1.1371 -0.4925
15018TIP3    H266470  -0.007   4.457  15.401 -0.0294 -1.1434  1.0331
15019TIP3   OH266471   4.194   6.262   4.400  0.0532  0.8147  0.3359
15019TIP3    H166472   4.170   6.183   4.352 -0.9820  1.0980  0.3663
15019TIP3    H266473   4.266   6.234   4.457  0.5224  0.2050 -0.5421
15020TIP3   OH266474   5.678   0.664  15.785 -1.0046 -0.5428  0.3373
15020TIP3    H166475   5.764   0.702  15.798 -1.5607  1.1796 -0.8342
15020TIP3    H266476   5.633   0.673  15.869 -1.0424  1.2153  0.1470
15021TIP3   OH266477   1.115   5.590  16.637 -0.9250 -0.2478 -0.4560
15021TIP3    H166478   1.204   5.555  16.636 -0.6800  0.3215  0.5958
15021TIP3    H266479   1.124   5.680  16.606 -0.9332  0.2405  0.9295
15022TIP3   OH266480   4.905   0.138  12.482 -0.0870 -0.2673 -0.2881
15022TIP3    H166481   4.925   0.082  12.557  2.2560 -0.1846 -0.7944
15022TIP3    H266482   4.901   0.077  12.408 -1.9020 -0.2878 -0.1918
15023TIP3   OH266483   5.689   4.556  12.739  0.4200  0.3544  0.6182
15023TIP3    H166484   5.609   4.503  12.740  1.7430 -1.7630 -1.4091
15023TIP3    H266485   5.724   4.549  12.827 -0.3893 -0.6634  0.8629
15024TIP3   OH266486   1.377   2.060   4.393 -0.3094 -0.5250  0.0357
15024TIP3    H166487   1.366   1.990   4.457 -0.0480 -0.6358 -0.0405
15024TIP3    H266488   1.406   2.136   4.444 -3.9718  0.5588  0.6587
15025TIP3   OH266489   1.927   0.675  13.034  0.0869 -0.7110 -0.2930
15025TIP3    H166490   1.942   0.760  13.075  0.0862 -1.2056  0.7568
15025TIP3    H266491   1.902   0.618  13.106 -0.2913 -1.5137 -1.0475
15026TIP3   OH266492   5.164   4.438  11.264  0.0757 -0.2422 -0.5182
15026TIP3    H166493   5.127   4.502  11.202 -1.4276 -0.3436  0.2525
15026TIP3    H266494   5.240   4.402  11.219  1.4955  2.7450 -0.6088
15027TIP3   OH266495   5.975   3.595  13.841 -0.2013 -0.4219 -0.2326
15027TIP3    H166496   5.997   3.671  13.896  1.1989 -1.5412  0.7787
15027TIP3    H266497   6.003   3.620  13.753 -0.7491  0.6623 -0.1047
15028TIP3   OH266498   4.196   4.859  12.029 -0.1288  0.1735  0.1766
15028TIP3    H166499   4.269   4.803  12.004 -0.7896 -0.6387  0.0409
15028TIP3    H266500   4.154   4.882  11.946  0.5589  1.4486  0.1784
15029TIP3   OH266501   1.185   5.402  12.836  0.0936 -0.3101  0.4211
15029TIP3    H166502   1.175   5.318  12.881  2.1232  0.2454  1.9781
15029TIP3    H266503   1.157   5.467  12.900 -2.1576  0.1858 -1.0349
15030TIP3   OH266504   0.948   6.376  10.652  0.3343  0.1122 -0.3474
15030TIP3    H166505   0.882   6.433  10.612  1.7949  1.8746 -0.3245
15030TIP3    H266506   0.966   6.310  10.586 -1.3215 -0.2982 -0.4180
15031TIP3   OH266507   0.699   0.235   2.040 -0.2291 -0.5422  0.0149
15031TIP3    H166508   0.611   0.246   2.074 -0.1521  1.4583 -0.3776
15031TIP3    H266509   0.687   0.224   1.945 -0.1091 -1.1415  0.0667
15032TIP3   OH266510   5.688   5.959   2.201  0.3790  0.2154  0.3302
15032TIP3    H166511   5.689   5.917   2.115 -0.5126  0.1146  0.3697
15032TIP3    H266512   5.750   5.908   2.253  2.5503  1.5538 -0.8375
15033TIP3   OH266513   0.915   0.386  11.192  0.0845  0.1024 -0.6514
15033TIP3    H166514   0.839   0.443  11.203  1.7367  1.9622  1.5649
15033TIP3    H266515   0.905   0.319  11.260 -1.1714 -1.5610 -2.4104
15034TIP3   OH266516   6.099   0.241  16.880  0.3414 -0.1799 -0.1218
15034TIP3    H166517   6.105   0.325  16.835  2.9894 -0.7985 -0.9843
15034TIP3    H266518   6.097   0.176  16.809 -0.2178 -0.9242  0.5624
15035TIP3   OH266519   0.846   1.129  15.553 -0.2061 -0.4301 -0.2400
15035TIP3    H166520   0.872   1.121  15.644  0.2913 -1.9522 -0.4938
15035TIP3    H266521   0.785   1.202  15.551 -2.4873 -2.2104  1.8148
15036TIP3   OH266522   3.001   6.285  16.620  0.2634 -0.7859 -0.0098
15036TIP3    H166523   2.998   6.282  16.715 -0.2090 -0.7857 -0.0248
15036TIP3    H266524   2.909   6.286  16.593  0.3824  0.9740 -0.4100
15037TIP3   OH266525   2.992   4.634  14.902  0.0014 -0.2248 -0.2258
15037TIP3    H166526   2.945   4.656  14.822  1.1063  0.8724 -0.5956
15037TIP3    H266527   3.041   4.714  14.924  1.3298 -1.1791  0.3930
15038TIP3   OH266528   5.314   1.828  14.486 -0.6233 -0.0104 -0.1877
15038TIP3    H166529   5.382   1.772  14.449 -1.5291 -1.6906  0.6372
15038TIP3    H266530   5.350   1.855  14.571 -1.0979 -1.1251  0.3703
15039TIP3   OH266531   2.237   2.805   2.399 -0.4569 -0.0284 -0.1330
15039TIP3    H166532   2.235   2.739   2.468  1.5923  1.1287  1.0798
15039TIP3    H266533   2.308   2.776   2.341 -0.9593 -0.0138 -0.7582
15040TIP3   OH266534   5.355   3.938   4.685 -0.1452  0.0778  0.2856
15040TIP3    H166535   5.296   3.882   4.634  0.5882 -0.3769 -0.0782
15040TIP3    H266536   5.404   3.877   4.741  0.8501  0.3147 -0.3103
15041TIP3   OH266537   4.998   0.648   5.975  0.0349  0.3667 -0.4544
15041TIP3    H166538   4.965   0.636   6.064 -1.3421 -0.8857 -1.1195
15041TIP3    H266539   5.049   0.729   5.979 -0.2465  0.4661  1.4084
15042TIP3   OH266540   5.650   2.479  16.521 -0.2250 -0.0163 -0.3408
15042TIP3    H166541   5.663   2.427  16.442 -1.3242 -0.9377  0.0634
15042TIP3    H266542   5.660   2.417  16.593 -0.6783  0.5024  0.1796
15043TIP3   OH266543   2.478   2.820   4.880 -0.3257  0.3184 -0.2464
15043TIP3    H166544   2.538   2.787   4.814  0.4107  0.6105  0.2778
15043TIP3    H266545   2.507   2.780   4.962 -0.5153  0.8686  0.0945
15044TIP3   OH266546   2.722   3.404   2.871  0.7323  0.6309  0.3557
15044TIP3    H166547   2.814   3.428   2.861  1.3268 -1.5505  0.3826
15044TIP3    H266548   2.724   3.315   2.905 -1.3945  0.2032 -0.5663
15045TIP3   OH266549   5.627   0.308  13.578 -0.3449  0.1659  0.1480
15045TIP3    H166550   5.562   0.320  13.647  0.3940 -1.9616  1.2577
15045TIP3    H266551   5.688   0.243  13.613  0.8072  0.0491 -1.9781
15046TIP3   OH266552   5.473   4.469   3.074 -0.6119  0.1251  0.1642
15046TIP3    H166553   5.388   4.440   3.041  0.0857 -0.0210 -1.5442
15046TIP3    H266554   5.512   4.517   3.002  0.6529  0.4289  1.0333
15047TIP3   OH266555   5.398   5.987   5.915  0.5845 -0.1885 -0.4533
15047TIP3    H166556   5.321   5.981   5.971  1.6889 -2.7215  0.8500
15047TIP3    H266557   5.366   5.963   5.828  0.2395 -3.0777  0.4365
15048TIP3   OH266558   1.363   1.883  15.645 -0.3063 -0.4130  0.9983
15048TIP3    H166559   1.310   1.938  15.587  0.4787  0.8139  1.4254
15048TIP3    H266560   1.443   1.866  15.596  0.1369  0.1880  1.5078
15049TIP3   OH266561   0.940   6.526  13.543  0.1577 -0.4123 -0.5123
15049TIP3    H166562   0.862   6.484  13.506 -1.5959  1.1216  1.3493
15049TIP3    H266563   0.965   6.470  13.616  1.4450 -1.4510 -1.7140
15050TIP3   OH266564   1.165   5.541   0.491  0.8519 -0.0366  0.0068
15050TIP3    H166565   1.133   5.532   0.401  0.3873 -1.6177  0.3067
15050TIP3    H266566   1.187   5.451   0.517 -0.1991  0.2418  1.9030
15051TIP3   OH266567   0.693   4.033   1.682  0.2176  0.2184  0.0327
15051TIP3    H166568   0.671   4.089   1.757 -0.9748 -2.1995  1.5651
15051TIP3    H266569   0.643   4.071   1.609  0.8130  2.1701  0.5965
15052TIP3   OH266570   5.757   2.726  15.052 -0.2145  0.3569 -0.2249
15052TIP3    H166571   5.766   2.638  15.016  1.5822  0.5471 -0.3061
15052TIP3    H266572   5.826   2.732  15.118  0.3658  2.0482 -0.9523
15053TIP3   OH266573   4.555   0.973   3.481  0.3127 -1.3645 -0.2818
15053TIP3    H166574   4.554   0.998   3.574 -1.0207 -1.8996 -0.1355
15053TIP3    H266575   4.596   0.887   3.480 -0.5896 -1.8052 -0.0568
15054TIP3   OH266576   3.206   1.193  16.286 -0.1638 -0.3850  0.3490
15054TIP3    H166577   3.248   1.179  16.201  1.0890  1.6786  0.5793
15054TIP3    H266578   3.120   1.230  16.265  0.7623  1.6332 -0.0313
15055TIP3   OH266579   6.754   6.283   1.448 -0.3963 -0.3219 -0.2079
15055TIP3    H166580   6.784   6.270   1.358  2.2231  0.2407  0.5696
15055TIP3    H266581   6.781   6.203   1.494 -1.0616 -0.2781  0.2675
15056TIP3   OH266582   2.035   5.543  16.787  0.3052 -0.2504 -0.4135
15056TIP3    H166583   1.962   5.579  16.736  0.7147  1.5369  0.2201
15056TIP3    H266584   2.113   5.584  16.750  0.7825 -0.4314  0.3772
15057TIP3   OH266585   6.005   2.240   5.317 -0.0200  0.1142  0.0268
15057TIP3    H166586   5.960   2.324   5.321 -0.5810 -0.2154  0.6686
15057TIP3    H266587   6.076   2.248   5.380  0.3540  0.3522 -0.4193
15058TIP3   OH266588   0.556   0.835   6.062 -0.0928  0.0345  0.6808
15058TIP3    H166589   0.473   0.788   6.067 -0.3843  0.5832  1.0469
15058TIP3    H266590   0.532   0.927   6.058  0.4442  0.1132 -1.3939
15059TIP3   OH266591   2.383   0.058   2.739  0.2514  0.8558  0.4301
15059TIP3    H166592   2.424   0.109   2.808 -1.0782  3.1951 -0.4650
15059TIP3    H266593   2.345   0.123   2.679 -1.7895 -1.1607 -0.5520
15060TIP3   OH266594   1.454   2.956   4.300  0.7961  0.3530 -0.2668
15060TIP3    H166595   1.434   3.033   4.354  1.1433 -0.5625  1.2031
15060TIP3    H266596   1.537   2.924   4.334  0.3727 -0.9950 -0.4798
15061TIP3   OH266597   3.849   5.475  13.314  0.1086 -0.5971  0.0111
15061TIP3    H166598   3.826   5.398  13.367 -2.1772 -0.3830 -0.6222
15061TIP3    H266599   3.882   5.439  13.232 -1.3741 -0.9360 -0.4568
15062TIP3   OH266600   1.362   4.573  12.025  0.3898 -0.1848 -0.1824
15062TIP3    H166601   1.269   4.575  12.051  0.8347 -2.3539  1.7813
15062TIP3    H266602   1.409   4.595  12.105  1.6592 -1.8064 -0.4686
15063TIP3   OH266603   4.508   4.106   1.759  0.7091 -0.3828 -0.4473
15063TIP3    H166604   4.504   4.041   1.689  0.9233 -1.2003  0.2945
15063TIP3    H266605   4.504   4.055   1.839 -1.1284  0.6367  0.1473
15064TIP3   OH266606   2.313   4.578  15.079 -0.0343  0.4994  0.6035
15064TIP3    H166607   2.303   4.506  15.142 -0.9583 -0.6391 -0.8045
15064TIP3    H266608   2.305   4.535  14.993  2.1574  1.8692 -0.3198
15065TIP3   OH266609   1.125   0.714   2.426 -0.1401  0.7796  0.3468
15065TIP3    H166610   1.168   0.710   2.341 -1.2426  0.4888 -0.2043
15065TIP3    H266611   1.074   0.795   2.424  0.0538  0.9199  0.8466
15066TIP3   OH266612   3.433   6.337  13.113  0.6929 -0.4677  0.4880
15066TIP3    H166613   3.435   6.415  13.058 -0.0605  0.8133  2.2185
15066TIP3    H266614   3.381   6.274  13.063  1.1214  0.2066 -0.8289
15067TIP3   OH266615   0.777   0.173  13.472  0.3694 -0.2735  0.1504
15067TIP3    H166616   0.780   0.228  13.394  0.5983 -0.8833 -0.2805
15067TIP3    H266617   0.685   0.172  13.498 -0.1201 -1.9997 -1.5213
15068TIP3   OH266618   2.985   6.748   5.490 -0.0142  0.2900 -0.2595
15068TIP3    H166619   2.962   6.694   5.565 -1.9762 -0.1842 -1.1570
15068TIP3    H266620   3.028   6.687   5.430  2.0540  0.7915  0.6926
15069TIP3   OH266621   2.680   1.854   6.304  0.0488 -0.3323  0.4137
15069TIP3    H166622   2.759   1.890   6.343  0.5454 -1.8034  0.8103
15069TIP3    H266623   2.609   1.905   6.343  0.8151  1.3868 -0.3835
15070TIP3   OH266624   2.644   1.216   2.774 -0.6491 -0.4285  0.2051
15070TIP3    H166625   2.739   1.212   2.765 -0.7103 -0.6550 -0.3849
15070TIP3    H266626   2.611   1.168   2.697 -1.2404 -0.1269  0.2696
15071TIP3   OH266627   4.257   3.376   4.998 -0.0042 -0.5861 -0.1353
15071TIP3    H166628   4.191   3.307   5.001 -1.4887  0.6590 -2.6056
15071TIP3    H266629   4.239   3.429   5.076 -1.4210 -0.7258 -0.3473
15072TIP3   OH266630   1.573   1.999  12.945 -0.7868  0.3816  0.0502
15072TIP3    H166631   1.628   2.074  12.923 -0.1964  0.0569  0.3819
15072TIP3    H266632   1.506   2.034  13.003 -1.0401  0.8170 -0.5007
15073TIP3   OH266633   2.562   3.734   1.141 -0.1880 -0.1028  0.1947
15073TIP3    H166634   2.618   3.755   1.216  0.3813 -0.7371 -0.0465
15073TIP3    H266635   2.585   3.801   1.076 -0.2366  0.0803  0.3663
15074TIP3   OH266636   6.232   2.912  12.253  0.6428 -0.3746 -0.9337
15074TIP3    H166637   6.282   2.961  12.188  0.9264  1.4042  0.5924
15074TIP3    H266638   6.140   2.932  12.231  0.7385  0.3021 -0.7469
15075TIP3   OH266639   6.639   6.772  13.644 -0.0285  0.2631  0.5301
15075TIP3    H166640   6.545   6.754  13.647 -0.0149  0.3975  1.6201
15075TIP3    H266641   6.649   6.861  13.676  0.4718  0.2548  0.4108
15076TIP3   OH266642   5.947   5.458   2.023 -0.5480  0.9229 -0.5226
15076TIP3    H166643   5.874   5.400   2.042  0.5642 -0.3255  0.0210
15076TIP3    H266644   5.907   5.534   1.982 -2.1001  0.0378 -0.6974
15077TIP3   OH266645   1.955   0.505   0.762  0.5179  0.2144  0.4402
15077TIP3    H166646   1.864   0.481   0.782  0.6427 -0.2097  0.5181
15077TIP3    H266647   1.970   0.585   0.812  0.7087 -0.6355  1.7893
15078TIP3   OH266648   0.599   2.187   2.972 -0.4672  0.1390  0.2524
15078TIP3    H166649   0.639   2.210   3.056 -0.2436  1.5567 -0.2239
15078TIP3    H266650   0.513   2.230   2.974 -1.4452 -1.8043  0.7271
15079TIP3   OH266651   4.088   2.483   5.715 -0.3301  0.5856 -0.3592
15079TIP3    H166652   4.176   2.456   5.690 -0.8856 -0.7171 -0.9341
15079TIP3    H266653   4.080   2.572   5.680 -0.0517 -0.1362 -2.2982
15080TIP3   OH266654   2.469   5.071  14.235  0.0039  0.4007 -0.5112
15080TIP3    H166655   2.520   5.013  14.292  0.6086  1.4092 -0.0134
15080TIP3    H266656   2.425   5.131  14.295 -0.8686  0.2633 -1.0104
15081TIP3   OH266657   2.568   0.043   4.420 -0.2245  0.5076 -0.4890
15081TIP3    H166658   2.581  -0.009   4.341 -0.2545 -1.9098  1.0530
15081TIP3    H266659   2.477   0.026   4.445 -0.3903  1.7038 -0.2448
15082TIP3   OH266660   3.381   5.893  13.681 -0.4017 -0.0777  0.3377
15082TIP3    H166661   3.411   5.828  13.618  2.2474  0.6345  0.7790
15082TIP3    H266662   3.289   5.873  13.695 -0.4717 -1.6251 -2.0619
15083TIP3   OH266663   3.446   4.238   5.059  0.4850 -0.1013  0.1646
15083TIP3    H166664   3.468   4.300   4.990  2.9704 -2.2432 -1.0618
15083TIP3    H266665   3.357   4.210   5.040 -0.8249  3.2459  0.9368
15084TIP3   OH266666   4.115   2.888  11.526 -0.1775 -0.0325  0.6523
15084TIP3    H166667   4.186   2.890  11.461 -1.3765 -1.9381 -0.7752
15084TIP3    H266668   4.154   2.842  11.601 -0.1588 -1.9415 -0.4938
15085TIP3   OH266669   3.572   3.754   1.841  0.2973 -1.1511 -0.5551
15085TIP3    H166670   3.494   3.697   1.844  0.1879 -1.0154 -0.8678
15085TIP3    H266671   3.641   3.700   1.880 -0.1075 -1.0288  0.3643
15086TIP3   OH266672   5.594   2.459  11.573  0.1582 -0.0383 -0.3830
15086TIP3    H166673   5.657   2.388  11.571  0.3121  0.0609  0.8198
15086TIP3    H266674   5.528   2.435  11.507  1.5877  0.0096 -1.8587
15087TIP3   OH266675   6.584   3.201  14.104  0.1688 -0.2615  0.3851
15087TIP3    H166676   6.540   3.282  14.127  0.4549 -0.1936  0.7007
15087TIP3    H266677   6.531   3.163  14.034 -0.2656 -0.0725  0.6113
15088TIP3   OH266678   3.018   4.603  12.937 -0.6212  0.0043 -0.2917
15088TIP3    H166679   3.108   4.623  12.910 -0.2980 -1.4633 -0.3492
15088TIP3    H266680   2.983   4.551  12.865 -1.1348 -0.4345  0.2782
15089TIP3   OH266681   0.031   2.844  12.841  0.0015 -0.2119 -0.4351
15089TIP3    H166682  -0.016   2.761  12.834  2.2942 -1.6822  0.8554
15089TIP3    H266683   0.094   2.830  12.911  2.7459  1.4775 -2.4581
15090TIP3   OH266684   0.817   4.477   1.787 -0.2105 -0.0514 -0.0016
15090TIP3    H166685   0.859   4.561   1.807  0.4860 -0.0721 -1.3599
15090TIP3    H266686   0.860   4.447   1.707  0.2056 -2.1644  0.9868
15091TIP3   OH266687   5.400   2.688   0.933  0.1491  0.4900  0.0153
15091TIP3    H166688   5.390   2.683   0.838 -0.6263 -0.5303  0.1396
15091TIP3    H266689   5.313   2.666   0.968  1.1350 -2.0520  1.0056
15092TIP3   OH266690   1.906   4.320  15.434  0.4321 -0.4622  0.3932
15092TIP3    H166691   1.974   4.356  15.376  0.3378 -0.5677  0.2171
15092TIP3    H266692   1.937   4.341  15.522 -0.5471  1.7382  0.2537
15093TIP3   OH266693   3.355   1.764  15.050  0.7977  0.5713 -0.0409
15093TIP3    H166694   3.357   1.827  15.122  3.7450  0.6817 -0.1735
15093TIP3    H266695   3.372   1.680  15.092 -2.6639 -0.1547  0.0666
15094TIP3   OH266696   5.904   5.562   6.002  0.7106 -0.1287 -0.2283
15094TIP3    H166697   5.883   5.608   6.084  0.0259 -3.0421  1.3179
15094TIP3    H266698   5.820   5.555   5.956  0.6568 -0.4889 -0.0813
15095TIP3   OH266699   4.842   4.224   4.337  0.1696 -0.2470  0.6287
15095TIP3    H166700   4.772   4.215   4.401 -0.4227 -0.7253 -0.0716
15095TIP3    H266701   4.919   4.249   4.388 -0.8148  1.6132  1.2741
15096TIP3   OH266702   4.831   6.287  12.785 -0.1893  0.0815  0.0245
15096TIP3    H166703   4.839   6.222  12.714  0.1125 -0.5559  0.6388
15096TIP3    H266704   4.915   6.282  12.831 -0.5916  0.0966  0.7657
15097TIP3   OH266705   3.914   3.344   3.685  0.3009  0.8101 -0.1780
15097TIP3    H166706   3.980   3.397   3.729 -1.0571  1.2473  1.3801
15097TIP3    H266707   3.932   3.355   3.592  1.7639  1.7572  0.2101
15098TIP3   OH266708   2.799   2.545  15.850  0.2006 -0.0292 -0.3978
15098TIP3    H166709   2.866   2.571  15.787  1.1296  0.4260  0.7348
15098TIP3    H266710   2.815   2.602  15.926 -1.2538 -0.1556  0.0212
15099TIP3   OH266711   1.192   3.269  16.680 -0.3176  0.0092  0.2600
15099TIP3    H166712   1.120   3.208  16.699 -0.0154 -0.7098 -0.8695
15099TIP3    H266713   1.259   3.248  16.746 -1.0346  0.5093  1.1538
15100TIP3   OH266714   5.558   6.642  16.413  0.5834  0.6497  0.1336
15100TIP3    H166715   5.557   6.737  16.400  1.1944  0.5499 -0.6703
15100TIP3    H266716   5.651   6.620  16.422  0.3284  0.4387  2.7577
15101TIP3   OH266717   1.367   0.605  12.540  0.2637 -0.0167  0.4087
15101TIP3    H166718   1.311   0.678  12.515 -1.3205 -1.1925  0.4102
15101TIP3    H266719   1.310   0.548  12.592  1.1309 -1.7992 -0.5396
15102TIP3   OH266720   0.476   3.444   5.482 -0.0768  0.0057 -0.0387
15102TIP3    H166721   0.422   3.505   5.431  1.2216  1.0581 -0.1862
15102TIP3    H266722   0.490   3.489   5.565  0.6293 -0.2214 -0.0341
15103TIP3   OH266723   3.927   4.285   3.752  0.0926 -0.5082  0.1418
15103TIP3    H166724   3.983   4.245   3.685 -0.1225 -0.9905  0.2446
15103TIP3    H266725   3.838   4.257   3.728 -0.2854  1.4437 -0.8684
15104TIP3   OH266726   4.115   2.987  16.858  0.0268  0.5347 -0.1205
15104TIP3    H166727   4.193   2.949  16.899  0.1491  0.6387 -0.2538
15104TIP3    H266728   4.093   3.061  16.913  0.8828  1.3778 -0.8929
15105TIP3   OH266729   5.333   4.414  10.824 -0.1157  0.4688  1.1764
15105TIP3    H166730   5.411   4.469  10.821  0.5174 -0.4671 -0.0781
15105TIP3    H266731   5.260   4.475  10.813  0.4999  1.2135  1.1772
15106TIP3   OH266732   2.870   1.824   0.231 -0.4850 -0.7987  0.4105
15106TIP3    H166733   2.960   1.845   0.257 -0.1680 -1.8169  0.1498
15106TIP3    H266734   2.833   1.908   0.203 -0.1926 -0.0395  2.2011
15107TIP3   OH266735   1.703   4.133   4.043  0.7134  0.3203  0.3707
15107TIP3    H166736   1.654   4.054   4.020  0.2693  1.3363 -2.4097
15107TIP3    H266737   1.768   4.142   3.973  0.4672  2.6117  0.3985
15108TIP3   OH266738   3.381   3.411   4.359  0.2359 -0.6583  0.3086
15108TIP3    H166739   3.407   3.496   4.323  2.0790 -1.8616 -1.2968
15108TIP3    H266740   3.290   3.399   4.329 -0.0599  0.7620  0.6143
15109TIP3   OH266741   6.577   6.463  15.617  0.1997  0.3685  0.0861
15109TIP3    H166742   6.569   6.501  15.530 -1.0270 -0.0346  0.0125
15109TIP3    H266743   6.664   6.423  15.618  1.0952  2.2812 -0.1708
15110TIP3   OH266744   4.249   2.312   0.709  0.2425  0.3171 -0.6907
15110TIP3    H166745   4.291   2.385   0.754 -0.2067  0.3303 -0.2888
15110TIP3    H266746   4.321   2.255   0.683  0.4349 -0.2733  1.0800
15111TIP3   OH266747   4.292   2.738   0.303 -0.0455  0.2001 -0.0864
15111TIP3    H166748   4.301   2.669   0.369  1.3209  0.7358  0.3158
15111TIP3    H266749   4.233   2.701   0.237 -0.7914 -0.6403  1.0422
15112TIP3   OH266750   0.063   4.390  12.214 -0.0904 -0.3415  0.0663
15112TIP3    H166751   0.085   4.440  12.293  0.1228 -0.4769  0.0914
15112TIP3    H266752   0.091   4.446  12.142  1.9833 -1.2645  0.1085
15113TIP3   OH266753   4.463   2.456   0.413  0.1367  0.0170 -0.4857
15113TIP3    H166754   4.442   2.389   0.348  1.2106  0.9108 -1.7767
15113TIP3    H266755   4.382   2.467   0.462 -0.5409 -1.0366 -1.3279
15114TIP3   OH266756   5.138   2.775  16.686  0.2518 -0.0492  0.2934
15114TIP3    H166757   5.051   2.761  16.650  0.5447 -1.1279 -0.0149
15114TIP3    H266758   5.197   2.739  16.620  1.0345  2.2314 -0.3006
15115TIP3   OH266759   1.755   6.110  15.490 -0.0599  0.3715  0.4612
15115TIP3    H166760   1.803   6.058  15.426 -0.8469  0.9842 -0.6505
15115TIP3    H266761   1.749   6.054  15.567 -1.6048 -1.5232 -0.9838
15116TIP3   OH266762   5.239   4.856  13.726 -0.2904  0.0466 -0.1190
15116TIP3    H166763   5.212   4.933  13.775  0.5434 -0.3848  1.0478
15116TIP3    H266764   5.189   4.784  13.765  1.4935 -0.5402  1.1408
15117TIP3   OH266765   2.011   0.897  13.177  0.0960 -0.1147  0.2398
15117TIP3    H166766   2.011   0.847  13.258  2.6704 -1.1495 -0.3430
15117TIP3    H266767   2.041   0.985  13.203 -1.1670  0.1875  0.7215
15118TIP3   OH266768   4.052   4.806   4.657  0.1915  0.5748 -0.0901
15118TIP3    H166769   4.013   4.753   4.587 -0.6528  0.3604  0.5332
15118TIP3    H266770   4.002   4.888   4.655 -1.5845 -0.4218  1.9454
15119TIP3   OH266771   2.344   2.176  17.119  0.3277  0.4378 -0.3749
15119TIP3    H166772   2.384   2.169  17.206  0.5080  2.3980 -0.2768
15119TIP3    H266773   2.312   2.088  17.100 -0.2268  0.1131  1.9286
15120TIP3   OH266774   3.364   6.218  12.314 -0.6200 -0.0873  0.5590
15120TIP3    H166775   3.299   6.152  12.291 -0.6722 -0.1472  0.8845
15120TIP3    H266776   3.335   6.297  12.268 -1.0965 -0.0289  0.9594
15121TIP3   OH266777   0.905   5.253  12.811  0.4101 -0.3147 -0.0854
15121TIP3    H166778   0.930   5.184  12.749  1.5348 -0.9693  1.0816
15121TIP3    H266779   0.987   5.299  12.830 -0.1057  0.5128  0.1531
15122TIP3   OH266780   1.668   6.329  15.211 -0.1426 -0.1968 -0.2850
15122TIP3    H166781   1.592   6.272  15.201 -0.0456 -0.2367 -0.8428
15122TIP3    H266782   1.743   6.271  15.199  0.0595 -0.7549  3.3329
15123TIP3   OH266783   2.119   4.978  11.945 -0.4182  0.1457  0.1651
15123TIP3    H166784   2.188   4.974  11.878 -0.9956  0.5487 -0.4589
15123TIP3    H266785   2.161   5.023  12.018  0.5136 -1.1587  0.4476
15124TIP3   OH266786   0.693   0.297   5.270 -0.4493  0.6292 -1.2293
15124TIP3    H166787   0.678   0.390   5.249 -2.8976 -0.3954 -4.3739
15124TIP3    H266788   0.635   0.280   5.344  2.4563  2.3279  1.6066
15125TIP3   OH266789   5.057   1.091   6.025  0.0425  0.1639 -0.4324
15125TIP3    H166790   5.020   1.087   6.114 -3.1542 -0.4993 -1.7075
15125TIP3    H266791   5.061   1.184   6.006 -0.1280  0.2841  0.0959
15126TIP3   OH266792   3.456   6.579   4.048  0.1622  0.7017  0.2418
15126TIP3    H166793   3.504   6.551   3.970 -1.6674  0.5879 -0.8478
15126TIP3    H266794   3.387   6.636   4.015 -1.7070 -0.7290  1.6233
15127TIP3   OH266795   2.773   2.990  15.364  0.2604 -0.4438 -0.4554
15127TIP3    H166796   2.851   2.975  15.417  0.8204  0.1290 -1.0908
15127TIP3    H266797   2.767   3.086  15.356 -1.7151 -0.3868  1.3312
15128TIP3   OH266798   0.018   2.159  12.124 -0.1006 -0.1417  0.6264
15128TIP3    H166799  -0.054   2.215  12.094  1.1779  1.2843  0.1682
15128TIP3    H266800   0.064   2.211  12.189  1.6931 -0.2578 -0.5066
15129TIP3   OH266801   3.709   5.806   5.443  0.0089 -0.3049  0.4257
15129TIP3    H166802   3.758   5.863   5.384 -1.6129  0.0358 -0.6293
15129TIP3    H266803   3.693   5.727   5.392 -0.2769 -0.5238  0.8549
15130TIP3   OH266804   1.040   0.268   4.728 -0.0891  0.1782 -0.5957
15130TIP3    H166805   0.963   0.215   4.749  1.0862 -1.6404 -0.8267
15130TIP3    H266806   1.006   0.357   4.720 -1.9098 -0.3538  0.8935
15131TIP3   OH266807   6.044   0.916  11.223 -1.1324 -0.9238  0.8046
15131TIP3    H166808   6.029   0.981  11.155  0.2511 -0.2175  1.1493
15131TIP3    H266809   6.002   0.953  11.301  1.0968  0.4007  1.4271
15132TIP3   OH266810   1.829   6.100  11.732  0.3717 -0.4273  0.1147
15132TIP3    H166811   1.915   6.137  11.750  0.8066 -1.1260 -0.4925
15132TIP3    H266812   1.831   6.080  11.639 -0.8656  0.6209 -0.1520
15133TIP3   OH266813   2.116   4.142   3.581 -0.1066  0.2675  0.0314
15133TIP3    H166814   2.203   4.154   3.542 -1.0109  0.1600 -2.0461
15133TIP3    H266815   2.120   4.192   3.663  1.3947  1.5740 -0.8005
15134TIP3   OH266816   2.188   6.219   2.087 -0.8420 -0.8497 -0.5198
15134TIP3    H166817   2.245   6.197   2.013 -0.5621 -0.1382 -0.5177
15134TIP3    H266818   2.124   6.279   2.051 -0.4326 -0.1414 -0.0854
15135TIP3   OH266819   2.193   3.063  13.879  0.5298 -0.5270 -0.2102
15135TIP3    H166820   2.222   3.147  13.844 -0.2288 -0.3598 -0.4487
15135TIP3    H266821   2.128   3.032  13.815 -1.3584  0.0939  1.3666
15136TIP3   OH266822   1.944   3.190   1.703  0.3372 -0.6721  0.6582
15136TIP3    H166823   1.942   3.254   1.632 -0.0777 -2.7783 -1.2796
15136TIP3    H266824   1.899   3.233   1.776 -1.7965  0.4668 -1.2745
15137TIP3   OH266825   6.104   4.819   6.700 -0.0037  0.4218  0.1678
15137TIP3    H166826   6.034   4.809   6.635  1.2027  1.7348 -1.3790
15137TIP3    H266827   6.063   4.793   6.783 -1.3647 -2.0205 -1.1864
15138TIP3   OH266828   5.318   2.161   5.621  0.4942  0.0330 -0.2931
15138TIP3    H166829   5.287   2.177   5.532 -1.3965 -0.9075  0.1838
15138TIP3    H266830   5.257   2.210   5.676 -0.2958 -2.0253  0.6769
15139TIP3   OH266831   1.222   0.231  13.140  0.1241 -0.0680 -0.3320
15139TIP3    H166832   1.163   0.272  13.077  1.8722  1.8562 -0.8044
15139TIP3    H266833   1.179   0.242  13.224 -1.4506 -1.1486 -0.9853
15140TIP3   OH266834   2.323   4.956  11.534  0.6910 -0.2433  0.4708
15140TIP3    H166835   2.311   5.023  11.467  1.0907 -0.3054  0.3322
15140TIP3    H266836   2.235   4.921  11.550  0.3297  1.0269  1.3048
15141TIP3   OH266837   2.532   6.281  13.476  0.1314  0.7995  0.0916
15141TIP3    H166838   2.482   6.359  13.500  2.1224  1.1870  3.3104
15141TIP3    H266839   2.600   6.275  13.543  1.6326 -2.2304 -1.6154
15142TIP3   OH266840   6.607   1.047   4.748  0.0621  0.5046  0.0671
15142TIP3    H166841   6.599   1.083   4.660 -0.3018  0.6559  0.1609
15142TIP3    H266842   6.522   1.066   4.790  0.8207  1.9607  1.0056
15143TIP3   OH266843   6.051   0.046  15.751  0.4937  0.1132  0.6966
15143TIP3    H166844   5.997   0.110  15.796  0.6328 -0.7120  2.0714
15143TIP3    H266845   6.075  -0.017  15.819  1.6052 -0.5657 -0.3053
15144TIP3   OH266846   2.209   1.779  12.071  0.0699  0.3238 -0.4791
15144TIP3    H166847   2.297   1.747  12.092 -0.5317 -0.6392  0.6872
15144TIP3    H266848   2.195   1.851  12.134  0.8232  1.9094 -2.0740
15145TIP3   OH266849   5.716   2.364  16.289  0.1514  0.4026  0.1189
15145TIP3    H166850   5.712   2.375  16.194 -0.5422  2.3487  0.3450
15145TIP3    H266851   5.628   2.335  16.313  0.5719 -0.9088  0.0763
15146TIP3   OH266852   5.817   1.250  12.934  0.4314 -0.2070  0.0294
15146TIP3    H166853   5.723   1.230  12.941  0.5438 -0.2746  1.6629
15146TIP3    H266854   5.820   1.345  12.920  0.1295  0.0289  1.3991
15147TIP3   OH266855   3.280   3.672   3.095 -0.7032  0.1014  0.0296
15147TIP3    H166856   3.348   3.659   3.029  1.9745  1.2497  2.4503
15147TIP3    H266857   3.276   3.590   3.143 -2.2106 -0.5092 -1.0594
15148TIP3   OH266858   2.890   0.698   3.260  0.0816 -0.5932  0.0793
15148TIP3    H166859   2.950   0.631   3.227 -0.7318 -0.5259 -1.5975
15148TIP3    H266860   2.936   0.737   3.335  2.1070 -0.5900 -1.1137
15149TIP3   OH266861   1.748   6.283  14.579  0.9794  0.2944 -0.3736
15149TIP3    H166862   1.677   6.269  14.641  0.7217 -0.4609 -0.8441
15149TIP3    H266863   1.828   6.263  14.628  0.7679 -0.4196 -0.3199
15150TIP3   OH266864   4.484   0.031   3.444 -0.5745  0.4308 -0.0682
15150TIP3    H166865   4.392   0.030   3.418  0.0841 -0.7024 -2.4180
15150TIP3    H266866   4.521  -0.050   3.409  1.8387  1.9006 -1.0493
15151TIP3   OH266867   2.913   0.391  11.790  0.3112  0.2945  0.0182
15151TIP3    H166868   2.850   0.405  11.720 -1.4511  2.3726  1.9288
15151TIP3    H266869   2.877   0.319  11.842 -0.6009  1.5504  1.1711
15152TIP3   OH266870   3.442   6.213   2.493  0.1250 -0.2791 -0.3699
15152TIP3    H166871   3.504   6.241   2.425  0.8425 -0.4904  0.1900
15152TIP3    H266872   3.377   6.161   2.446 -1.0858  2.0798 -1.3942
15153TIP3   OH266873   5.209   5.528   2.083 -0.1323 -0.3531 -0.5464
15153TIP3    H166874   5.207   5.497   1.993  0.8564  1.0963 -1.0921
15153TIP3    H266875   5.178   5.619   2.077  4.9016  1.5640 -0.2378
15154TIP3   OH266876   1.734   3.651  16.687 -0.4344  0.6007 -0.4214
15154TIP3    H166877   1.706   3.740  16.668 -0.7199  0.6082  0.0301
15154TIP3    H266878   1.710   3.601  16.609 -0.0390  0.9650 -0.7814
15155TIP3   OH266879   6.552   5.803  11.908  0.0841 -0.0704  0.2963
15155TIP3    H166880   6.615   5.795  11.836 -0.3487 -0.2147 -0.0737
15155TIP3    H266881   6.588   5.749  11.978  0.6967  0.3680  0.3201
15156TIP3   OH266882   3.312   6.175   3.637 -0.1585  0.3913 -0.0707
15156TIP3    H166883   3.339   6.087   3.662 -2.0428 -0.1946 -0.0282
15156TIP3    H266884   3.301   6.221   3.720 -1.5558 -0.0732  0.0125
15157TIP3   OH266885   4.073   5.148   5.685 -0.1987  0.2575  0.2263
15157TIP3    H166886   4.126   5.189   5.617 -1.7465 -1.1103 -1.8580
15157TIP3    H266887   4.038   5.221   5.735 -0.2571  1.3481 -1.3778
15158TIP3   OH266888   6.513   4.923  14.769  0.2838  0.3329  0.7548
15158TIP3    H166889   6.529   4.829  14.761  2.0621  0.4656  2.4136
15158TIP3    H266890   6.557   4.961  14.693  2.4955  0.1056  1.8913
15159TIP3   OH266891   0.899   0.697  16.572 -0.4452  0.2241 -0.0200
15159TIP3    H166892   0.806   0.683  16.555 -0.4703  0.5469 -0.1545
15159TIP3    H266893   0.938   0.708  16.486  0.3503 -3.6253 -0.2336
15160TIP3   OH266894   3.648   6.609   1.055 -0.0074  0.4104  0.3078
15160TIP3    H166895   3.727   6.661   1.044  0.8698 -0.6679  1.4818
15160TIP3    H266896   3.588   6.643   0.988  0.9711  2.0970  0.2636
15161TIP3   OH266897   6.711   3.947  16.398 -0.1629 -0.3549 -0.1583
15161TIP3    H166898   6.706   3.877  16.332 -1.5451  0.6360 -1.1383
15161TIP3    H266899   6.621   3.954  16.431  0.0811  0.6161  0.3036
15162TIP3   OH266900   0.947   2.847   2.800 -0.3454  0.2947 -0.1663
15162TIP3    H166901   0.875   2.910   2.805 -0.9568 -0.5823  3.6376
15162TIP3    H266902   0.924   2.778   2.862  2.7942 -1.0700 -0.3907
15163TIP3   OH266903   2.662   2.149   1.329  0.4584  0.3575  0.0760
15163TIP3    H166904   2.722   2.123   1.399  0.8246  2.2416  0.4824
15163TIP3    H266905   2.583   2.179   1.375 -0.1343 -0.4423 -0.4035
15164TIP3   OH266906   3.346   0.650   1.783  0.2738  0.2546  0.4512
15164TIP3    H166907   3.298   0.723   1.742  0.0888  0.8012  1.6210
15164TIP3    H266908   3.438   0.676   1.777  0.2725  0.1795  0.0854
15165TIP3   OH266909   2.382   5.299   5.376 -0.9720  0.4668 -0.3056
15165TIP3    H166910   2.374   5.250   5.294  0.5833 -2.0661  0.9777
15165TIP3    H266911   2.320   5.256   5.435  1.7271 -1.2010  1.3851
15166TIP3   OH266912   2.517   2.908   2.058  0.1683 -0.0277 -0.1244
15166TIP3    H166913   2.566   2.844   2.006 -0.0165 -0.6574  0.4680
15166TIP3    H266914   2.477   2.857   2.128 -0.9448  0.5413 -0.3183
15167TIP3   OH266915   6.426   0.630  16.105 -0.0749 -0.6516  0.2457
15167TIP3    H166916   6.395   0.564  16.166  0.0127 -0.8788  0.0456
15167TIP3    H266917   6.403   0.596  16.019  0.8862 -0.9105  0.0821
15168TIP3   OH266918   1.787   1.356   5.118 -1.0213  0.5591  0.0869
15168TIP3    H166919   1.700   1.325   5.142 -0.0958 -1.3351  1.1735
15168TIP3    H266920   1.810   1.305   5.040 -0.3036 -0.0568  0.6900
15169TIP3   OH266921   5.568   6.359   3.587  0.1032  0.3613 -0.0042
15169TIP3    H166922   5.661   6.335   3.584 -0.2533 -0.9532 -1.7024
15169TIP3    H266923   5.534   6.332   3.501 -1.5650  2.0351  0.0967
15170TIP3   OH266924   0.860   1.753   2.296 -0.0879 -0.2383  0.4003
15170TIP3    H166925   0.929   1.748   2.230 -1.7318  0.8472 -1.4807
15170TIP3    H266926   0.883   1.830   2.349 -0.5162  0.9043 -1.0321
15171TIP3   OH266927   0.761   2.675   2.560 -0.4841  0.4059  0.4109
15171TIP3    H166928   0.834   2.674   2.621 -1.6564  0.8411  1.8302
15171TIP3    H266929   0.800   2.652   2.475  1.6572  2.6040  0.7553
15172TIP3   OH266930   4.300   5.173  11.426  0.2570 -0.1267 -0.4205
15172TIP3    H166931   4.390   5.203  11.414 -0.0686  0.9629 -0.2771
15172TIP3    H266932   4.278   5.127  11.345  0.8162 -0.0673 -0.6057
15173TIP3   OH266933   5.616   0.251  16.679  0.1266  0.2185 -0.0428
15173TIP3    H166934   5.567   0.223  16.757  0.0527  2.1774  0.6566
15173TIP3    H266935   5.556   0.234  16.606 -0.7591  0.6218  0.5861
15174TIP3   OH266936   2.770   4.516   1.035 -0.1057 -0.2853 -0.0473
15174TIP3    H166937   2.694   4.510   1.093 -1.4029 -0.8652 -1.7605
15174TIP3    H266938   2.733   4.514   0.947  1.8480  0.3252 -0.9092
15175TIP3   OH266939   0.244   2.508   2.176  0.5757  0.6217 -0.0161
15175TIP3    H166940   0.156   2.501   2.213  0.5541  1.8692  0.1806
15175TIP3    H266941   0.301   2.475   2.246  0.2875 -0.0489 -0.0893
15176TIP3   OH266942   0.741   0.314   4.806  0.1656  0.5851  0.3657
15176TIP3    H166943   0.700   0.300   4.892 -1.2170  0.5165 -0.2919
15176TIP3    H266944   0.776   0.403   4.811  0.1459  0.5583  1.0320
15177TIP3   OH266945   2.271   3.988  15.361  0.6756 -0.2896  0.1394
15177TIP3    H166946   2.364   4.007  15.349  0.2990  1.0485 -0.8601
15177TIP3    H266947   2.264   3.893  15.355  2.2166 -0.5432  2.0803
15178TIP3   OH266948   4.328   2.725  14.353 -0.9393  0.0061  0.6574
15178TIP3    H166949   4.235   2.722  14.331 -0.6872  0.1363 -0.4866
15178TIP3    H266950   4.367   2.652  14.304 -0.7026 -1.1304  2.4915
15179TIP3   OH266951   6.656   4.445   1.543 -0.0162 -0.3458 -0.1054
15179TIP3    H166952   6.664   4.488   1.628  0.1834 -0.1917 -0.2023
15179TIP3    H266953   6.604   4.367   1.561 -0.3838 -0.0673  0.0723
15180TIP3   OH266954   6.476   5.851  15.280  0.1019 -0.3186 -0.0429
15180TIP3    H166955   6.430   5.805  15.210  1.5003 -0.5770 -0.7944
15180TIP3    H266956   6.415   5.922  15.305 -1.5186 -1.7884  0.2941
15181TIP3   OH266957   5.549   4.870  16.377 -0.3765  0.5128  0.0327
15181TIP3    H166958   5.544   4.776  16.392 -2.5301  0.3529 -1.4340
15181TIP3    H266959   5.475   4.907  16.426  0.8330  1.5143  1.1216
15182TIP3   OH266960   6.713   1.010   4.050 -0.0872  0.1612 -0.0468
15182TIP3    H166961   6.758   0.954   4.113  1.0293  1.0342 -0.0600
15182TIP3    H266962   6.777   1.077   4.027 -0.4649 -0.1532 -2.1207
15183TIP3   OH266963   1.135   1.093   5.497  0.1647 -0.4407 -0.1282
15183TIP3    H166964   1.139   1.096   5.402  0.4860  1.9194 -0.0571
15183TIP3    H266965   1.194   1.162   5.526  0.4572 -1.4589  1.8014
15184TIP3   OH266966   0.013   1.962   1.292 -0.2778  0.2085  0.1338
15184TIP3    H166967  -0.079   1.956   1.264 -0.2350 -1.8279  0.3168
15184TIP3    H266968   0.022   2.050   1.327 -1.4413  1.3635 -2.3788
15185TIP3   OH266969   4.923   3.135  15.554  0.2566 -0.0457 -0.0135
15185TIP3    H166970   4.990   3.195  15.522  1.1889 -0.4575  1.1403
15185TIP3    H266971   4.972   3.063  15.592 -0.8558 -0.5546  0.4678
15186TIP3   OH266972   1.806   3.161  15.242 -0.2375  0.3781  0.7046
15186TIP3    H166973   1.872   3.099  15.275 -0.7401  0.3858  1.7679
15186TIP3    H266974   1.749   3.175  15.317  0.2623  2.6575  0.6807
15187TIP3   OH266975   4.096   0.895  13.066 -0.2934  0.5063  0.8722
15187TIP3    H166976   4.142   0.919  12.985  1.7695  2.0527  2.4327
15187TIP3    H266977   4.124   0.804  13.082  0.4360  0.6730  0.5990
15188TIP3   OH266978   6.559   1.693  15.513 -0.0198  0.8095  0.6544
15188TIP3    H166979   6.475   1.719  15.474 -0.2450 -0.0075  0.5932
15188TIP3    H266980   6.565   1.744  15.593 -1.8696 -1.1405  2.0870
15189TIP3   OH266981   4.192   2.181   5.116  0.3701 -0.6215  0.1727
15189TIP3    H166982   4.237   2.232   5.049 -2.0762 -0.8933 -1.7758
15189TIP3    H266983   4.227   2.092   5.106 -0.4070 -0.7879 -1.1910
15190TIP3   OH266984   4.635   5.295  16.231 -0.1442  0.1013 -0.2923
15190TIP3    H166985   4.567   5.338  16.180  0.0931  0.5378 -0.2469
15190TIP3    H266986   4.677   5.366  16.280 -0.6534 -0.3631  0.8385
15191TIP3   OH266987   5.549   4.198  16.672  0.0846 -0.2906  0.1346
15191TIP3    H166988   5.559   4.263  16.742  1.2658 -0.2067 -0.1103
15191TIP3    H266989   5.455   4.198  16.654 -0.1184  0.3169  1.1250
15192TIP3   OH266990   0.339   5.927  11.299 -0.5008 -0.3682  0.6899
15192TIP3    H166991   0.369   5.878  11.222  0.3218 -0.3980  1.0300
15192TIP3    H266992   0.416   5.976  11.328 -1.2991  1.0817  0.3916
15193TIP3   OH266993   1.876   3.620  15.079  0.0154 -0.1124  0.2869
15193TIP3    H166994   1.850   3.527  15.081  2.2046 -0.7444  0.8229
15193TIP3    H266995   1.966   3.619  15.048 -0.2137  1.9360 -0.5139
15194TIP3   OH266996   4.743   1.691   5.651 -0.3604 -0.5250  0.5825
15194TIP3    H166997   4.649   1.708   5.644 -0.4750 -1.3757 -0.0303
15194TIP3    H266998   4.749   1.612   5.706 -0.0914 -1.3983 -0.6760
15195TIP3   OH266999   2.070   3.265   4.721  0.0152 -0.7112  0.0010
15195TIP3    H167000   2.093   3.279   4.629  1.1571 -0.5210  0.3126
15195TIP3    H267001   2.137   3.204   4.753 -0.4245 -0.8286  0.6922
15196TIP3   OH267002   0.864   2.926   3.536  0.3002  0.5820 -0.5135
15196TIP3    H167003   0.923   2.897   3.605  1.4703 -0.2881 -1.8403
15196TIP3    H267004   0.903   3.006   3.502  0.3598  0.3705 -0.9472
15197TIP3   OH267005   3.586   3.009  13.371 -0.1043  0.2492  0.1899
15197TIP3    H167006   3.619   3.086  13.326 -1.4163  1.5608  1.4399
15197TIP3    H267007   3.664   2.959  13.395  0.8124  1.7668  0.3948
15198TIP3   OH267008   3.348   4.865   1.759  0.6223  0.0787 -0.2895
15198TIP3    H167009   3.269   4.812   1.745  1.6907 -1.6332 -0.0105
15198TIP3    H267010   3.318   4.938   1.813 -0.9665 -0.0171 -1.0121
15199TIP3   OH267011   3.635   6.152  12.286 -0.0156  0.5158  0.3153
15199TIP3    H167012   3.603   6.063  12.270 -2.0691  1.1782  0.6400
15199TIP3    H267013   3.556   6.205  12.297  1.1486  2.6166 -0.9879
15200TIP3   OH267014   2.888   0.292   4.545 -0.5732  0.4287  0.1152
15200TIP3    H167015   2.824   0.266   4.480  0.0656 -1.3767  0.1615
15200TIP3    H267016   2.934   0.366   4.506  0.5779 -1.3394 -2.0156
15201TIP3   OH267017   6.513   3.716   1.680  0.1509 -0.2948 -0.3814
15201TIP3    H167018   6.596   3.708   1.633  0.4600 -0.2545  0.1622
15201TIP3    H267019   6.453   3.756   1.616  0.8080  0.5760 -0.4541
15202TIP3   OH267020   5.741   0.690   5.519  0.4612  0.2814 -0.4387
15202TIP3    H167021   5.646   0.682   5.510  0.0856  1.2143  2.1939
15202TIP3    H267022   5.762   0.637   5.596  2.0443  0.3110 -0.8380
15203TIP3   OH267023   4.436   0.329  16.374  0.3542  0.0125 -0.3156
15203TIP3    H167024   4.383   0.336  16.294  0.5548  0.6985 -0.3861
15203TIP3    H267025   4.500   0.399  16.366 -0.6839  1.1679  1.2662
15204TIP3   OH267026   0.747   0.944  13.673  0.3157  0.1045 -0.4215
15204TIP3    H167027   0.710   0.984  13.594  4.1070  1.8934 -1.3995
15204TIP3    H267028   0.763   1.017  13.732  0.8831 -0.8113  0.5823
15205TIP3   OH267029   4.180   0.227  11.164  0.2277  0.0396 -0.0599
15205TIP3    H167030   4.271   0.245  11.139  0.7079 -1.1423  0.7820
15205TIP3    H267031   4.181   0.231  11.259 -0.4930 -0.4925 -0.0298
15206TIP3   OH267032   6.474   3.473  11.378 -0.3761 -0.1500 -0.4651
15206TIP3    H167033   6.384   3.500  11.399  0.0536  2.0238 -1.3143
15206TIP3    H267034   6.499   3.416  11.451 -2.5735 -1.1354 -0.4281
15207TIP3   OH267035   6.301   1.731  15.448  0.0260 -0.4797 -0.5926
15207TIP3    H167036   6.262   1.666  15.389 -2.8509  0.1987  0.4867
15207TIP3    H267037   6.274   1.816  15.411  0.5788  0.0083  0.1182
15208TIP3   OH267038   4.384   1.538   0.693  0.2371  0.1529 -0.1101
15208TIP3    H167039   4.446   1.487   0.746 -0.1424 -0.2465 -0.0419
15208TIP3    H267040   4.327   1.472   0.654  1.8812  0.2847 -2.8335
15209TIP3   OH267041   1.790   6.629  15.170 -0.4140  0.0715 -0.4400
15209TIP3    H167042   1.719   6.681  15.208  0.4561 -0.4621  1.9823
15209TIP3    H267043   1.747   6.557  15.125 -1.4396  0.1568  0.4045
15210TIP3   OH267044   3.322   6.271   0.450 -0.3802  0.0741 -0.5852
15210TIP3    H167045   3.249   6.238   0.398 -2.0438  0.3204  1.5179
15210TIP3    H267046   3.294   6.258   0.541  1.4982  1.7149  0.2569
15211TIP3   OH267047   1.651   1.640   2.548 -0.5855 -0.1287  0.1483
15211TIP3    H167048   1.715   1.684   2.605 -0.8048 -0.8219  0.9369
15211TIP3    H267049   1.629   1.705   2.482  0.9090  0.1384 -0.1038
15212TIP3   OH267050   2.354   1.149  11.531 -0.5601 -0.5347  0.1971
15212TIP3    H167051   2.271   1.101  11.541 -0.7669 -0.1918  0.1339
15212TIP3    H267052   2.351   1.183  11.442 -1.8924  2.3675  1.3008
15213TIP3   OH267053   1.159   0.428  11.529  0.2612 -0.2954  0.2340
15213TIP3    H167054   1.180   0.432  11.435 -2.8901  2.7328 -0.4253
15213TIP3    H267055   1.224   0.484  11.570 -0.2109  0.8544 -0.5488
15214TIP3   OH267056   1.425   1.850   3.346  0.4254  0.0233  0.1972
15214TIP3    H167057   1.381   1.765   3.348 -0.4607  0.4735  0.2782
15214TIP3    H267058   1.401   1.891   3.429 -0.3004  0.9151 -0.4401
15215TIP3   OH267059   3.405   6.562  15.972  0.2126 -0.1279 -0.1571
15215TIP3    H167060   3.326   6.516  16.002 -1.0266  1.8671 -0.3119
15215TIP3    H267061   3.470   6.546  16.040 -0.6354 -0.9189  0.4716
15216TIP3   OH267062   2.865   2.861  14.361  0.0873  0.1046 -0.2368
15216TIP3    H167063   2.906   2.901  14.284  2.9360 -0.6376  0.8257
15216TIP3    H267064   2.800   2.800  14.325  1.7783 -0.6671 -2.0815
15217TIP3   OH267065   0.545   2.146   0.641 -0.4855  0.2664  0.0804
15217TIP3    H167066   0.482   2.101   0.698  0.3811 -0.9884  0.0705
15217TIP3    H267067   0.547   2.094   0.561  0.7640  0.1242  0.1852
15218TIP3   OH267068   3.215   6.596  11.597 -0.0820  0.0186  0.2095
15218TIP3    H167069   3.127   6.571  11.572 -0.6157  1.7933  0.2326
15218TIP3    H267070   3.270   6.523  11.569 -1.3891 -0.5383 -0.9335
15219TIP3   OH267071   5.529   1.659   4.452  0.4631 -0.3807  0.0901
15219TIP3    H167072   5.509   1.565   4.452 -0.9515 -0.0900 -0.5606
15219TIP3    H267073   5.526   1.684   4.359 -0.9577  0.6713  0.4095
15220TIP3   OH267074   1.793   3.095  13.532 -0.6121  0.1074  0.0768
15220TIP3    H167075   1.786   3.170  13.474 -1.4452 -0.1054 -0.1048
15220TIP3    H267076   1.703   3.073  13.554 -0.3169 -0.0973  1.0867
15221TIP3   OH267077   4.538   6.464  15.741 -0.1399  0.4053  0.1350
15221TIP3    H167078   4.603   6.442  15.674  0.0557  1.5064 -0.0471
15221TIP3    H267079   4.478   6.525  15.698 -0.2247  0.8330  0.8452
15222TIP3   OH267080   5.609   4.003  15.772 -0.2848  0.0852 -0.1320
15222TIP3    H167081   5.702   4.009  15.750 -0.2716 -2.8616 -1.0660
15222TIP3    H267082   5.606   3.942  15.846 -1.3026  1.9404  1.4066
15223TIP3   OH267083   2.676   6.499  16.071  0.8505 -0.5972 -0.4293
15223TIP3    H167084   2.739   6.571  16.066 -1.0727  1.0441 -2.3295
15223TIP3    H267085   2.656   6.492  16.165  0.9879  1.4389 -0.2098
15224TIP3   OH267086   6.530   0.861   4.290 -0.1774 -0.3269 -0.4512
15224TIP3    H167087   6.602   0.920   4.267  1.4415 -1.0755  2.4358
15224TIP3    H267088   6.540   0.788   4.229  0.4251  0.3854 -1.2342
15225TIP3   OH267089   3.580   1.298   1.362 -0.2717 -0.0523 -0.8629
15225TIP3    H167090   3.655   1.248   1.329  0.3382 -0.0136  0.4650
15225TIP3    H267091   3.549   1.347   1.285 -0.6418 -2.1382 -2.1042
15226TIP3   OH267092   0.493   6.110   2.503 -0.5427  0.3788 -0.3196
15226TIP3    H167093   0.425   6.046   2.484  0.0121  0.0234 -1.1703
15226TIP3    H267094   0.465   6.153   2.584 -1.3199 -0.3793 -0.1839
15227TIP3   OH267095   4.549   4.751   4.296 -0.0857 -0.0127 -0.4621
15227TIP3    H167096   4.573   4.773   4.206 -0.6806  0.2237 -0.5708
15227TIP3    H267097   4.487   4.679   4.287 -1.0637  0.7879 -0.3190
15228TIP3   OH267098   3.208   4.953   4.579 -0.7415  0.6205  0.6195
15228TIP3    H167099   3.128   4.906   4.603 -1.4390  1.7009  0.4511
15228TIP3    H267100   3.193   4.982   4.489 -0.8221  2.1686  1.1105
15229TIP3   OH267101   3.469   3.344   3.709  0.1538  0.4410 -0.4087
15229TIP3    H167102   3.511   3.305   3.633  0.0247 -1.2884  0.3864
15229TIP3    H267103   3.508   3.299   3.784 -1.1691  0.6859  0.4485
15230TIP3   OH267104   4.576   4.073   4.654 -0.7287 -0.2183  0.4234
15230TIP3    H167105   4.484   4.084   4.629  0.0349  0.9530 -1.9518
15230TIP3    H267106   4.613   4.017   4.586  0.7657  0.8498  0.3501
15231TIP3   OH267107   5.954   1.650   4.730  0.0899 -0.1243  0.3187
15231TIP3    H167108   5.893   1.626   4.799 -0.1916  0.9881  0.4592
15231TIP3    H267109   5.999   1.728   4.763  0.8122 -0.2956 -0.2437
15232TIP3   OH267110   3.652   1.175  13.649 -0.3912 -0.1959 -0.4612
15232TIP3    H167111   3.686   1.145  13.565  0.6364 -1.3546  0.3638
15232TIP3    H267112   3.697   1.258  13.665 -0.4500 -0.0651 -0.9487
15233TIP3   OH267113   3.882   0.205   5.061  0.0086  0.7911 -0.1105
15233TIP3    H167114   3.893   0.216   5.155 -0.7596  0.4608  0.0200
15233TIP3    H267115   3.829   0.279   5.034  1.1169  1.4676 -0.4638
15234TIP3   OH267116   3.681   3.514   0.938  0.1068  0.8202 -0.0371
15234TIP3    H167117   3.642   3.523   1.025 -0.8167  0.8023 -0.4421
15234TIP3    H267118   3.759   3.461   0.953 -1.3673 -1.2897  0.4424
15235TIP3   OH267119   6.614   0.288   5.331  0.7055 -0.4167 -0.0213
15235TIP3    H167120   6.634   0.355   5.396  2.8916  0.7920 -1.9127
15235TIP3    H267121   6.698   0.246   5.312 -0.0150 -1.2008 -1.5928
15236TIP3   OH267122   6.247   2.746   2.126 -0.2485  0.3974  0.4724
15236TIP3    H167123   6.166   2.791   2.153 -1.0739 -1.0460  0.4586
15236TIP3    H267124   6.273   2.790   2.046 -0.5433  1.4491  0.9401
15237TIP3   OH267125   1.717   5.643   1.190 -0.2932 -0.3304  0.7831
15237TIP3    H167126   1.807   5.639   1.223 -0.4951 -1.7691  1.1640
15237TIP3    H267127   1.665   5.663   1.267 -0.4027 -0.3900  0.7240
15238TIP3   OH267128   2.109   6.393  16.160  0.7559 -0.2306  0.0121
15238TIP3    H167129   2.115   6.464  16.097  0.5820  0.1543  0.4164
15238TIP3    H267130   2.021   6.357  16.148  0.2513  0.6892  0.9158
15239TIP3   OH267131   2.455   2.121  13.245 -0.5860  0.5694  0.3614
15239TIP3    H167132   2.472   2.048  13.304 -2.0217  0.9130  1.1990
15239TIP3    H267133   2.519   2.187  13.270  0.8389 -0.4444 -0.5163
15240TIP3   OH267134   2.222   6.224   5.457  0.0493 -0.0080 -0.1895
15240TIP3    H167135   2.292   6.233   5.521  1.6156  0.3716 -1.9146
15240TIP3    H267136   2.264   6.241   5.373 -1.6680 -1.8441 -1.4631
15241TIP3   OH267137   2.979   5.104  16.779  0.4199  0.0242  0.1322
15241TIP3    H167138   3.032   5.049  16.722  0.5027  0.7223 -0.4787
15241TIP3    H267139   3.042   5.145  16.839  0.4049 -0.2509  0.3334
15242TIP3   OH267140   6.137   3.995   0.074  0.1260 -0.0473  0.1163
15242TIP3    H167141   6.061   3.959   0.030  0.4375  2.0116 -2.2053
15242TIP3    H267142   6.156   3.933   0.144 -2.9735 -1.1661  0.0135
15243TIP3   OH267143   0.371   0.270  15.321 -0.1884  0.0946 -0.6285
15243TIP3    H167144   0.370   0.249  15.415  1.4208  1.3586 -0.3123
15243TIP3    H267145   0.409   0.358  15.317  1.2692 -0.6219 -2.5974
15244TIP3   OH267146   2.689   3.083  12.123 -0.1839 -0.3613  0.0864
15244TIP3    H167147   2.779   3.083  12.089 -0.2887  0.8038 -0.2055
15244TIP3    H267148   2.692   3.143  12.198 -1.1489  1.1977 -1.1014
15245TIP3   OH267149   1.161   0.986   1.090  0.1888 -0.7033  0.1679
15245TIP3    H167150   1.072   0.988   1.055  1.1476  0.3684 -2.3862
15245TIP3    H267151   1.211   0.935   1.027  1.8902  0.8555  0.1906
15246TIP3   OH267152   0.084   6.031  16.324  0.3078  0.6199 -1.1557
15246TIP3    H167153   0.079   6.000  16.415 -2.5624  0.7243 -1.2311
15246TIP3    H267154   0.125   5.959  16.276  0.6694  0.0541 -0.0177
15247TIP3   OH267155   0.446   1.181  15.667 -0.0467 -1.0583  0.4311
15247TIP3    H167156   0.454   1.097  15.622  0.6137 -0.5309 -0.4477
15247TIP3    H267157   0.530   1.225  15.653  0.3787 -1.1038  2.6443
15248TIP3   OH267158   6.242   3.531  16.501 -0.0277 -0.0731 -0.6137
15248TIP3    H167159   6.288   3.603  16.544  0.3245 -0.0508 -1.0256
15248TIP3    H267160   6.189   3.573  16.434  1.1672 -0.3049 -1.7211
15249TIP3   OH267161   6.007   6.324  15.823 -0.1926  0.3623  0.2753
15249TIP3    H167162   5.980   6.242  15.863  0.2470 -0.4749 -1.1393
15249TIP3    H267163   5.966   6.325  15.737  0.7321  1.0903 -0.1732
15250TIP3   OH267164   3.872   3.276  11.698  0.0403  0.0128 -0.0455
15250TIP3    H167165   3.904   3.312  11.615 -1.6278 -1.0315 -1.1600
15250TIP3    H267166   3.926   3.199  11.714  0.9603  0.7288  0.2991
15251TIP3   OH267167   1.232   3.746  11.389 -0.0275  0.0542  0.0751
15251TIP3    H167168   1.175   3.821  11.405 -0.4257 -0.5453  1.4830
15251TIP3    H267169   1.238   3.741  11.293  2.1567  3.4843 -0.0616
15252TIP3   OH267170   4.441   5.580  10.896 -0.1985 -0.4296  0.1609
15252TIP3    H167171   4.502   5.506  10.893  0.1327 -0.3408  3.2007
15252TIP3    H267172   4.367   5.552  10.842  0.3218 -2.6373  0.5269
15253TIP3   OH267173   0.029   0.352   4.065 -0.7800 -0.0918 -0.0921
15253TIP3    H167174  -0.018   0.423   4.110  0.0991  1.2833 -1.3035
15253TIP3    H267175   0.116   0.353   4.105  0.2192  1.5699 -2.2137
15254TIP3   OH267176   1.411   6.464   5.967  0.1665  0.2563 -0.1058
15254TIP3    H167177   1.443   6.408   5.897 -0.9951  0.4917 -0.8260
15254TIP3    H267178   1.481   6.462   6.033  0.4708 -1.3933 -0.4677
15255TIP3   OH267179   1.061   3.384   4.714  0.2994  0.3616  0.0057
15255TIP3    H167180   0.978   3.337   4.710  1.5454 -1.8488 -0.7001
15255TIP3    H267181   1.077   3.411   4.623  1.7741 -1.8048 -0.4029
15256TIP3   OH267182   4.318   4.824   0.945  0.4742 -0.1854  0.0254
15256TIP3    H167183   4.280   4.882   1.011  0.6212 -0.0914  0.0266
15256TIP3    H267184   4.340   4.882   0.872 -2.0058 -0.6195 -1.1358
15257TIP3   OH267185   1.757   2.800  17.234  0.4242 -0.7300  0.1442
15257TIP3    H167186   1.715   2.870  17.285 -0.1593 -0.3070 -0.8897
15257TIP3    H267187   1.723   2.812  17.145  2.1720 -0.8405 -0.5631
15258TIP3   OH267188   4.334   1.598   3.129 -0.0733  0.4804 -0.1900
15258TIP3    H167189   4.247   1.606   3.090  0.0757 -0.9518 -0.8429
15258TIP3    H267190   4.317   1.585   3.222 -0.5289  1.0838 -0.1845
15259TIP3   OH267191   1.092   4.224   0.902 -0.0610  0.8802  0.5630
15259TIP3    H167192   1.043   4.299   0.937 -1.0622  0.5250 -0.0626
15259TIP3    H267193   1.173   4.223   0.953  0.8364  3.5565 -0.7379
15260TIP3   OH267194   1.545   1.155  16.484  0.1913  0.3719  0.3304
15260TIP3    H167195   1.476   1.159  16.551 -0.1322 -1.6225  0.1513
15260TIP3    H267196   1.506   1.199  16.408 -1.1457 -1.2508  0.0343
15261TIP3   OH267197   5.113   4.976   5.503  0.4523 -0.3962 -0.0166
15261TIP3    H167198   5.164   5.057   5.501 -0.4007  0.1859  0.9545
15261TIP3    H267199   5.081   4.965   5.414  0.5538  0.3599 -0.1464
15262TIP3   OH267200   0.356   3.237   4.283 -0.3339 -0.1114 -0.9026
15262TIP3    H167201   0.319   3.322   4.259  1.1351  0.6968 -0.4404
15262TIP3    H267202   0.436   3.230   4.230  0.0312 -0.7849 -0.2758
15263TIP3   OH267203   2.888   5.872   2.531  0.2193 -0.0434  0.1574
15263TIP3    H167204   2.906   5.873   2.437  2.3878 -1.2423  0.5447
15263TIP3    H267205   2.974   5.881   2.572 -0.8614  2.4129  2.0432
15264TIP3   OH267206   4.731   6.617  16.709 -0.5487 -0.2196  0.1595
15264TIP3    H167207   4.806   6.658  16.753 -0.0950 -1.5392  0.6358
15264TIP3    H267208   4.749   6.630  16.616  0.5222 -0.9106  0.2504
15265TIP3   OH267209   0.148   3.061   4.378 -0.1987 -0.8786 -0.0835
15265TIP3    H167210   0.220   3.003   4.401  1.4043  1.1370  0.1633
15265TIP3    H267211   0.189   3.133   4.331 -1.4785  2.0852  3.0518
15266TIP3   OH267212   4.497   2.622  12.448 -0.7282 -0.7926  0.3912
15266TIP3    H167213   4.506   2.587  12.359 -2.2798 -1.2707  0.4086
15266TIP3    H267214   4.557   2.696  12.451 -0.1324 -1.2096 -0.8266
15267TIP3   OH267215   0.797   6.771   2.470  0.1880  0.4751 -0.1365
15267TIP3    H167216   0.850   6.839   2.427  1.1932 -1.1850 -1.5693
15267TIP3    H267217   0.860   6.715   2.515 -0.6606  0.6136  1.2717
15268TIP3   OH267218   5.398   3.264   2.732  0.1681 -0.5094  0.3777
15268TIP3    H167219   5.430   3.188   2.684  0.9581  0.4054 -0.5639
15268TIP3    H267220   5.428   3.339   2.681 -1.2885  0.4201  0.8627
15269TIP3   OH267221   2.903   5.515   0.165 -0.1060 -0.5176  0.2403
15269TIP3    H167222   2.861   5.431   0.148 -1.9921  0.4311  0.0257
15269TIP3    H267223   2.897   5.527   0.260 -0.6554 -0.2288  0.1733
15270TIP3   OH267224   5.358   2.672   0.288 -0.0793  0.1317  0.3374
15270TIP3    H167225   5.377   2.762   0.313 -1.2469 -0.0627  2.0101
15270TIP3    H267226   5.395   2.619   0.358  0.2401 -0.6733 -0.4281
15271TIP3   OH267227   4.293   5.540   1.963 -0.0793  0.2600 -0.6838
15271TIP3    H167228   4.358   5.533   1.893  0.3166 -1.6114 -0.1576
15271TIP3    H267229   4.341   5.578   2.036  1.4477 -4.3166  0.8586
15272TIP3   OH267230   0.693   5.489   2.293  0.2866  0.0683  0.0442
15272TIP3    H167231   0.694   5.526   2.381  0.4263  0.0875  0.0343
15272TIP3    H267232   0.612   5.437   2.290 -0.2598  0.9052 -0.1586
15273TIP3   OH267233   1.248   3.060   4.081  0.0410  0.0650 -0.5899
15273TIP3    H167234   1.215   3.038   4.168 -0.3250 -1.1096 -1.0211
15273TIP3    H267235   1.333   3.102   4.097 -1.4753  2.8497  0.5250
15274TIP3   OH267236   2.117   0.147   5.506  0.0805 -0.3267  0.0732
15274TIP3    H167237   2.055   0.091   5.460 -0.7353  0.8314 -0.2537
15274TIP3    H267238   2.062   0.205   5.559  0.8975  0.4145  0.1201
15275TIP3   OH267239   1.709   5.891   1.957  0.0018  0.5826 -0.3612
15275TIP3    H167240   1.634   5.933   1.915  0.3190  0.2476 -1.2748
15275TIP3    H267241   1.748   5.960   2.010 -1.1275  0.6775  0.3695
15276TIP3   OH267242   5.444   6.002  14.193  0.3633 -0.0921 -0.1367
15276TIP3    H167243   5.357   6.039  14.207  0.0398 -1.1162  0.5915
15276TIP3    H267244   5.489   6.013  14.276  0.3687 -1.0460 -0.0053
15277TIP3   OH267245   6.742   0.743  15.580  0.0631  0.0994 -0.0471
15277TIP3    H167246   6.816   0.778  15.631  0.0322 -0.9950  0.7584
15277TIP3    H267247   6.777   0.665  15.537 -0.9918 -1.2012  1.4282
15278TIP3   OH267248   4.775   1.448   1.357  0.3191 -0.0970 -0.5077
15278TIP3    H167249   4.746   1.533   1.389 -0.5716 -0.6935  0.2950
15278TIP3    H267250   4.715   1.427   1.286  0.5899 -0.0222 -0.7602
15279TIP3   OH267251   4.373   2.346  11.695 -0.8768 -0.1705 -0.3995
15279TIP3    H167252   4.401   2.255  11.698 -1.2949 -0.3257 -0.9874
15279TIP3    H267253   4.281   2.341  11.668 -0.5895  0.4772 -1.5208
15280TIP3   OH267254   3.822   4.015   0.191 -0.3599  0.2435 -0.2122
15280TIP3    H167255   3.873   4.095   0.173 -0.9993  1.3230  2.6183
15280TIP3    H267256   3.881   3.960   0.242 -0.9732  0.1962  0.4490
15281TIP3   OH267257   1.275   0.616  11.833  0.4152 -0.3091 -0.3379
15281TIP3    H167258   1.346   0.673  11.865 -0.9638  0.7849  0.8520
15281TIP3    H267259   1.258   0.556  11.905 -2.5324  2.0006  1.0220
15282TIP3   OH267260   1.396   6.129  10.563  0.6751 -0.1128  0.3943
15282TIP3    H167261   1.327   6.190  10.536  2.3853  0.6614 -2.4029
15282TIP3    H267262   1.389   6.055  10.504  1.1820 -0.7924  1.1694
15283TIP3   OH267263   4.051   4.923  17.169  0.3935 -0.4545 -0.2236
15283TIP3    H167264   4.074   4.943  17.078  1.1323 -0.7725 -0.1139
15283TIP3    H267265   4.082   4.833  17.183 -0.2831 -0.6377  0.1560
15284TIP3   OH267266   5.441   3.063   3.264 -0.2846  0.0699  0.3559
15284TIP3    H167267   5.347   3.075   3.280 -0.1631 -1.2853  2.2913
15284TIP3    H267268   5.445   2.996   3.195 -0.7310 -0.9795  1.3371
15285TIP3   OH267269   4.505   3.963  14.714  0.1425  0.2646  0.2340
15285TIP3    H167270   4.540   3.897  14.775  0.7172 -0.1622 -0.5488
15285TIP3    H267271   4.542   3.939  14.629  0.4923  1.6954 -0.0290
15286TIP3   OH267272   1.329   0.912   2.722  0.1815  0.1489  0.0548
15286TIP3    H167273   1.421   0.938   2.722  0.1595  0.2280  0.2432
15286TIP3    H267274   1.282   0.989   2.752 -0.2265  1.0357 -2.7785
15287TIP3   OH267275   5.979   0.541   5.429  0.4767 -0.2919 -0.2558
15287TIP3    H167276   5.907   0.517   5.370 -2.5684  1.7348  2.4698
15287TIP3    H267277   6.006   0.627   5.399 -0.7440  0.5268  0.9343
15288TIP3   OH267278   1.414   6.090   2.322 -0.0621  0.4323  0.1771
15288TIP3    H167279   1.495   6.126   2.358 -1.1624  1.1460  1.9767
15288TIP3    H267280   1.374   6.043   2.395 -1.1153 -0.1950 -0.7892
15289TIP3   OH267281   6.178   5.732   3.905 -0.0633 -0.0103  0.0772
15289TIP3    H167282   6.108   5.797   3.903 -0.9946 -0.9923  0.2246
15289TIP3    H267283   6.197   5.714   3.813  0.3698  0.6539  0.0361
15290TIP3   OH267284   0.916   4.090   4.048  0.3317  0.1009  0.2905
15290TIP3    H167285   0.980   4.069   3.981  0.2225  2.6122 -0.6630
15290TIP3    H267286   0.831   4.077   4.006  0.2652  2.2427 -0.2740
15291TIP3   OH267287   5.145   6.254   3.052  0.2172  0.0925  0.0006
15291TIP3    H167288   5.115   6.341   3.026  1.4798  0.1131 -1.4763
15291TIP3    H267289   5.205   6.269   3.125  0.5945  0.4834 -0.3885
15292TIP3   OH267290   2.516   0.155   2.958 -0.3171  0.1457 -0.1510
15292TIP3    H167291   2.443   0.136   3.018  0.1278 -3.2186 -0.5793
15292TIP3    H267292   2.582   0.195   3.014 -0.6648 -1.1777  1.2597
15293TIP3   OH267293   3.874   0.886  15.376  0.0913  0.2199 -0.0668
15293TIP3    H167294   3.852   0.978  15.393 -0.9464  0.3240 -1.8235
15293TIP3    H267295   3.929   0.860  15.450 -1.9793  1.4057  1.9334
15294TIP3   OH267296   0.090   0.281  12.095  0.4613 -0.2823  0.3869
15294TIP3    H167297   0.035   0.206  12.072  0.2409 -0.2686  0.8611
15294TIP3    H267298   0.150   0.291  12.020  0.8028 -1.2265  0.5269
15295TIP3   OH267299   5.475   4.916  12.365 -0.5474 -0.5989  0.3353
15295TIP3    H167300   5.383   4.894  12.378 -0.8603  0.3813 -0.2222
15295TIP3    H267301   5.505   4.854  12.299 -1.1349 -0.0830 -0.4124
15296TIP3   OH267302   6.071   0.968   3.455 -0.0387  0.6976  0.0083
15296TIP3    H167303   6.024   0.912   3.516  1.7700  0.0487  0.8349
15296TIP3    H267304   6.016   0.969   3.376 -1.2888 -0.2501  0.8476
15297TIP3   OH267305   4.110   6.504  14.957  0.0421 -0.5326  0.0546
15297TIP3    H167306   4.055   6.522  14.881 -1.6190  2.0677  1.8249
15297TIP3    H267307   4.198   6.494  14.920 -0.4788  2.1705 -2.0567
15298TIP3   OH267308   2.541   0.205   2.048  0.0334 -0.2388  0.5953
15298TIP3    H167309   2.570   0.229   2.136 -0.7977 -1.4945  1.2287
15298TIP3    H267310   2.618   0.217   1.992  0.3449  1.3299  1.3522
15299TIP3   OH267311   3.799   4.316  12.363 -0.5067  0.3729 -0.3884
15299TIP3    H167312   3.711   4.283  12.347 -0.9789  0.7895  1.2544
15299TIP3    H267313   3.857   4.248  12.328 -1.4816 -0.7177  0.0916
15300TIP3   OH267314   2.633   0.376  15.265  0.2112  0.6328  0.1478
15300TIP3    H167315   2.566   0.326  15.312  2.4526 -0.4589  2.2843
15300TIP3    H267316   2.650   0.451  15.322  1.1949  0.6168 -0.1281
15301TIP3   OH267317   4.548   4.743  14.980 -0.8346 -0.0051  0.2653
15301TIP3    H167318   4.462   4.769  15.013 -0.5109 -0.4732  1.5446
15301TIP3    H267319   4.531   4.666  14.926 -1.4089  0.9019 -0.8500
15302TIP3   OH267320   6.552   6.071  12.507  0.2895 -0.1632 -0.3065
15302TIP3    H167321   6.602   5.994  12.534 -0.0606 -0.7555 -1.3049
15302TIP3    H267322   6.461   6.050  12.530  0.2825  0.2340  0.0337
15303TIP3   OH267323   5.445   3.080  14.898  0.0464  0.1784  0.5920
15303TIP3    H167324   5.490   3.043  14.974  0.0267  0.1049  0.5685
15303TIP3    H267325   5.355   3.093  14.927  0.3095  1.2098  0.9376
15304TIP3   OH267326   0.856   3.276   6.088  0.0736  0.5405  0.0994
15304TIP3    H167327   0.894   3.232   6.164 -0.9259  0.6168  0.6591
15304TIP3    H267328   0.792   3.337   6.125  0.4938  1.4983 -0.7440
15305TIP3   OH267329   1.641   1.887   2.859 -0.9942  0.3985  0.3461
15305TIP3    H167330   1.620   1.952   2.926  0.0714  0.7901  0.3034
15305TIP3    H267331   1.642   1.936   2.777 -1.1430  0.1399  0.1865
15306TIP3   OH267332   5.191   0.231  15.844 -0.1890  0.2298 -0.2274
15306TIP3    H167333   5.145   0.265  15.768 -1.3729 -0.5724  0.1152
15306TIP3    H267334   5.243   0.158  15.810 -0.5903 -0.0251 -0.2953
15307TIP3   OH267335   3.983   1.654  13.531 -0.2636 -0.4011 -0.4613
15307TIP3    H167336   4.051   1.669  13.596 -0.6946 -2.4348  0.4883
15307TIP3    H267337   4.018   1.586  13.474 -1.0330 -0.6794 -0.6139
15308TIP3   OH267338   6.574   3.138   4.037 -0.3546  0.5093  0.7437
15308TIP3    H167339   6.550   3.152   4.128  0.2978 -1.6585  1.2772
15308TIP3    H267340   6.669   3.127   4.038 -0.3815  0.1214 -0.1442
15309TIP3   OH267341   3.757   3.553  14.908  0.0291  0.1150 -0.7230
15309TIP3    H167342   3.755   3.609  14.986  0.1879 -0.6608 -0.1495
15309TIP3    H267343   3.692   3.485  14.925  1.6849 -1.3976 -0.2218
15310TIP3   OH267344   4.177   3.752   1.445 -0.3452  0.0678  0.0666
15310TIP3    H167345   4.165   3.745   1.350  1.7741 -0.5850 -0.1821
15310TIP3    H267346   4.219   3.670   1.469  0.5556  0.8980  1.3401
15311TIP3   OH267347   3.989   5.288   5.176 -0.0470 -0.1503 -0.0615
15311TIP3    H167348   3.944   5.246   5.103  1.0378 -1.5425  0.0454
15311TIP3    H267349   4.070   5.238   5.185  0.4696  0.9034  1.1918
15312TIP3   OH267350   3.550   4.572  14.505 -0.1864  0.1617  0.4271
15312TIP3    H167351   3.535   4.614  14.420 -0.0617 -1.6904 -0.5278
15312TIP3    H267352   3.507   4.487  14.498  0.1913 -0.1901  2.0882
15313TIP3   OH267353   0.022   4.991   4.673 -0.3046 -0.0574 -0.3859
15313TIP3    H167354   0.023   4.896   4.681  0.2313 -0.0228 -0.0436
15313TIP3    H267355   0.035   5.008   4.580 -0.1257 -0.3086 -0.4056
15314TIP3   OH267356   3.946   0.209   2.543  0.1973  0.6131  0.3367
15314TIP3    H167357   3.927   0.126   2.587  0.6305 -0.3423 -1.2608
15314TIP3    H267358   3.862   0.255   2.543 -0.6383 -0.8497 -0.9022
15315TIP3   OH267359   0.067   0.594  16.440  0.5578 -0.0025  0.0393
15315TIP3    H167360   0.038   0.506  16.416  0.1824 -0.3755  1.7681
15315TIP3    H267361   0.129   0.580  16.511  1.4328  1.0688 -0.4952
15316TIP3   OH267362   1.505   4.658  12.280 -0.4401  0.1618  0.4571
15316TIP3    H167363   1.475   4.640  12.369  0.0478  0.5775  0.7101
15316TIP3    H267364   1.601   4.659  12.287 -0.4302  1.9652  0.2808
15317TIP3   OH267365   1.643   3.574  14.369  0.0882  0.2032  0.0417
15317TIP3    H167366   1.711   3.529  14.419  1.8520  3.1403  0.3470
15317TIP3    H267367   1.654   3.666  14.390 -2.7939  0.9293 -1.4024
15318TIP3   OH267368   3.382   3.658   2.848  0.3005  0.1108  0.0370
15318TIP3    H167369   3.348   3.581   2.802 -0.0001 -0.1603  0.7012
15318TIP3    H267370   3.318   3.727   2.829  0.8687  0.3462 -1.0202
15319TIP3   OH267371   3.849   1.817   2.968  0.1892  0.0197  0.2792
15319TIP3    H167372   3.892   1.820   3.053 -0.6217 -1.8543  0.7760
15319TIP3    H267373   3.912   1.774   2.910 -0.6213 -1.8763  0.7832
15320TIP3   OH267374   0.393   6.248  14.391  0.0199 -0.9666  0.0064
15320TIP3    H167375   0.313   6.244  14.444 -0.9090 -0.8789 -1.3660
15320TIP3    H267376   0.373   6.312  14.322  2.1497  0.9480  1.0679
15321TIP3   OH267377   5.457   2.446  11.324  0.3991 -0.5227 -0.1054
15321TIP3    H167378   5.396   2.379  11.296 -0.0618 -0.4578  0.7382
15321TIP3    H267379   5.443   2.519  11.263  0.7274 -1.0895 -0.8657
15322TIP3   OH267380   2.431   4.980  12.182  0.1093  0.2133 -0.1372
15322TIP3    H167381   2.444   4.914  12.113  0.3832 -0.8710  0.9342
15322TIP3    H267382   2.518   5.020  12.193  0.2660 -0.2062  0.1667
15323TIP3   OH267383   4.539   6.452  11.673  0.3738 -0.0441  0.2650
15323TIP3    H167384   4.463   6.408  11.634  1.0765 -0.3619 -0.7474
15323TIP3    H267385   4.562   6.520  11.610  0.9317  0.0648  0.5863
15324TIP3   OH267386   3.255   4.668  12.761 -0.5513  0.6970 -0.2148
15324TIP3    H167387   3.225   4.749  12.720  0.8797  1.0733 -0.5569
15324TIP3    H267388   3.338   4.691  12.803  0.6280 -0.9117 -1.5579
15325TIP3   OH267389   1.057   6.618   3.329  0.1061  1.0794 -0.0715
15325TIP3    H167390   1.034   6.590   3.417  0.8896 -0.6681 -0.4111
15325TIP3    H267391   1.151   6.607   3.322  0.2354  2.3781 -0.7385
15326TIP3   OH267392   3.138   0.899   5.100  0.4982  0.0311 -0.4283
15326TIP3    H167393   3.168   0.840   5.169  0.1603 -0.8987 -1.0592
15326TIP3    H267394   3.208   0.897   5.035  1.5922  2.2163  0.6212
15327TIP3   OH267395   1.456   3.768  14.664 -0.2458  0.1857  0.0238
15327TIP3    H167396   1.436   3.733  14.751 -0.3419  3.3401  1.3371
15327TIP3    H267397   1.439   3.695  14.604 -2.0563 -1.4644  2.4565
15328TIP3   OH267398   0.583   3.050  12.302 -0.2081  0.0811 -0.2231
15328TIP3    H167399   0.558   3.089  12.386 -0.0807 -2.4696  1.0625
15328TIP3    H267400   0.503   3.010  12.270 -0.2545  1.0494 -1.3558
15329TIP3   OH267401   1.844   5.113   4.585 -0.4414 -0.1214 -0.8617
15329TIP3    H167402   1.794   5.158   4.653 -0.5216  0.0150 -1.0100
15329TIP3    H267403   1.827   5.164   4.505 -0.8866 -0.6749 -1.1191
15330TIP3   OH267404   4.570   3.073  12.338 -0.0009 -0.1043 -0.2001
15330TIP3    H167405   4.651   3.122  12.347 -1.0028  1.8941 -1.6915
15330TIP3    H267406   4.503   3.128  12.378 -1.0782 -0.3916 -1.5512
15331TIP3   OH267407   5.981   4.886  11.568  0.1638 -0.0064 -0.0051
15331TIP3    H167408   5.889   4.888  11.594  0.2887  1.1467  0.3607
15331TIP3    H267409   5.982   4.833  11.488 -0.8867  0.4214 -0.3038
15332TIP3   OH267410   5.167   2.506   0.169 -0.1488 -0.2591 -0.7065
15332TIP3    H167411   5.188   2.592   0.133  0.6364 -0.1901 -0.0932
15332TIP3    H267412   5.245   2.481   0.218 -1.8851  0.5979  2.7158
15333TIP3   OH267413   5.180   2.880  14.474  0.2942  0.2448 -0.0360
15333TIP3    H167414   5.110   2.892  14.410  0.1546 -1.3701 -0.2063
15333TIP3    H267415   5.151   2.931  14.550 -2.0288 -1.9377  0.6099
15334TIP3   OH267416   3.463   0.888   4.578  0.1094 -0.3269 -0.3729
15334TIP3    H167417   3.508   0.958   4.623  0.1011 -0.7585  0.3089
15334TIP3    H267418   3.528   0.850   4.519  0.2998 -0.1796 -0.2543
15335TIP3   OH267419   0.221   1.094   5.804  0.2233  0.4530 -0.4129
15335TIP3    H167420   0.259   1.130   5.884 -1.6225  1.8397 -0.1169
15335TIP3    H267421   0.131   1.073   5.828  0.3846 -1.5112 -1.4414
15336TIP3   OH267422   6.743   1.294  14.902  0.3872  0.4718  0.2430
15336TIP3    H167423   6.776   1.273  14.814 -2.1658 -1.9337 -0.2317
15336TIP3    H267424   6.756   1.214  14.952 -1.2276  0.7127  1.0715
15337TIP3   OH267425   5.357   3.274  14.459 -0.6378  0.6844 -0.1040
15337TIP3    H167426   5.359   3.356  14.409  0.9207 -0.7919 -2.6022
15337TIP3    H267427   5.449   3.257  14.480 -0.6167 -1.7499 -1.9594
15338TIP3   OH267428   4.594   0.519   1.945 -0.4934 -0.3416 -0.3623
15338TIP3    H167429   4.590   0.469   1.864 -0.7414  0.9457 -1.1498
15338TIP3    H267430   4.682   0.556   1.947 -0.0731 -1.3514  0.5605
15339TIP3   OH267431   3.418   0.925   0.581 -0.2993 -0.1615 -0.5286
15339TIP3    H167432   3.345   0.903   0.639  0.8126 -0.5062  0.7755
15339TIP3    H267433   3.418   0.856   0.515 -0.6470 -0.6260 -0.0519
15340TIP3   OH267434   1.572   0.699  15.738  0.2547  0.2885  0.7613
15340TIP3    H167435   1.640   0.756  15.703  0.0626 -0.0820 -0.2297
15340TIP3    H267436   1.605   0.672  15.823  1.0844  0.5674  0.5316
15341TIP3   OH267437   3.924   5.801   2.252  0.5471  0.2380  0.0979
15341TIP3    H167438   4.007   5.844   2.277  1.4258 -1.0265 -0.5850
15341TIP3    H267439   3.858   5.869   2.263  1.4992  0.9243  1.8217
15342TIP3   OH267440   3.896   4.502  13.655 -0.0936  0.3165 -0.6090
15342TIP3    H167441   3.933   4.415  13.639 -2.0442 -0.9815  1.7394
15342TIP3    H267442   3.897   4.511  13.750  0.4393  3.0406 -0.8428
15343TIP3   OH267443   2.911   1.149   2.802  0.5532 -0.6554 -0.2470
15343TIP3    H167444   2.942   1.131   2.891  2.1507 -0.2066 -0.6892
15343TIP3    H267445   2.980   1.114   2.746  0.3320  0.5239 -1.2677
15344TIP3   OH267446   0.214   6.244  12.266  0.1204 -0.0080  0.0936
15344TIP3    H167447   0.239   6.336  12.276  0.3246  0.0967 -1.2649
15344TIP3    H267448   0.121   6.246  12.244 -0.2213 -0.2113  1.4644
15345TIP3   OH267449   1.906   4.706   2.911  0.3434  0.1558 -0.4184
15345TIP3    H167450   1.814   4.732   2.902 -0.1007 -0.4275  2.0448
15345TIP3    H267451   1.914   4.629   2.855 -1.4160 -1.4159  1.3786
15346TIP3   OH267452   0.988   5.023   1.720  0.1478  0.0306  0.0098
15346TIP3    H167453   0.998   5.097   1.780  2.4600  0.0591 -0.3704
15346TIP3    H267454   0.905   5.041   1.675 -0.6011  1.0582  1.7246
15347TIP3   OH267455   6.329   0.025  16.804  0.3877  0.6922 -0.3585
15347TIP3    H167456   6.284   0.041  16.887  1.1871 -0.6205  0.3391
15347TIP3    H267457   6.260   0.034  16.738 -0.1096  2.4528  0.3585
15348TIP3   OH267458   3.730   4.465   2.983  0.5669 -0.2604 -0.0857
15348TIP3    H167459   3.780   4.487   2.905  1.3016  0.3240  0.5318
15348TIP3    H267460   3.788   4.488   3.056 -0.2934 -0.3283  0.6377
15349TIP3   OH267461   2.950   0.039   2.942 -0.2673 -0.7188  0.0725
15349TIP3    H167462   2.965  -0.047   2.903 -1.2917 -1.9821  2.3485
15349TIP3    H267463   3.038   0.069   2.967  0.1665 -0.7800 -1.3012
15350TIP3   OH267464   2.279   2.773  16.791 -0.1911 -0.0549  0.3292
15350TIP3    H167465   2.310   2.775  16.701 -0.3129  1.3764  0.3120
15350TIP3    H267466   2.295   2.861  16.824  2.3491 -1.2726  2.5654
15351TIP3   OH267467   6.078   2.245   5.882 -0.0562  0.2722 -0.4127
15351TIP3    H167468   6.028   2.195   5.817 -1.4135  1.5174 -0.3339
15351TIP3    H267469   6.070   2.194   5.963  0.9719 -0.8695 -1.0206
15352TIP3   OH267470   3.062   4.153  11.582 -0.2793 -0.0271  0.4428
15352TIP3    H167471   3.060   4.115  11.494 -0.3618  0.5576  0.1876
15352TIP3    H267472   3.078   4.247  11.567  0.0991  0.0067  1.0722
15353TIP3   OH267473   2.637   5.521  14.748 -0.4124 -0.2574 -0.1843
15353TIP3    H167474   2.546   5.496  14.734 -0.2781 -0.5985 -0.4444
15353TIP3    H267475   2.671   5.539  14.661  0.4774 -2.5689 -0.3396
15354TIP3   OH267476   1.336   5.876  12.730 -0.1314  0.3464  0.0358
15354TIP3    H167477   1.404   5.808  12.730  0.6749  1.1200 -1.8435
15354TIP3    H267478   1.268   5.842  12.789  0.5520 -1.7765 -0.3643
15355TIP3   OH267479   0.799   2.578   2.250 -0.1460 -0.2362 -0.0019
15355TIP3    H167480   0.806   2.482   2.249  3.2375 -0.1719  3.5916
15355TIP3    H267481   0.881   2.608   2.210 -0.9388  1.1682 -0.5822
15356TIP3   OH267482   4.482   2.158   1.238  0.1182  0.3840 -0.2097
15356TIP3    H167483   4.434   2.165   1.156  0.1522 -0.5799 -0.3158
15356TIP3    H267484   4.414   2.145   1.305  0.2127 -0.8598 -0.3449
15357TIP3   OH267485   1.425   1.406   0.737  0.1513 -0.4460  0.2820
15357TIP3    H167486   1.455   1.490   0.703  0.9543  0.0029  1.9952
15357TIP3    H267487   1.483   1.342   0.697 -0.5705 -0.1994 -1.1621
15358TIP3   OH267488   5.978   4.825  11.875 -0.2050 -0.1959 -0.4475
15358TIP3    H167489   6.029   4.765  11.820 -1.4552 -0.0403 -1.8109
15358TIP3    H267490   5.918   4.868  11.814 -1.7294 -0.1218  1.0756
15359TIP3   OH267491   5.641   4.837   3.587 -0.3424 -0.9060 -0.3241
15359TIP3    H167492   5.646   4.767   3.523 -0.1613 -0.6451 -0.6006
15359TIP3    H267493   5.733   4.856   3.609 -0.3839 -0.6965 -0.3215
15360TIP3   OH267494   3.682   1.351   2.967 -0.5713  0.1535 -0.4066
15360TIP3    H167495   3.635   1.385   2.891  0.4476 -2.5470 -2.3377
15360TIP3    H267496   3.664   1.257   2.966  0.9219 -0.1782  1.6497
15361TIP3   OH267497   2.877   4.870  15.154 -0.3100  0.0892  0.0419
15361TIP3    H167498   2.940   4.929  15.194  1.9290 -1.2852 -1.3477
15361TIP3    H267499   2.856   4.909  15.069  1.1160 -1.0057 -0.8474
15362TIP3   OH267500   1.891   5.076  16.929 -0.3446  0.9636  0.1980
15362TIP3    H167501   1.975   5.047  16.962 -0.7143 -0.3584 -0.0096
15362TIP3    H267502   1.834   5.079  17.006 -1.2221 -2.1745 -0.2844
15363TIP3   OH267503   4.124   3.833   2.321 -0.3279 -0.0948 -0.1852
15363TIP3    H167504   4.170   3.780   2.256  0.1078  1.1958 -0.9545
15363TIP3    H267505   4.068   3.771   2.367  0.1835 -1.2228 -1.0523
15364TIP3   OH267506   3.382   0.825   5.231 -0.0995 -0.4503  0.1725
15364TIP3    H167507   3.395   0.904   5.283 -0.7765 -0.9279  1.0846
15364TIP3    H267508   3.461   0.819   5.176 -0.2803  1.1281 -0.2834
15365TIP3   OH267509   5.998   3.708   0.879  0.4614  0.4235  0.5914
15365TIP3    H167510   5.982   3.789   0.927  1.3634  1.1294 -0.2822
15365TIP3    H267511   5.944   3.643   0.924  1.4188  1.0099  2.6507
15366TIP3   OH267512   1.988   4.433   3.082  0.3675 -0.2947 -0.1302
15366TIP3    H167513   1.956   4.474   3.001  0.1821 -0.4424 -0.1319
15366TIP3    H267514   2.042   4.360   3.052  0.5288 -0.1756 -0.1251
15367TIP3   OH267515   6.280   1.906  16.864 -0.3823 -0.4812 -0.1729
15367TIP3    H167516   6.296   1.949  16.948 -1.7386  1.0701 -0.6877
15367TIP3    H267517   6.343   1.944  16.804 -0.9603  0.1028 -0.4070
15368TIP3   OH267518   2.802   1.759  12.776 -0.1492 -0.1035 -0.0696
15368TIP3    H167519   2.846   1.684  12.735 -0.1507  0.4814 -1.1701
15368TIP3    H267520   2.717   1.763  12.733 -0.9579 -0.7121  1.4504
15369TIP3   OH267521   4.999   6.030   1.971 -0.3674 -1.1979  0.0080
15369TIP3    H167522   4.919   6.082   1.975 -0.6397 -1.4622 -1.5700
15369TIP3    H267523   5.069   6.092   1.993 -0.8278 -0.4890 -0.4851
15370TIP3   OH267524   5.271   5.104   0.902  0.4573 -0.2695  0.2942
15370TIP3    H167525   5.289   5.073   0.813 -0.1962  0.6466 -0.1789
15370TIP3    H267526   5.176   5.118   0.903  0.2698 -1.5934  1.5858
15371TIP3   OH267527   6.742   2.773   4.565  0.1364  0.3747  0.8811
15371TIP3    H167528   6.710   2.696   4.518 -1.9777  0.9606  1.3185
15371TIP3    H267529   6.823   2.743   4.607  0.1522 -1.1647 -0.1921
15372TIP3   OH267530   4.762   5.655   2.698 -0.3299  0.3103  0.1407
15372TIP3    H167531   4.693   5.601   2.658  0.3716  0.1254 -0.8471
15372TIP3    H267532   4.807   5.696   2.624  1.9685 -1.2200  0.6095
15373TIP3   OH267533   2.814   3.794   6.105  0.2839  0.5195 -0.1566
15373TIP3    H167534   2.834   3.712   6.150  0.6044  1.1537  0.8722
15373TIP3    H267535   2.745   3.834   6.157  1.9614  2.1532  0.8872
15374TIP3   OH267536   6.155   0.416   4.962  0.1105 -1.0004  0.3759
15374TIP3    H167537   6.066   0.406   4.926 -0.1052  1.2502  0.2004
15374TIP3    H267538   6.208   0.439   4.886  0.3291  0.3082  0.9211
15375TIP3   OH267539   4.916   3.372  15.208  0.0138  0.2264  0.2407
15375TIP3    H167540   4.969   3.292  15.203  1.3490  1.0688  0.4657
15375TIP3    H267541   4.882   3.373  15.298 -0.6619 -0.4971 -0.0082
15376TIP3   OH267542   2.100   6.414   3.806  0.1758  0.0404  0.4356
15376TIP3    H167543   2.039   6.472   3.759  0.2927  0.9227  1.3642
15376TIP3    H267544   2.044   6.349   3.848  0.1366 -1.5915 -1.9856
15377TIP3   OH267545   0.882   4.511  10.884 -0.6730  0.3322 -1.3667
15377TIP3    H167546   0.977   4.498  10.879 -0.5664  0.9288 -0.9398
15377TIP3    H267547   0.868   4.550  10.971 -1.3424 -0.0593 -1.2958
15378TIP3   OH267548   1.715   1.038   2.482 -0.6500 -0.5199 -0.4487
15378TIP3    H167549   1.711   1.118   2.431 -0.6812  0.3914  0.9566
15378TIP3    H267550   1.705   1.066   2.573 -0.3590 -2.0783  0.0932
15379TIP3   OH267551   1.293   3.303  16.172 -0.0615 -0.2909 -0.2827
15379TIP3    H167552   1.276   3.382  16.120  2.6425  1.5034  1.4786
15379TIP3    H267553   1.261   3.324  16.259 -0.0001 -1.4498  0.0272
15380TIP3   OH267554   3.059   4.722   3.293  0.2034  0.0790 -0.1369
15380TIP3    H167555   2.982   4.775   3.273  0.4588  0.4502 -0.1575
15380TIP3    H267556   3.121   4.785   3.332  0.1006 -0.4132  0.8507
15381TIP3   OH267557   3.713   2.324   4.276 -0.1246 -0.2404 -0.2776
15381TIP3    H167558   3.743   2.342   4.366 -1.9329  0.0423  0.2863
15381TIP3    H267559   3.793   2.304   4.228  0.7679 -1.5687  1.6822
15382TIP3   OH267560   0.127   6.418   0.884  0.1858  0.5038  0.3800
15382TIP3    H167561   0.196   6.352   0.890  0.0741  0.3126 -0.4543
15382TIP3    H267562   0.047   6.369   0.868 -0.0595  0.7759  0.7451
15383TIP3   OH267563   0.200   6.102   5.790 -0.0901  0.4343  0.4433
15383TIP3    H167564   0.126   6.052   5.758 -0.0403 -2.0354  3.8681
15383TIP3    H267565   0.161   6.170   5.846  0.1448 -0.3937  1.6392
15384TIP3   OH267566   0.638   6.278   2.953 -0.0630  0.1472 -0.3015
15384TIP3    H167567   0.653   6.332   3.030 -0.8804  0.8051 -0.6047
15384TIP3    H267568   0.638   6.340   2.880 -1.0389 -0.2524 -0.6471
15385TIP3   OH267569   1.775   0.036   1.519 -0.0579  0.6709 -0.1274
15385TIP3    H167570   1.827   0.116   1.521  0.4415  0.3315  0.4745
15385TIP3    H267571   1.838  -0.034   1.501 -0.6963  0.5686 -2.0835
15386TIP3   OH267572   4.153   4.970  13.275  0.3376  0.2849  0.4842
15386TIP3    H167573   4.183   4.889  13.234  2.0551  0.7854  0.6862
15386TIP3    H267574   4.058   4.962  13.278  0.5927 -2.8433  2.8058
15387TIP3   OH267575   1.517   4.899   4.440 -0.0147  0.0216 -0.0985
15387TIP3    H167576   1.484   4.814   4.468 -0.8859  0.5895  0.6732
15387TIP3    H267577   1.438   4.951   4.425  0.4960  0.4119 -1.4535
15388TIP3   OH267578   0.345   0.432  13.693  0.1465  0.2142 -0.0509
15388TIP3    H167579   0.298   0.468  13.768  0.7693  1.1762 -0.1163
15388TIP3    H267580   0.428   0.400  13.729 -0.1573 -0.6061 -0.0912
15389TIP3   OH267581   2.366   3.092   1.806  0.1636  0.4956 -0.2279
15389TIP3    H167582   2.404   3.018   1.854  1.1860  0.9758 -0.2831
15389TIP3    H267583   2.277   3.101   1.842  0.3225 -0.2404  0.3580
15390TIP3   OH267584   6.183   3.622  14.175 -0.0995 -0.6394  0.3768
15390TIP3    H167585   6.198   3.575  14.093  3.6237  0.5517  0.2772
15390TIP3    H267586   6.165   3.712  14.148 -3.9432 -1.2328  0.7110
15391TIP3   OH267587   5.379   5.845   4.942  0.2277  0.0600  0.3417
15391TIP3    H167588   5.442   5.820   5.009  1.2755  0.6690 -0.4095
15391TIP3    H267589   5.309   5.889   4.991  1.4412  1.3679  0.9567
15392TIP3   OH267590   0.221   1.901  17.044  0.1468 -0.3559  0.1864
15392TIP3    H167591   0.301   1.952  17.057  0.1105 -0.3565  0.4110
15392TIP3    H267592   0.253   1.814  17.018  0.2341 -0.5013  0.7698
15393TIP3   OH267593   1.781   0.814   2.234  1.0185 -0.4519 -0.0698
15393TIP3    H167594   1.740   0.889   2.278 -0.2227 -1.7636  1.0662
15393TIP3    H267595   1.861   0.797   2.285  1.5637  0.4017 -0.6315
15394TIP3   OH267596   2.336   3.808   5.295  0.1464  0.3442 -0.1768
15394TIP3    H167597   2.408   3.744   5.297  1.0028  1.3157  0.6292
15394TIP3    H267598   2.379   3.890   5.272 -0.7945  0.8313 -0.1793
15395TIP3   OH267599   3.919   0.825  13.527 -0.5271  0.2507 -0.5515
15395TIP3    H167600   3.868   0.817  13.608 -0.7556 -1.3045 -0.8379
15395TIP3    H267601   3.938   0.918  13.521 -1.3406  0.5299  0.7895
15396TIP3   OH267602   4.801   1.150  13.826  0.1478 -0.3823  0.4074
15396TIP3    H167603   4.784   1.222  13.887 -0.7940  0.8826 -1.3413
15396TIP3    H267604   4.716   1.128  13.789  0.4504 -2.2923  0.7787
15397TIP3   OH267605   5.119   1.025  14.094 -0.3212 -0.3956  0.7271
15397TIP3    H167606   5.108   1.061  14.182 -0.3311 -0.7289  0.8638
15397TIP3    H267607   5.210   1.042  14.071 -0.0464 -1.2167  1.2091
15398TIP3   OH267608   1.654   0.378   4.709  0.2070 -1.1630  0.0301
15398TIP3    H167609   1.716   0.441   4.674 -2.3074  0.9991 -0.7259
15398TIP3    H267610   1.617   0.421   4.786 -1.6863 -1.5840 -0.6016
15399TIP3   OH267611   2.072   1.061  11.566 -0.1907  0.2854 -0.2380
15399TIP3    H167612   2.002   1.078  11.503 -0.0662 -1.7983 -1.0048
15399TIP3    H267613   2.040   1.097  11.648 -2.3058 -0.8716 -0.5088
15400TIP3   OH267614   5.813   5.637   4.834 -0.5470 -0.0446  0.3218
15400TIP3    H167615   5.841   5.728   4.834 -1.0692  0.1264  1.2724
15400TIP3    H267616   5.879   5.591   4.782 -1.0264  1.0942 -1.3320
15401TIP3   OH267617   3.905   0.504   4.685 -0.5083  0.7862 -0.0084
15401TIP3    H167618   3.983   0.535   4.639 -0.4646 -1.8902 -1.8490
15401TIP3    H267619   3.832   0.534   4.630 -0.6695  1.0638  0.3518
15402TIP3   OH267620   3.433   0.454   3.077 -0.0445 -0.0409 -0.2641
15402TIP3    H167621   3.466   0.364   3.076 -0.4819 -0.2289  0.9317
15402TIP3    H267622   3.399   0.469   2.989  0.1555 -1.0001 -0.5036
15403TIP3   OH267623   3.537   1.892   1.912  0.0246 -0.3012 -0.2397
15403TIP3    H167624   3.611   1.946   1.883 -0.2303  0.9734  1.3782
15403TIP3    H267625   3.460   1.941   1.885 -0.2115  0.0533  1.0287
15404TIP3   OH267626   4.324   5.449   6.186  0.5984 -0.0297  0.1697
15404TIP3    H167627   4.299   5.450   6.093  0.1803 -0.6641  0.2660
15404TIP3    H267628   4.258   5.393   6.227  1.3479 -0.5474  0.6832
15405TIP3   OH267629   4.000   3.681  12.620 -0.1568 -0.2597 -0.5670
15405TIP3    H167630   4.015   3.775  12.625 -2.6312  0.1370  0.4672
15405TIP3    H267631   3.930   3.672  12.555  0.3447 -1.4006 -0.9429
15406TIP3   OH267632   2.361   4.545  16.817  0.3581 -0.2419 -0.1551
15406TIP3    H167633   2.396   4.611  16.757 -0.5360  0.5563  0.1975
15406TIP3    H267634   2.296   4.591  16.868  0.6879 -1.0759  1.0347
15407TIP3   OH267635   4.947   3.867  11.492 -0.0555 -0.6224 -0.3674
15407TIP3    H167636   4.927   3.955  11.461  0.5474 -1.3045 -2.8777
15407TIP3    H267637   4.904   3.860  11.577  1.5070  2.7301  0.7817
15408TIP3   OH267638   6.375   2.548  11.333 -0.0357 -0.2954  0.1004
15408TIP3    H167639   6.382   2.453  11.335  1.3105 -0.1850  1.3514
15408TIP3    H267640   6.421   2.574  11.253  2.9625 -0.4700  1.7052
15409TIP3   OH267641   5.420   4.548   2.189  0.4091 -0.2012 -0.2751
15409TIP3    H167642   5.490   4.489   2.158  0.4541 -0.6859  0.7409
15409TIP3    H267643   5.344   4.525   2.135 -0.1174 -2.5176  1.3658
15410TIP3   OH267644   5.891   3.649   2.791  0.7490 -0.2808 -0.1106
15410TIP3    H167645   5.949   3.700   2.847  1.7404  0.0881 -1.4300
15410TIP3    H267646   5.904   3.686   2.704 -0.9312 -0.6866 -0.5542
15411TIP3   OH267647   6.097   5.341   0.028  0.0409  0.0818  0.5294
15411TIP3    H167648   6.041   5.383  -0.036 -1.9046 -2.7600  0.2639
15411TIP3    H267649   6.166   5.299  -0.024 -0.4761 -0.6547  0.4304
15412TIP3   OH267650   6.287   1.563   4.295 -0.1847 -0.3651 -0.1085
15412TIP3    H167651   6.325   1.482   4.330  1.7981 -0.0838 -1.5564
15412TIP3    H267652   6.321   1.632   4.352  1.4775 -0.1227 -1.3544
15413TIP3   OH267653   2.765   3.008  13.837 -0.3509  0.0172  0.2523
15413TIP3    H167654   2.806   3.094  13.844 -1.1336  0.3498  0.8049
15413TIP3    H267655   2.832   2.952  13.797 -0.4837  1.3291 -1.8756
15414TIP3   OH267656   3.314   1.901  17.114  0.3083  0.2884 -0.1511
15414TIP3    H167657   3.339   1.963  17.045  0.9200  0.5039  0.2617
15414TIP3    H267658   3.388   1.840  17.119 -0.0017 -0.0879 -0.0988
15415TIP3   OH267659   4.228   0.176   2.903 -0.6247 -0.3418 -0.4257
15415TIP3    H167660   4.163   0.136   2.961 -0.4303 -0.8531 -0.5610
15415TIP3    H267661   4.199   0.267   2.894 -0.0009  0.0743  1.4499
15416TIP3   OH267662   4.302   6.390   0.497  0.4860  0.1074  0.1921
15416TIP3    H167663   4.355   6.462   0.529  1.6218 -0.2568 -0.8715
15416TIP3    H267664   4.344   6.311   0.532 -0.1756 -0.1093  0.5251
15417TIP3   OH267665   2.602   1.070  14.128 -0.7591 -0.1624 -0.4990
15417TIP3    H167666   2.546   1.032  14.060  0.3420 -0.2586 -1.3578
15417TIP3    H267667   2.566   1.158  14.142 -0.3633  0.2417 -1.9538
15418TIP3   OH267668   0.129   3.521  17.069  0.3564 -0.5354 -0.0087
15418TIP3    H167669   0.061   3.454  17.063  0.9017 -1.1843  0.8745
15418TIP3    H267670   0.154   3.520  17.162  2.2952 -1.0437 -0.5190
15419TIP3   OH267671   5.890   2.545  15.249 -0.0879 -0.1965 -0.2776
15419TIP3    H167672   5.799   2.520  15.232 -0.3321  1.0435 -0.8448
15419TIP3    H267673   5.884   2.629  15.294  0.7732 -0.3469  0.1328
15420TIP3   OH267674   4.483   3.572   5.968  0.1774 -0.5408 -0.4048
15420TIP3    H167675   4.464   3.666   5.963 -2.1228 -0.9776 -0.1807
15420TIP3    H267676   4.530   3.561   6.050  0.7554  0.4572 -0.5951
15421TIP3   OH267677   6.214   1.539  15.312  0.4881 -0.4751 -0.7561
15421TIP3    H167678   6.213   1.445  15.293 -1.3348 -0.3097 -1.6081
15421TIP3    H267679   6.124   1.567  15.298  0.5268  1.0036  1.6675
15422TIP3   OH267680   4.769   5.494  14.672 -0.3434 -0.4071  0.6756
15422TIP3    H167681   4.850   5.461  14.711  0.1533 -0.3067 -0.2540
15422TIP3    H267682   4.705   5.423  14.683  0.8407 -1.9258 -1.7562
15423TIP3   OH267683   0.258   6.663   3.793 -0.0742  0.3846  0.1034
15423TIP3    H167684   0.216   6.577   3.792 -0.1933  0.4522 -2.4019
15423TIP3    H267685   0.251   6.692   3.884 -2.8324 -0.9031  0.3415
15424TIP3   OH267686   3.729   4.540   6.386 -0.7094  0.7420 -0.8199
15424TIP3    H167687   3.681   4.581   6.315 -1.4474  1.4819  0.0836
15424TIP3    H267688   3.680   4.563   6.465  0.3306  0.3105 -0.0243
15425TIP3   OH267689   0.884   5.961   3.687  0.4830 -0.2493  0.7236
15425TIP3    H167690   0.874   6.047   3.728  3.7077 -1.2838  3.9299
15425TIP3    H267691   0.850   5.900   3.752  1.6963 -1.6364  0.0728
15426TIP3   OH267692   3.493   3.562   1.527 -0.0401 -0.0391 -0.0610
15426TIP3    H167693   3.572   3.616   1.524  1.6970 -2.4499 -0.1189
15426TIP3    H267694   3.471   3.555   1.620  0.0015  0.4078 -0.0207
15427TIP3   OH267695   4.436   0.845  14.194 -0.1636 -0.9053  0.3959
15427TIP3    H167696   4.362   0.890  14.233 -1.2067 -2.1502 -0.0862
15427TIP3    H267697   4.437   0.759  14.236 -0.0200 -1.4932 -0.7855
15428TIP3   OH267698   4.213   1.273  16.166 -0.3600 -0.0940 -0.1958
15428TIP3    H167699   4.219   1.327  16.245 -1.3918 -1.4708  0.8501
15428TIP3    H267700   4.212   1.183  16.199 -0.0832 -0.7090 -1.8318
15429TIP3   OH267701   3.160   5.684  12.740 -0.3204 -0.2128  0.2018
15429TIP3    H167702   3.227   5.630  12.783  1.4695  3.2216  1.8998
15429TIP3    H267703   3.174   5.669  12.647  1.4536 -1.1454  0.5780
15430TIP3   OH267704   0.060   5.815   2.338  0.0338 -0.3905  0.0430
15430TIP3    H167705  -0.002   5.792   2.407  0.7123 -0.6405  0.5824
15430TIP3    H267706   0.142   5.772   2.365  1.6896  3.5345  1.6953
15431TIP3   OH267707   3.801   6.399  16.073  0.2933  0.2536  0.1585
15431TIP3    H167708   3.808   6.307  16.048 -1.8387  0.3519 -0.9377
15431TIP3    H267709   3.771   6.397  16.164  1.7580 -0.1202  0.6408
15432TIP3   OH267710   2.154   6.233  12.408  0.0015 -0.2033  0.1776
15432TIP3    H167711   2.095   6.170  12.450 -1.9218  1.2092 -0.3205
15432TIP3    H267712   2.220   6.253  12.475 -0.4218 -1.3555  0.9534
15433TIP3   OH267713   4.498   6.765   3.898 -0.5488 -0.3648 -0.4375
15433TIP3    H167714   4.562   6.738   3.964  0.7703  1.2512 -0.9888
15433TIP3    H267715   4.452   6.839   3.938 -0.1722  0.2199 -1.0592
15434TIP3   OH267716   0.376   6.474   2.737  0.0811 -0.0913 -0.1497
15434TIP3    H167717   0.466   6.460   2.765 -0.5107 -1.1455  1.2449
15434TIP3    H267718   0.382   6.481   2.641  1.7395  0.6996 -0.0125
15435TIP3   OH267719   6.095   6.391   5.989 -0.5660  0.0096  0.0253
15435TIP3    H167720   6.130   6.356   6.071  1.5825  1.5453 -0.2098
15435TIP3    H267721   6.088   6.485   6.004 -0.2860  0.2822 -1.5063
15436TIP3   OH267722   2.408   6.418   1.076 -0.6648  0.1732  0.5692
15436TIP3    H167723   2.482   6.397   1.132  0.1492  1.9392  0.1762
15436TIP3    H267724   2.424   6.370   0.995  0.0828  0.6015  0.4638
15437TIP3   OH267725   1.596   5.481   2.953 -0.1791  0.1272  0.5815
15437TIP3    H167726   1.679   5.527   2.967  0.6347 -1.5056  1.2435
15437TIP3    H267727   1.532   5.534   3.001  0.7181  0.6107  1.2692
15438TIP3   OH267728   4.023   0.440   0.996  0.2391  0.9316 -0.4056
15438TIP3    H167729   4.113   0.411   1.010  0.2550  0.5697 -1.2490
15438TIP3    H267730   3.999   0.403   0.911 -0.7417  0.9424 -0.1316
15439TIP3   OH267731   4.089   0.054  14.216  0.0788 -0.3916  0.0921
15439TIP3    H167732   3.997   0.074  14.232  0.0636 -0.8590  0.5853
15439TIP3    H267733   4.125   0.034  14.302  1.9248  4.9572  0.7084
15440TIP3   OH267734   6.565   2.813  11.824  0.0589 -0.2702  0.3771
15440TIP3    H167735   6.641   2.799  11.880 -0.6318 -0.5745  1.2386
15440TIP3    H267736   6.598   2.800  11.735  1.8268  2.9947  0.4663
15441TIP3   OH267737   5.713   2.390   1.500  0.1382 -0.0456  0.7760
15441TIP3    H167738   5.782   2.360   1.559  0.5199  1.4858  1.1273
15441TIP3    H267739   5.759   2.444   1.436 -0.4933 -0.4824 -0.0530
15442TIP3   OH267740   3.484   0.270  14.397  0.3857  0.5558 -0.1071
15442TIP3    H167741   3.564   0.227  14.427 -1.3515 -2.8234 -0.0588
15442TIP3    H267742   3.430   0.277  14.476 -0.7140 -0.3237 -0.7720
15443TIP3   OH267743   2.744   3.142   1.833 -0.1575 -0.1497 -0.6140
15443TIP3    H167744   2.774   3.094   1.910 -0.5813 -0.2522 -0.5125
15443TIP3    H267745   2.671   3.195   1.864 -1.3093 -1.3242 -1.2527
15444TIP3   OH267746   4.074   0.964   3.904  0.1489 -0.5228 -0.1306
15444TIP3    H167747   4.102   0.877   3.931  3.1263  0.6883  0.8698
15444TIP3    H267748   4.003   0.986   3.965  1.1350 -1.2275  1.2951
15445TIP3   OH267749   5.640   1.636   0.232  1.2850 -0.7038 -0.1251
15445TIP3    H167750   5.630   1.541   0.223 -0.5913 -0.7977  2.5502
15445TIP3    H267751   5.716   1.647   0.288 -0.8664 -0.8342  2.9843
15446TIP3   OH267752   1.585   1.119   1.865  0.4241 -0.2568 -0.2560
15446TIP3    H167753   1.535   1.041   1.842  1.3584 -1.3421  1.2417
15446TIP3    H267754   1.677   1.091   1.857  0.7985  1.4258 -2.1024
15447TIP3   OH267755   0.533   4.679   3.867  0.3751  0.4187  0.2966
15447TIP3    H167756   0.546   4.587   3.890  0.3354  0.4944  0.6272
15447TIP3    H267757   0.442   4.684   3.837  0.2533  0.4271  0.6653
15448TIP3   OH267758   2.664   6.298   0.019  0.4765  0.3933 -0.2584
15448TIP3    H167759   2.600   6.365  -0.004 -1.3225 -1.1106  0.3084
15448TIP3    H267760   2.629   6.217  -0.016  1.4908 -0.6397  1.0476
15449TIP3   OH267761   3.354   4.831   2.884 -0.4108  0.3673  0.1839
15449TIP3    H167762   3.415   4.785   2.826 -0.7259  1.8098 -1.3014
15449TIP3    H267763   3.279   4.771   2.891  0.5089 -0.7284  0.7812
15450TIP3   OH267764   4.044   4.381  15.820  0.4505  0.4992 -0.1509
15450TIP3    H167765   4.033   4.459  15.766  0.8855  1.2075  0.7590
15450TIP3    H267766   4.138   4.363  15.815  0.7995  1.6420  1.8007
15451TIP3   OH267767   1.499   5.301   4.885  0.1936 -0.2293  1.2381
15451TIP3    H167768   1.522   5.382   4.930  0.2268  0.1836  0.4954
15451TIP3    H267769   1.426   5.265   4.936 -1.3376  1.4282  0.3106
15452TIP3   OH267770   4.542   0.510   5.499 -0.0674  0.2234  0.3162
15452TIP3    H167771   4.591   0.589   5.522  0.7676 -0.3507  0.5096
15452TIP3    H267772   4.527   0.466   5.583 -0.0111 -0.1357  0.1361
15453TIP3   OH267773   1.063   5.236  12.071  0.1474  0.7552  0.8057
15453TIP3    H167774   1.108   5.155  12.097 -0.3661 -0.1791 -1.1536
15453TIP3    H267775   1.093   5.253  11.982 -3.2443  0.1669 -0.5242
15454TIP3   OH267776   1.453   4.763   3.110  0.1074  0.4111  0.2058
15454TIP3    H167777   1.486   4.681   3.146  1.5949  1.1792  0.6154
15454TIP3    H267778   1.516   4.787   3.043  0.1524  1.6767  0.6952
15455TIP3   OH267779   1.866   0.568   1.199 -0.3663  0.1962  0.1241
15455TIP3    H167780   1.872   0.474   1.211  0.6731  0.2597  0.1937
15455TIP3    H267781   1.805   0.598   1.266  0.3988 -0.2472  1.0151
15456TIP3   OH267782   0.817   5.237  15.017  0.1985  0.0471  0.1883
15456TIP3    H167783   0.795   5.144  15.017 -2.2002  0.5910  1.4309
15456TIP3    H267784   0.770   5.274  15.092  0.0704  2.5060 -1.0300
15457TIP3   OH267785   6.307   6.418  16.783 -0.0166 -0.4022  0.2504
15457TIP3    H167786   6.306   6.457  16.870 -0.9428  0.5823 -0.1800
15457TIP3    H267787   6.363   6.340  16.791 -0.8918 -0.8708  1.9564
15458TIP3   OH267788   2.175   4.209   3.885  0.2226 -0.3167  0.3265
15458TIP3    H167789   2.179   4.298   3.920 -1.0995  0.2196 -0.8631
15458TIP3    H267790   2.267   4.182   3.877  0.6641  1.3008 -0.2242
15459TIP3   OH267791   0.412   1.771  16.707  0.2846 -0.2074  0.3507
15459TIP3    H167792   0.434   1.831  16.779  0.9577 -0.0276 -0.0004
15459TIP3    H267793   0.352   1.708  16.746 -0.2980  0.5909  0.7700
15460TIP3   OH267794   5.822   2.958  16.140  0.0449 -0.0510  0.3552
15460TIP3    H167795   5.735   2.956  16.181  0.7359  0.6331  1.8762
15460TIP3    H267796   5.859   2.872  16.159 -0.4512 -0.5047 -0.6697
15461TIP3   OH267797   5.462   1.404  12.346  0.1264 -0.1782 -0.6130
15461TIP3    H167798   5.400   1.345  12.388 -0.2336  1.0719  0.6532
15461TIP3    H267799   5.411   1.448  12.278  0.0218 -0.2926 -0.6078
15462TIP3   OH267800   4.899   2.880  14.021  0.3586  0.5175  0.3175
15462TIP3    H167801   4.974   2.871  14.080  0.5324  1.5571  0.2656
15462TIP3    H267802   4.829   2.914  14.076  0.0138 -0.1787  0.3028
15463TIP3   OH267803   4.995   1.091   3.542 -0.0938 -0.5788 -0.0615
15463TIP3    H167804   5.085   1.107   3.516 -0.1440 -0.5815 -0.2315
15463TIP3    H267805   4.967   1.016   3.490  0.7992 -2.5427  2.1898
15464TIP3   OH267806   3.865   4.764   0.945 -0.0265  0.2515 -0.6421
15464TIP3    H167807   3.866   4.858   0.930 -2.7953  0.4359 -0.1052
15464TIP3    H267808   3.809   4.729   0.875 -1.8757 -0.5195  1.1558
15465TIP3   OH267809   2.282   5.155   2.189 -0.0270 -0.4161 -0.1645
15465TIP3    H167810   2.371   5.164   2.156  0.0780  1.6836  0.6041
15465TIP3    H267811   2.229   5.211   2.131 -0.0876  2.0113  2.1316
15466TIP3   OH267812   4.841   3.587   2.941 -1.2840  0.2771  0.0147
15466TIP3    H167813   4.854   3.636   3.022 -0.2582  0.6920 -0.3843
15466TIP3    H267814   4.875   3.645   2.872 -0.7474 -0.6789 -0.5394
15467TIP3   OH267815   2.923   3.746  14.844 -0.2135  0.2991 -0.0209
15467TIP3    H167816   2.927   3.760  14.749 -1.6958 -0.8547 -0.2754
15467TIP3    H267817   2.838   3.703  14.858 -0.2349  0.9213  1.8903
15468TIP3   OH267818   6.663   0.950  14.014 -0.3019  0.1519 -0.4385
15468TIP3    H167819   6.600   0.887  13.979  0.3860 -1.4969  1.1698
15468TIP3    H267820   6.742   0.937  13.961 -0.3161 -0.0016 -0.4206
15469TIP3   OH267821   5.827   2.120  15.462 -0.3517 -0.5191 -0.0394
15469TIP3    H167822   5.758   2.186  15.455  0.1426  0.4699  3.5007
15469TIP3    H267823   5.903   2.160  15.420 -0.4066  0.7242  0.9932
15470TIP3   OH267824   1.266   1.076   5.948  0.9703  0.0082 -0.0914
15470TIP3    H167825   1.262   1.164   5.985 -0.5503  0.3357 -0.9996
15470TIP3    H267826   1.250   1.018   6.022 -0.5838  0.6010  0.0464
15471TIP3   OH267827   1.800   2.553   5.873  0.6243  0.1122  0.2265
15471TIP3    H167828   1.786   2.459   5.864 -0.5227  0.2828  0.2222
15471TIP3    H267829   1.785   2.571   5.966 -1.0693  0.6086 -0.1383
15472TIP3   OH267830   1.195   0.470   4.031 -0.0791  0.1929  0.3509
15472TIP3    H167831   1.153   0.484   3.946 -1.7643  1.3472  1.3431
15472TIP3    H267832   1.282   0.509   4.023  0.0930 -0.4907 -1.1165
15473TIP3   OH267833   0.770   6.783  10.917 -0.4005 -0.3159  0.3312
15473TIP3    H167834   0.736   6.693  10.913  0.9149 -0.9901  3.0517
15473TIP3    H267835   0.731   6.826  10.841 -0.5642 -3.3531 -1.4251
15474TIP3   OH267836   3.472   5.334  16.723 -0.3998 -0.1751  0.2763
15474TIP3    H167837   3.450   5.393  16.796 -1.1736  0.8909 -0.7904
15474TIP3    H267838   3.560   5.359  16.697 -0.6696  0.4311 -0.0750
15475TIP3   OH267839   1.252   2.654  16.083  0.3330 -0.1606 -0.3602
15475TIP3    H167840   1.261   2.586  16.149 -0.5276  1.1394  1.1263
15475TIP3    H267841   1.334   2.703  16.087  0.4060 -0.2744 -0.4701
15476TIP3   OH267842   2.941   2.215   0.120 -0.6396  0.6114  0.1759
15476TIP3    H167843   3.035   2.221   0.104 -0.6902  1.7631  0.2815
15476TIP3    H267844   2.902   2.285   0.067 -1.4973 -0.2407 -0.3385
15477TIP3   OH267845   4.764   1.300   4.384  0.2432 -0.1664 -0.3679
15477TIP3    H167846   4.806   1.381   4.354 -1.6790  1.3375  0.9026
15477TIP3    H267847   4.798   1.286   4.472  0.8876 -1.0002 -0.7373
15478TIP3   OH267848   2.097   5.030  17.124 -0.5628  0.0133  0.0005
15478TIP3    H167849   2.173   5.072  17.164 -0.0645  0.1084 -1.0525
15478TIP3    H267850   2.075   4.959  17.185  0.9903 -0.6638 -0.2084
15479TIP3   OH267851   3.385   1.744  15.592 -0.6885  0.2104 -0.2435
15479TIP3    H167852   3.444   1.691  15.644 -0.0303 -1.4893 -2.6395
15479TIP3    H267853   3.421   1.832  15.597  1.3228 -0.5785 -0.6525
15480TIP3   OH267854   6.361   4.017   2.863  0.2709  0.8697 -0.0038
15480TIP3    H167855   6.337   3.925   2.874 -2.9590  1.3434 -2.1468
15480TIP3    H267856   6.347   4.056   2.949 -0.6164 -0.2243  0.3672
15481TIP3   OH267857   0.837   4.032   4.320 -0.0680 -0.8244  0.3940
15481TIP3    H167858   0.856   4.100   4.385  0.3282 -1.1181  0.5836
15481TIP3    H267859   0.844   4.077   4.236 -0.3700 -0.4952  0.5420
15482TIP3   OH267860   3.122   1.564  17.210 -0.7353 -0.3199  0.0394
15482TIP3    H167861   3.041   1.527  17.175 -1.5768  0.9838  0.5731
15482TIP3    H267862   3.126   1.653  17.174  1.2637 -0.9105 -1.2330
15483TIP3   OH267863   3.437   3.834  14.997  0.6219 -0.2191  0.0960
15483TIP3    H167864   3.357   3.849  14.946  2.1061  1.8516 -1.7145
15483TIP3    H267865   3.442   3.739  15.006 -1.6656 -0.4214 -0.3434
15484TIP3   OH267866   4.190   3.697   3.017  0.0375 -0.2819  0.0193
15484TIP3    H167867   4.175   3.621   2.961 -0.6968  0.1103 -0.3136
15484TIP3    H267868   4.104   3.736   3.030  0.1945 -0.3613  1.4119
15485TIP3   OH267869   5.848   5.522  12.582 -0.1003  0.3173  0.4292
15485TIP3    H167870   5.917   5.456  12.588 -0.3522 -0.0417 -0.5293
15485TIP3    H267871   5.769   5.476  12.607 -0.6513 -0.3784 -2.3485
15486TIP3   OH267872   0.505   0.769  10.218 -0.1805  0.2480  0.4808
15486TIP3    H167873   0.555   0.823  10.157 -0.9920 -0.6670 -0.9975
15486TIP3    H267874   0.416   0.770  10.185 -0.6349 -0.2775  1.6458
15487TIP3   OH267875   4.001   4.270   6.542  0.1144 -0.7980 -0.5222
15487TIP3    H167876   3.992   4.300   6.452 -0.9855 -1.3000 -0.5905
15487TIP3    H267877   4.085   4.305   6.571 -0.6550  1.5135 -0.9312
15488TIP3   OH267878   2.784   4.339   1.277  0.0571  0.8191  0.5838
15488TIP3    H167879   2.820   4.425   1.253 -0.4056  0.8921  0.1323
15488TIP3    H267880   2.769   4.296   1.193  1.0155 -0.0094  0.8278
15489TIP3   OH267881   6.427   6.317   1.366 -0.1573  0.3132  0.0161
15489TIP3    H167882   6.468   6.326   1.280 -0.8190  0.4446 -0.2879
15489TIP3    H267883   6.474   6.380   1.421 -0.0300  0.5495 -0.3588
15490TIP3   OH267884   3.087   3.512  12.190  0.3421 -0.3453 -0.0500
15490TIP3    H167885   3.151   3.507  12.262 -0.0032  0.9722  0.3612
15490TIP3    H267886   3.044   3.426  12.191  0.0405 -0.1973  1.6094
15491TIP3   OH267887   5.826   6.081  12.471  0.4870 -0.3062 -0.5552
15491TIP3    H167888   5.836   6.001  12.522  2.2170 -0.0986 -0.5405
15491TIP3    H267889   5.828   6.052  12.380 -1.1687 -0.5222 -0.5266
15492TIP3   OH267890   5.998   0.139   2.205  0.2853 -0.3532  0.5351
15492TIP3    H167891   6.082   0.164   2.243 -1.3270  1.1544  3.2934
15492TIP3    H267892   5.976   0.056   2.249 -0.3520  0.0331  0.9600
15493TIP3   OH267893   5.818   1.205   0.351  0.2833  0.2528  0.4245
15493TIP3    H167894   5.807   1.181   0.259  0.6337 -0.4989  0.5756
15493TIP3    H267895   5.893   1.154   0.381 -1.0342 -1.0457  1.6494
15494TIP3   OH267896   1.286   2.992  16.111  0.2572  0.0738 -0.0377
15494TIP3    H167897   1.223   3.062  16.128  0.2818 -0.0420  0.5348
15494TIP3    H267898   1.240   2.932  16.052  1.2326  2.0161 -2.8866
15495TIP3   OH267899   0.776   5.675  16.023  0.5072  0.2938 -1.0614
15495TIP3    H167900   0.764   5.721  16.106 -1.2744  0.7539 -1.5396
15495TIP3    H267901   0.727   5.728  15.959 -0.3211 -1.4427 -1.8958
15496TIP3   OH267902   5.143   4.394  10.523 -0.2933 -0.2878 -0.6943
15496TIP3    H167903   5.192   4.475  10.512 -0.4006  0.1527  1.8743
15496TIP3    H267904   5.208   4.324  10.511  0.7050  0.2709  1.2654
15497TIP3   OH267905   0.711   6.553   0.625 -0.1119  0.2272  0.0946
15497TIP3    H167906   0.802   6.573   0.647 -0.2142  1.1702 -0.2953
15497TIP3    H267907   0.717   6.494   0.550  0.1879  0.0990  0.2203
15498TIP3   OH267908   3.734   0.283   1.706  0.3499 -0.2425 -0.4709
15498TIP3    H167909   3.751   0.352   1.769  0.6326  1.6275 -2.5484
15498TIP3    H267910   3.657   0.237   1.741 -0.1586  1.4273  0.6574
15499TIP3   OH267911   4.807   6.380   5.918  0.1072 -0.2226  0.3166
15499TIP3    H167912   4.777   6.445   5.854  1.0946  0.0241  0.0891
15499TIP3    H267913   4.749   6.392   5.993  1.8122  2.6445  1.2644
15500TIP3   OH267914   6.240   3.888  11.369 -0.5123 -0.1021 -0.1095
15500TIP3    H167915   6.277   3.939  11.297  0.0255 -2.2192 -1.3657
15500TIP3    H267916   6.149   3.916  11.374 -0.6077 -0.0879 -1.7598
15501TIP3   OH267917   4.050   4.089   1.147  0.1523  0.1734 -0.3550
15501TIP3    H167918   4.020   4.099   1.237  0.5158 -1.0391 -0.0849
15501TIP3    H267919   4.056   4.178   1.113  0.6975  0.6748  1.0346
15502TIP3   OH267920   5.165   0.220  14.660  0.1144  0.0031  0.4159
15502TIP3    H167921   5.184   0.152  14.596 -1.0935 -0.8839  0.9651
15502TIP3    H267922   5.092   0.184  14.711  0.2650  1.2041  1.4923
15503TIP3   OH267923   5.212   0.911  16.012 -0.2938 -0.0116 -0.4156
15503TIP3    H167924   5.203   0.963  15.932  0.4115  0.5150 -0.1622
15503TIP3    H267925   5.129   0.924  16.058 -0.7201 -0.3495 -1.0820
15504TIP3   OH267926   3.128   3.570  14.667  0.4747 -0.4994 -0.1886
15504TIP3    H167927   3.101   3.530  14.750  1.1152 -2.1833 -0.7807
15504TIP3    H267928   3.155   3.497  14.612  3.4121  0.8442 -0.6653
15505TIP3   OH267929   1.252   0.806  13.775 -0.1986  0.1638  0.2484
15505TIP3    H167930   1.270   0.713  13.785 -0.5535 -0.0420 -0.9787
15505TIP3    H267931   1.338   0.845  13.758 -0.0583  0.0534  0.7002
15506TIP3   OH267932   3.235   1.842   2.256  0.4928 -0.4388 -0.1527
15506TIP3    H167933   3.277   1.894   2.324  0.5966 -2.2079  1.1831
15506TIP3    H267934   3.304   1.782   2.226 -0.6740 -2.5264  1.1843
15507TIP3   OH267935   2.413   0.181  14.007  1.2394  0.1080  0.0202
15507TIP3    H167936   2.441   0.103  13.960 -0.6378 -0.5967  0.0168
15507TIP3    H267937   2.317   0.182  13.998  1.1462  1.8415  0.8862
15508TIP3   OH267938   1.036   5.749  13.225 -0.2932 -0.1161 -0.3023
15508TIP3    H167939   0.976   5.684  13.262 -0.9533  0.6080 -0.0815
15508TIP3    H267940   0.987   5.831  13.228  0.8029  0.5406  0.1331
15509TIP3   OH267941   6.033   6.742  15.094  0.5935  0.4084  0.0143
15509TIP3    H167942   6.066   6.672  15.150  1.2049  0.7613  0.0949
15509TIP3    H267943   6.007   6.811  15.155 -0.9116 -0.1202 -0.0049
15510TIP3   OH267944   4.862   5.309  15.242 -0.1591 -0.3015 -0.0477
15510TIP3    H167945   4.789   5.260  15.280  0.4845  0.0365  1.6815
15510TIP3    H267946   4.868   5.387  15.297  1.0961 -0.0336 -0.5697
15511TIP3   OH267947   4.970   3.637  15.462  0.1641  0.3797 -0.1679
15511TIP3    H167948   4.901   3.571  15.465 -0.3407  0.7183 -2.9437
15511TIP3    H267949   4.930   3.714  15.503 -0.8283  0.3050 -0.9622
15512TIP3   OH267950   6.653   5.049   6.443  0.7543  0.1492  0.8672
15512TIP3    H167951   6.725   5.097   6.486  1.5774 -1.4740  1.3664
15512TIP3    H267952   6.689   4.961   6.428 -0.4596 -0.0894 -0.7279
15513TIP3   OH267953   5.124   5.962   5.006 -0.1976  0.5066 -0.1674
15513TIP3    H167954   5.119   5.905   5.083 -0.9620  0.5450 -0.1855
15513TIP3    H267955   5.035   5.960   4.969  0.6638 -1.1520 -2.2352
15514TIP3   OH267956   2.474   0.967  12.172  0.0619  0.3632 -0.2360
15514TIP3    H167957   2.556   0.973  12.220  0.6687  0.4394 -1.2667
15514TIP3    H267958   2.469   1.049  12.122 -0.4164  0.1577 -0.5375
15515TIP3   OH267959   4.621   4.065  12.111  0.1561 -1.0347 -0.1712
15515TIP3    H167960   4.592   4.045  12.200 -1.4108 -2.2066 -0.9086
15515TIP3    H267961   4.549   4.035  12.055  0.7662  0.4339 -1.7843
15516TIP3   OH267962   3.896   1.845   2.316 -0.1749 -0.3010  0.1463
15516TIP3    H167963   3.829   1.788   2.279  0.6642  0.3021 -2.4278
15516TIP3    H267964   3.849   1.924   2.343 -1.0337 -1.3737  1.8377
15517TIP3   OH267965   0.267   4.520   0.599  0.1701  0.0733 -0.2576
15517TIP3    H167966   0.202   4.486   0.538 -1.3738  1.7280  0.4387
15517TIP3    H267967   0.320   4.581   0.547 -0.4837  0.6968 -0.1875
15518TIP3   OH267968   5.123   5.282  11.326  0.1209 -0.8780 -0.0701
15518TIP3    H167969   5.065   5.211  11.356  0.5398 -1.2435 -0.1301
15518TIP3    H267970   5.112   5.283  11.230 -0.6568 -0.1904  0.0140
15519TIP3   OH267971   4.227   3.076  15.190 -0.0190 -0.1314  0.3367
15519TIP3    H167972   4.320   3.087  15.210 -0.0348  1.9374 -0.6407
15519TIP3    H267973   4.223   3.070  15.095 -0.9655  0.7706  0.3062
15520TIP3   OH267974   5.687   3.359   3.024 -0.2649 -0.5081  0.3160
15520TIP3    H167975   5.755   3.318   2.970 -0.6501 -0.9472  0.1609
15520TIP3    H267976   5.695   3.316   3.109 -0.5674 -0.7965  0.1990
15521TIP3   OH267977   6.487   1.836   0.293  0.5287  0.1635  0.1901
15521TIP3    H167978   6.505   1.818   0.386  1.5707  2.4301  0.4621
15521TIP3    H267979   6.394   1.859   0.291  0.9174  1.9498  1.0154
15522TIP3   OH267980   1.068   2.219   4.744  0.2686 -0.3670  0.0379
15522TIP3    H167981   1.106   2.151   4.800 -1.6440 -2.1569 -0.7892
15522TIP3    H267982   1.077   2.184   4.655 -0.9589  0.3511 -0.3792
15523TIP3   OH267983   0.471   6.172   4.753 -0.3716 -0.7737  0.3789
15523TIP3    H167984   0.406   6.237   4.780 -0.8529 -1.6764  1.4322
15523TIP3    H267985   0.531   6.220   4.697 -1.4914  0.2652  0.0580
15524TIP3   OH267986   1.309   0.321  15.730  0.0404  0.1385  0.5748
15524TIP3    H167987   1.361   0.273  15.795  0.1459 -1.1888 -0.4768
15524TIP3    H267988   1.226   0.340  15.775 -0.1305 -1.3260  0.9177
15525TIP3   OH267989   6.618   4.024  13.522 -0.1619 -0.0535  0.0456
15525TIP3    H167990   6.550   3.992  13.463  1.1871  1.1931 -2.2481
15525TIP3    H267991   6.592   4.114  13.542  1.3920  0.8591 -1.8401
15526TIP3   OH267992   5.630   2.442   3.286  0.0458  0.1030  0.3051
15526TIP3    H167993   5.706   2.501   3.286  0.9570 -1.0158  2.4441
15526TIP3    H267994   5.557   2.497   3.315  0.2432  0.9137 -0.6866
15527TIP3   OH267995   6.063   5.499  12.235  1.1604  0.6408  0.7107
15527TIP3    H167996   6.017   5.579  12.262 -0.5116 -0.1848  0.3052
15527TIP3    H267997   6.008   5.428  12.266  3.0948 -0.3961  1.8513
15528TIP3   OH267998   2.213   2.816   6.275 -0.0083  0.4374 -0.1711
15528TIP3    H167999   2.228   2.740   6.331  0.3056  0.4208 -0.2800
15528TIP3    H268000   2.270   2.803   6.200 -1.1487 -0.0216 -0.9650
15529TIP3   OH268001   2.251   2.357   5.414 -0.3438  0.2696 -0.4629
15529TIP3    H168002   2.165   2.382   5.448  0.3795  1.9228  0.2352
15529TIP3    H268003   2.310   2.372   5.488  0.6979  0.2185 -1.2844
15530TIP3   OH268004   3.760   5.115   2.974 -0.1297  0.8778  0.5565
15530TIP3    H168005   3.814   5.048   2.932  0.6125  0.8332  1.5598
15530TIP3    H268006   3.682   5.121   2.919  0.0644 -0.3926  0.1274
15531TIP3   OH268007   0.099   6.597   4.464  0.5034  0.3558  0.0511
15531TIP3    H168008   0.084   6.583   4.371 -0.6843  0.8307  0.1594
15531TIP3    H268009   0.189   6.569   4.479  1.3690  2.1460 -1.6331
15532TIP3   OH268010   6.600   2.711   1.110  0.9563  0.1275 -0.6797
15532TIP3    H168011   6.689   2.710   1.074  0.9012 -1.1343 -0.7981
15532TIP3    H268012   6.569   2.621   1.100  0.6900 -0.0951  1.8815
15533TIP3   OH268013   3.381   5.880   4.286  0.1477 -0.6236  0.0882
15533TIP3    H168014   3.414   5.908   4.200  2.9615 -0.5453  1.1361
15533TIP3    H268015   3.458   5.847   4.332 -1.4010 -1.1462  2.4196
15534TIP3   OH268016   6.645   2.600  14.049  0.2860  0.1603  0.0342
15534TIP3    H168017   6.611   2.589  14.138 -2.3274 -0.8678 -1.0308
15534TIP3    H268018   6.658   2.695  14.040 -1.4368  0.5070  0.8426
15535TIP3   OH268019   6.349   6.372   0.885 -0.2282  0.3288  0.2611
15535TIP3    H168020   6.318   6.304   0.945  0.1442 -0.2144 -0.1451
15535TIP3    H268021   6.277   6.385   0.824 -0.9583  1.5501  1.3812
15536TIP3   OH268022   2.139   1.277  16.802  0.5778 -0.3449  0.8790
15536TIP3    H168023   2.162   1.355  16.853  0.6275 -0.3660  0.8882
15536TIP3    H268024   2.135   1.308  16.712 -0.3293 -0.1333  0.9945
15537TIP3   OH268025   1.335   1.205   3.889 -0.1204  0.3656 -0.3409
15537TIP3    H168026   1.280   1.202   3.811 -0.2266 -0.5149 -0.2343
15537TIP3    H268027   1.284   1.159   3.956 -0.2971  1.6328  0.4262
15538TIP3   OH268028   2.616   0.357  14.667  0.5799  0.1809 -0.2959
15538TIP3    H168029   2.632   0.293  14.736 -0.0553  1.1537  0.7826
15538TIP3    H268030   2.696   0.409  14.663  1.1050 -0.6794 -1.1868
15539TIP3   OH268031   3.202   0.225  12.715  0.2846  0.1738 -0.4332
15539TIP3    H168032   3.153   0.272  12.782  1.7763  0.1108  0.7375
15539TIP3    H268033   3.197   0.133  12.741 -0.5242 -0.0333 -1.3268
15540TIP3   OH268034   3.891   3.890   0.732 -0.1640  0.4696 -0.2082
15540TIP3    H168035   3.899   3.943   0.653  0.2377  0.0474 -0.4568
15540TIP3    H268036   3.889   3.800   0.700  0.2071  0.2859  0.2772
15541TIP3   OH268037   6.640   2.207  11.247 -0.0728  0.4263 -0.5767
15541TIP3    H168038   6.615   2.211  11.155  1.9831  1.0424 -1.1395
15541TIP3    H268039   6.665   2.297  11.269  0.6884  0.0322  0.2160
15542TIP3   OH268040   4.255   3.550  11.074  0.5376  0.4992 -0.7665
15542TIP3    H168041   4.206   3.627  11.042 -0.3579  0.0054 -0.6039
15542TIP3    H268042   4.345   3.566  11.047  0.0192  0.6852 -2.4677
15543TIP3   OH268043   0.957   0.913  14.518 -0.3008 -0.5522 -0.5534
15543TIP3    H168044   0.867   0.906  14.488 -0.7462  0.5811  0.4917
15543TIP3    H268045   0.971   1.006  14.533  1.2717 -0.6417 -1.3772
15544TIP3   OH268046   1.416   4.423   2.363 -0.8328 -0.3414  0.3028
15544TIP3    H168047   1.361   4.346   2.352 -0.7661  0.0345 -3.3438
15544TIP3    H268048   1.360   4.487   2.408 -2.9125 -0.4664 -2.0316
15545TIP3   OH268049   1.281   2.664   2.869  0.2178 -0.0024 -0.5901
15545TIP3    H168050   1.216   2.601   2.838 -1.4775  2.0301 -1.3041
15545TIP3    H268051   1.352   2.660   2.805 -0.4972 -0.2169 -1.3748
15546TIP3   OH268052   5.892   5.649   3.572 -0.5306 -0.4032  0.6059
15546TIP3    H168053   5.949   5.639   3.495 -2.3047 -1.8462 -0.5566
15546TIP3    H268054   5.918   5.733   3.609  1.4556 -0.4078 -0.6453
15547TIP3   OH268055   0.840   2.965  10.550 -0.1473  0.3211  0.3294
15547TIP3    H168056   0.858   2.877  10.518 -0.2946  0.6487 -0.6700
15547TIP3    H268057   0.920   2.991  10.596  0.3426  0.1187 -0.3982
15548TIP3   OH268058   6.405   5.442   3.884  0.8407 -0.4229  0.5165
15548TIP3    H168059   6.467   5.504   3.925 -1.6091  1.0260  2.1854
15548TIP3    H268060   6.359   5.494   3.819 -0.2053 -0.8603  0.8965
15549TIP3   OH268061   6.676   4.370   4.243  0.1551 -0.1619 -0.2926
15549TIP3    H168062   6.755   4.344   4.196  0.6506 -0.3725  0.6470
15549TIP3    H268063   6.667   4.305   4.313 -0.9938 -0.2953 -0.5455
15550TIP3   OH268064   1.201   2.853  16.986 -0.2542 -0.1383  0.0089
15550TIP3    H168065   1.264   2.831  17.054  0.6671  1.6479 -0.2482
15550TIP3    H268066   1.236   2.813  16.906 -0.6851 -1.1578  0.3242
15551TIP3   OH268067   6.504   2.104  12.129 -0.2183 -0.1044  0.6231
15551TIP3    H168068   6.454   2.059  12.197  1.0663 -0.8992  1.0484
15551TIP3    H268069   6.545   2.178  12.174  1.4265 -1.1884  0.9563
15552TIP3   OH268070   5.582   4.428   0.726  0.2181 -0.5988 -0.0801
15552TIP3    H168071   5.665   4.448   0.770  0.1265 -1.1890  0.3686
15552TIP3    H268072   5.518   4.486   0.767  0.2051 -0.8867  0.3131
15553TIP3   OH268073   3.566   2.291   0.131 -0.0717  0.0878  0.4367
15553TIP3    H168074   3.498   2.343   0.172  1.1754  0.6626  1.8353
15553TIP3    H268075   3.645   2.345   0.135  0.5033 -0.5876 -1.0813
15554TIP3   OH268076   0.386   6.025  10.469  0.1174  0.0395  0.5932
15554TIP3    H168077   0.430   6.097  10.514 -0.6128 -0.0195  1.4340
15554TIP3    H268078   0.456   5.963  10.448  1.2241  2.4396 -3.0408
15555TIP3   OH268079   3.170   0.782  10.725 -0.1637  0.0901 -0.0760
15555TIP3    H168080   3.150   0.688  10.720  0.8028 -0.2427  1.7609
15555TIP3    H268081   3.131   0.819  10.646 -2.0135 -1.5933 -0.0070
15556TIP3   OH268082   1.554   3.892   3.995 -0.2502 -0.1020  0.4170
15556TIP3    H168083   1.520   3.844   4.070 -0.1823 -1.2654 -0.2776
15556TIP3    H268084   1.478   3.938   3.960 -0.2346  0.6217  1.3247
15557TIP3   OH268085   5.854   2.179   2.082 -0.3708 -0.7493 -0.0804
15557TIP3    H168086   5.936   2.196   2.128  0.3734  0.4244 -1.7955
15557TIP3    H268087   5.786   2.208   2.144  0.6327  1.5025  0.0206
15558TIP3   OH268088   2.332   5.327   0.793  0.4314  0.5462  0.4199
15558TIP3    H168089   2.320   5.237   0.762  0.9946  0.5850  0.0885
15558TIP3    H268090   2.282   5.330   0.875 -0.7110  0.3281 -0.2553
15559TIP3   OH268091   4.333   6.628   4.224 -0.3379 -0.6616  0.1094
15559TIP3    H168092   4.345   6.707   4.172  0.9284 -2.0346 -1.7442
15559TIP3    H268093   4.300   6.660   4.308 -0.3224  1.7790 -0.7596
15560TIP3   OH268094   1.170   3.744  13.929 -0.6374 -0.2963  0.4699
15560TIP3    H168095   1.256   3.764  13.892  0.1536  0.4981  2.6315
15560TIP3    H268096   1.154   3.653  13.905  0.0985  0.0120 -1.2697
15561TIP3   OH268097   6.450   3.877   6.381  0.0464  0.0885 -0.4132
15561TIP3    H168098   6.397   3.913   6.310 -2.0874  0.1083  1.1381
15561TIP3    H268099   6.487   3.954   6.424 -0.3693  0.1963 -0.2390
15562TIP3   OH268100   5.249   2.372  14.772 -0.2660  0.2639  0.6564
15562TIP3    H168101   5.163   2.367  14.813  0.4442  0.8232  2.2660
15562TIP3    H268102   5.304   2.416  14.837  0.9423  1.0130 -0.8403
15563TIP3   OH268103   0.743   2.062   2.554  0.1222  0.1380  0.7017
15563TIP3    H168104   0.690   2.082   2.476  0.9791 -2.7383 -0.6800
15563TIP3    H268105   0.728   2.137   2.613 -3.7727  0.4249 -0.5190
15564TIP3   OH268106   1.442   4.690  15.941  0.2043 -0.4610 -0.5133
15564TIP3    H168107   1.501   4.688  15.866 -0.6311  0.2416 -1.1984
15564TIP3    H268108   1.480   4.754  16.000  0.6209 -0.6876 -0.5314
15565TIP3   OH268109   3.455   4.371  16.932  0.1074  0.0513 -1.2607
15565TIP3    H168110   3.417   4.287  16.905  0.8436 -0.0195 -2.1317
15565TIP3    H268111   3.462   4.365  17.027 -0.3536 -0.6637 -1.2686
15566TIP3   OH268112   2.483   0.449   5.363  0.1541  0.4674 -0.1847
15566TIP3    H168113   2.510   0.537   5.338  0.7440  0.3161 -0.0920
15566TIP3    H268114   2.489   0.398   5.282 -1.9568  0.9262 -0.6436
15567TIP3   OH268115   0.759   5.225   3.769  0.0820  0.2491  0.2794
15567TIP3    H168116   0.810   5.306   3.764  0.7608 -0.2168 -0.5709
15567TIP3    H268117   0.726   5.212   3.680  0.7642 -0.8964  0.1829
15568TIP3   OH268118   1.675   6.583  12.088  0.4767 -0.1311 -0.0832
15568TIP3    H168119   1.754   6.599  12.037  0.5033 -1.2521 -0.4258
15568TIP3    H268120   1.664   6.488  12.085  0.0592 -0.1451  1.3789
15569TIP3   OH268121   0.972   6.345  16.192  0.3742  0.0139  0.2111
15569TIP3    H168122   1.062   6.373  16.206  0.3689  0.4901 -0.6959
15569TIP3    H268123   0.959   6.351  16.097 -1.1730  1.7208  0.5023
15570TIP3   OH268124   0.189   0.179   4.296 -0.2504 -0.5614 -0.3962
15570TIP3    H168125   0.210   0.095   4.336 -0.2981 -0.7204 -0.7089
15570TIP3    H268126   0.100   0.199   4.327  0.6874  0.5569  1.6823
15571TIP3   OH268127   1.161   1.079  15.511 -0.3263  0.3926  0.3964
15571TIP3    H168128   1.089   1.038  15.462  0.5946 -1.3564  0.4696
15571TIP3    H268129   1.172   1.024  15.588  0.0727  1.5578  1.1856
15572TIP3   OH268130   2.702   5.087   1.809  0.7596 -0.1927 -0.1297
15572TIP3    H168131   2.723   5.132   1.727  2.2293 -2.0312 -0.7955
15572TIP3    H268132   2.626   5.033   1.788  0.8765 -0.3422 -0.1698
15573TIP3   OH268133   1.764   2.455  11.463 -1.0452 -0.4423 -0.0047
15573TIP3    H168134   1.727   2.493  11.384 -1.3336  1.3572  0.9768
15573TIP3    H268135   1.689   2.416  11.508 -1.3333  0.8934  0.6907
15574TIP3   OH268136   0.925   5.075  16.962 -0.3386  1.0649  0.2589
15574TIP3    H168137   0.871   5.152  16.982 -1.9279 -0.3367  1.5247
15574TIP3    H268138   0.988   5.071  17.034  0.0718  1.4558 -0.0744
15575TIP3   OH268139   3.351   5.556  12.347 -0.2970  0.1186 -0.8548
15575TIP3    H168140   3.306   5.639  12.363  1.6093  1.2473 -1.1060
15575TIP3    H268141   3.315   5.495  12.411 -0.0333  1.7971  0.9149
15576TIP3   OH268142   5.093   0.622   1.578  0.0909 -0.1719  0.6456
15576TIP3    H168143   5.129   0.693   1.525  1.8001  1.0364  3.2893
15576TIP3    H268144   5.071   0.663   1.662  0.8707 -2.6609  2.1452
15577TIP3   OH268145   5.888   5.168  12.129 -0.3875  0.3999 -0.4788
15577TIP3    H168146   5.936   5.156  12.047 -0.6293  0.2228 -0.5947
15577TIP3    H268147   5.828   5.093  12.133 -1.3947  1.1711 -0.8442
15578TIP3   OH268148   2.218   5.795  16.937 -0.4148  0.2726 -0.0040
15578TIP3    H168149   2.287   5.730  16.921 -0.0323  0.5985  0.3147
15578TIP3    H268150   2.149   5.746  16.981 -0.6672 -0.2038 -0.9140
15579TIP3   OH268151   1.677   2.390   5.127  0.6624  0.6727 -0.0975
15579TIP3    H168152   1.737   2.352   5.191 -0.6839 -0.9552  0.2332
15579TIP3    H268153   1.704   2.351   5.043  0.6512  0.6389 -0.0861
15580TIP3   OH268154   2.146   0.806  16.767  0.0174 -0.8508 -0.0128
15580TIP3    H168155   2.201   0.871  16.722 -1.6651 -0.9724 -2.2888
15580TIP3    H268156   2.172   0.722  16.729 -0.9088 -1.0339 -0.2442
15581TIP3   OH268157   6.542   6.372  11.242  0.6413 -0.0285  0.1566
15581TIP3    H168158   6.509   6.300  11.296  0.6804 -0.0464  0.1570
15581TIP3    H268159   6.487   6.446  11.265 -0.4815 -0.4580 -1.0289
15582TIP3   OH268160   6.377   6.655  12.123 -0.4676 -0.2000 -0.3433
15582TIP3    H168161   6.285   6.678  12.141 -1.1273 -2.3297 -0.7687
15582TIP3    H268162   6.407   6.723  12.064 -1.8260  0.4563 -0.3177
15583TIP3   OH268163   3.450   5.413  14.751  0.6025  0.0697  0.1773
15583TIP3    H168164   3.386   5.379  14.813  0.1821 -1.0197 -0.8513
15583TIP3    H268165   3.400   5.469  14.692  1.1516  1.8697  1.3422
15584TIP3   OH268166   2.606   6.540   5.070  0.5018 -0.0108 -0.1952
15584TIP3    H168167   2.682   6.490   5.042  1.7952  1.7182  0.1168
15584TIP3    H268168   2.577   6.586   4.991 -2.4421 -3.3563 -1.1949
15585TIP3   OH268169   5.524   4.162   2.055 -0.0476 -0.0330  0.4999
15585TIP3    H168170   5.583   4.136   2.126  1.0639 -0.7840 -0.6710
15585TIP3    H268171   5.488   4.079   2.022 -1.6147  0.3955  1.0538
15586TIP3   OH268172   0.249   6.751   1.930  0.0046 -0.3687  0.0256
15586TIP3    H168173   0.261   6.843   1.954 -2.6091 -0.6284  2.4882
15586TIP3    H268174   0.160   6.747   1.893  1.2898 -1.3397 -3.1738
15587TIP3   OH268175   4.741   2.392  13.899  0.2462 -0.3022  0.1860
15587TIP3    H168176   4.783   2.475  13.921 -1.6552  0.7104  0.1216
15587TIP3    H268177   4.782   2.365  13.817  0.1055  1.1574 -0.3834
15588TIP3   OH268178   2.382   5.904   2.543 -0.4236  0.2638  0.5392
15588TIP3    H168179   2.327   5.849   2.598 -0.0381 -0.5758  0.0868
15588TIP3    H268180   2.462   5.918   2.594 -0.6025  0.5873  0.7382
15589TIP3   OH268181   0.687   2.766  14.864 -0.1563 -0.7336 -0.3647
15589TIP3    H168182   0.603   2.792  14.825 -0.4021  1.2867  1.4072
15589TIP3    H268183   0.687   2.807  14.950  1.6628 -2.6615  0.5991
15590TIP3   OH268184   2.656   1.592  17.036  0.2637  0.8251 -0.3143
15590TIP3    H168185   2.590   1.553  17.093 -0.7517  0.5456 -1.6646
15590TIP3    H268186   2.633   1.685  17.032  1.9416  1.3710  1.8879
15591TIP3   OH268187   3.308   1.021  15.671  1.0148 -0.3900  0.3987
15591TIP3    H168188   3.360   1.002  15.592  1.7853  0.1576  0.7603
15591TIP3    H268189   3.225   0.975  15.657  0.4859  1.0518 -1.5118
15592TIP3   OH268190   2.252   1.159  12.846  0.0075  0.0404  0.4998
15592TIP3    H168191   2.219   1.164  12.936  1.0159  0.8843  0.8398
15592TIP3    H268192   2.334   1.111  12.854  0.0413  0.0178  0.0140
15593TIP3   OH268193   0.373   2.258   0.297  0.0989 -0.2370 -0.2666
15593TIP3    H168194   0.367   2.170   0.332 -1.3699 -0.1202 -0.1722
15593TIP3    H268195   0.464   2.283   0.309  0.3408 -1.4354  0.4446
15594TIP3   OH268196   3.194   5.845   0.641  0.1423  0.3450  0.8590
15594TIP3    H168197   3.250   5.816   0.713  0.4062 -1.4947 -0.0706
15594TIP3    H268198   3.170   5.765   0.595 -0.7700  1.4135 -0.5605
15595TIP3   OH268199   1.106   3.469   3.374  0.5679  0.1385  0.5340
15595TIP3    H168200   1.175   3.403   3.381 -0.9537 -1.4049  1.1577
15595TIP3    H268201   1.104   3.512   3.459  0.6953  0.1374  0.5380
15596TIP3   OH268202   0.616   2.439  12.807 -0.2024 -1.0060 -0.0333
15596TIP3    H168203   0.588   2.405  12.723  1.6518 -0.3001 -0.9571
15596TIP3    H268204   0.563   2.391  12.871 -0.6794 -2.4965 -1.5066
15597TIP3   OH268205   3.987   3.799  15.231  0.1522  0.5384  0.0527
15597TIP3    H168206   3.933   3.814  15.153 -0.0510  1.8244  0.4362
15597TIP3    H268207   3.979   3.705  15.247 -0.9893  0.5066 -0.6244
15598TIP3   OH268208   4.125   6.628  15.965 -0.2831 -0.0302 -0.3140
15598TIP3    H168209   4.062   6.615  16.036 -0.3154 -0.0431 -0.3458
15598TIP3    H268210   4.122   6.546  15.915 -0.9142  0.3206 -0.8468
15599TIP3   OH268211   3.672   6.634  16.958 -0.1835  0.0496 -0.1022
15599TIP3    H168212   3.577   6.642  16.963 -0.3328 -1.5622 -0.2485
15599TIP3    H268213   3.703   6.655  17.046 -0.6526  0.8172 -0.1183
15600TIP3   OH268214   1.761   6.006  17.114  0.6808  0.1749 -0.0624
15600TIP3    H168215   1.770   5.970  17.026 -0.9499 -0.2597 -0.0680
15600TIP3    H268216   1.670   6.034  17.119  0.7667  0.2223  1.4738
15601TIP3   OH268217   5.278   0.579   6.189 -0.3646 -0.0852  0.1731
15601TIP3    H168218   5.289   0.486   6.211 -0.0258 -0.5067 -1.7384
15601TIP3    H268219   5.183   0.592   6.188 -0.3895  0.0835  2.3962
15602TIP3   OH268220   0.131   6.202  11.043 -0.0417 -0.8342 -0.7551
15602TIP3    H168221   0.176   6.238  10.967  1.2286  1.0528  0.8229
15602TIP3    H268222   0.095   6.279  11.088  0.0673 -1.8036  1.0469
15603TIP3   OH268223   5.239   2.064   3.897 -0.0741 -0.1193 -0.0672
15603TIP3    H168224   5.263   2.087   3.808  0.4130  0.1083  0.1188
15603TIP3    H268225   5.147   2.041   3.892  0.0083 -0.3267 -0.6693
15604TIP3   OH268226   2.416   4.080   5.202  0.2716  0.4221 -0.1068
15604TIP3    H168227   2.508   4.057   5.208  0.0782 -0.8458 -1.7749
15604TIP3    H268228   2.401   4.099   5.109 -1.2585  0.1253  0.0576
15605TIP3   OH268229   4.632   6.475   5.743  0.0879 -0.5194  0.5194
15605TIP3    H168230   4.577   6.490   5.819 -0.2431  0.8019  0.0293
15605TIP3    H268231   4.573   6.486   5.668  0.3504 -2.0467  0.0610
15606TIP3   OH268232   3.032   0.311  13.875  0.2678  0.1854  0.0612
15606TIP3    H168233   3.070   0.225  13.894  0.4181  0.1768 -0.2781
15606TIP3    H268234   3.075   0.370  13.937 -1.3483 -0.3256  1.7435
15607TIP3   OH268235   2.515   3.580  11.279  0.5074 -0.4239  0.1209
15607TIP3    H168236   2.520   3.557  11.187 -2.7399  0.0532 -0.2023
15607TIP3    H268237   2.542   3.672  11.282 -3.0290  0.7014 -0.9139
15608TIP3   OH268238   2.469   4.645   2.071  0.5008 -0.7585 -0.5082
15608TIP3    H168239   2.537   4.603   2.019  2.1416  1.5352 -0.3116
15608TIP3    H268240   2.471   4.600   2.155  0.8276 -1.5909 -0.9580
15609TIP3   OH268241   0.567   5.628   0.724  0.3688  0.5008  0.4372
15609TIP3    H168242   0.628   5.598   0.791 -0.7968 -0.7732  0.9796
15609TIP3    H268243   0.618   5.686   0.668  1.7420  0.4154  1.5754
15610TIP3   OH268244   5.742   6.207  14.048 -0.2107 -0.4548 -0.0934
15610TIP3    H168245   5.745   6.117  14.081 -3.0435 -1.0467 -1.2806
15610TIP3    H268246   5.706   6.199  13.960  0.4449  1.7722 -0.5857
15611TIP3   OH268247   3.252   4.086  12.668 -0.3965 -0.3786  0.6513
15611TIP3    H168248   3.311   4.135  12.725  0.1955 -0.8517  0.4616
15611TIP3    H268249   3.223   4.012  12.722  0.8127 -1.2825  0.0925
15612TIP3   OH268250   0.123   4.745   6.407  0.1837  0.3041  0.0979
15612TIP3    H168251   0.107   4.676   6.342 -0.9694  0.1116  0.5837
15612TIP3    H268252   0.207   4.720   6.447  0.5700  0.0592 -0.8400
15613TIP3   OH268253   6.743   0.689   2.600  0.8715  0.0467 -0.0816
15613TIP3    H168254   6.824   0.640   2.583  0.4469 -1.0269  0.9644
15613TIP3    H268255   6.765   0.746   2.674  0.1735 -1.4692  1.3035
15614TIP3   OH268256   5.627   3.088   5.959 -0.3444  0.1410  0.3092
15614TIP3    H168257   5.579   3.148   6.015 -0.8504  0.8248 -0.8277
15614TIP3    H268258   5.717   3.120   5.961 -0.2344 -0.2415  1.2615
15615TIP3   OH268259   0.557   6.474   1.802  0.1751  0.0729 -0.0003
15615TIP3    H168260   0.569   6.552   1.856 -0.7703  0.0762  0.2006
15615TIP3    H268261   0.622   6.483   1.732 -0.3287  1.3253 -0.3148
15616TIP3   OH268262   1.905   3.623   1.684 -0.4522 -0.1760 -0.1127
15616TIP3    H168263   1.827   3.645   1.735  0.5071  3.1382  0.0809
15616TIP3    H268264   1.964   3.580   1.746 -1.4131 -1.0732  0.1848
15617TIP3   OH268265   3.593   0.360  16.112 -0.2590  0.0364 -0.2898
15617TIP3    H168266   3.648   0.325  16.183 -0.4121  0.8175  0.2223
15617TIP3    H268267   3.549   0.436  16.151 -0.0678  0.6979 -1.3373
15618TIP3   OH268268   1.928   6.597   1.451  0.2422 -0.1974 -0.6386
15618TIP3    H168269   1.862   6.528   1.459  0.6380 -0.5056  0.0541
15618TIP3    H268270   1.975   6.594   1.535  0.5989  0.5650 -0.8106
15619TIP3   OH268271   4.472   5.390   3.783 -0.3874  0.7049  0.1666
15619TIP3    H168272   4.546   5.365   3.838 -0.5259  0.9662  0.4709
15619TIP3    H268273   4.396   5.386   3.841 -0.5179  1.1183  0.0285
15620TIP3   OH268274   4.902   4.906  16.357 -0.0973  0.0145  0.8671
15620TIP3    H168275   4.842   4.893  16.283  1.2240  1.7140 -0.5604
15620TIP3    H268276   4.848   4.892  16.434 -1.6485 -1.2726 -0.4106
15621TIP3   OH268277   0.706   6.497   2.430  0.3131  0.0078 -0.6168
15621TIP3    H168278   0.773   6.492   2.362 -0.4207  2.8029 -1.6002
15621TIP3    H268279   0.711   6.587   2.462 -2.0587 -0.1484  0.2667
15622TIP3   OH268280   5.063   0.608  11.669  0.0481 -0.0204  0.1461
15622TIP3    H168281   5.054   0.555  11.590  1.4134 -0.6343  0.3827
15622TIP3    H268282   4.996   0.574  11.729 -1.3893  0.8406 -0.9317
15623TIP3   OH268283   2.193   0.004  15.927 -0.0649 -0.3875  0.8252
15623TIP3    H168284   2.122   0.069  15.931  0.9679  0.9870 -1.8605
15623TIP3    H268285   2.150  -0.076  15.898 -0.8407 -0.0748  1.0810
15624TIP3   OH268286   4.128   0.090  16.779 -0.0517  0.3594 -0.0499
15624TIP3    H168287   4.156   0.032  16.709 -2.3479 -1.5276  0.5448
15624TIP3    H268288   4.200   0.088  16.842  1.2883  0.7424 -1.5424
15625TIP3   OH268289   3.277   2.721  12.484 -0.1745  0.0271 -0.4010
15625TIP3    H168290   3.302   2.697  12.574 -2.7949  1.0825  0.6532
15625TIP3    H268291   3.304   2.812  12.475  0.2750 -0.1380 -0.7886
15626TIP3   OH268292   1.560   0.224   2.681  0.6910  0.1851  0.2543
15626TIP3    H168293   1.571   0.144   2.628 -0.7410  0.0442  0.1556
15626TIP3    H268294   1.551   0.192   2.770  0.2101  0.2502  0.2267
15627TIP3   OH268295   3.149   6.057  12.273 -0.2308 -0.3606 -0.6172
15627TIP3    H168296   3.094   6.075  12.349  0.5951  0.9825 -0.3232
15627TIP3    H268297   3.094   6.079  12.198 -0.2082  0.7133 -0.3336
15628TIP3   OH268298   0.793   6.667   2.054 -0.3300  0.6053 -0.0250
15628TIP3    H168299   0.698   6.678   2.053 -0.6326 -1.8019 -0.9299
15628TIP3    H268300   0.808   6.588   2.106  1.1872  1.0112  0.1891
15629TIP3   OH268301   3.482   2.272   1.133 -0.0094 -0.1835 -0.2074
15629TIP3    H168302   3.555   2.307   1.081  0.6066 -3.4268 -1.6040
15629TIP3    H268303   3.428   2.225   1.070 -2.4242  0.7232  1.1206
15630TIP3   OH268304   0.644   2.866  10.705  0.8554 -0.0367  0.3619
15630TIP3    H168305   0.641   2.774  10.679 -1.1078  0.5959 -1.7683
15630TIP3    H268306   0.711   2.905  10.649 -1.1497  0.6572 -1.6007
15631TIP3   OH268307   4.122   4.088  16.658 -0.3155  0.2404 -0.5711
15631TIP3    H168308   4.070   4.038  16.595 -0.1277  0.4684 -0.9087
15631TIP3    H268309   4.077   4.172  16.666 -0.9852 -0.2095  0.4847
15632TIP3   OH268310   6.005   0.242   0.353  0.5345  0.1589  0.3591
15632TIP3    H168311   6.000   0.233   0.448 -1.1321  1.5919  0.4412
15632TIP3    H268312   6.089   0.203   0.329  0.5521 -1.0367  2.3096
15633TIP3   OH268313   2.362   0.944  16.629 -0.0176 -0.0835 -0.6247
15633TIP3    H168314   2.395   0.858  16.654  1.1581  1.0520  1.9490
15633TIP3    H268315   2.403   0.962  16.545  0.3506 -1.7016 -0.8037
15634TIP3   OH268316   0.826   5.571   6.484  0.0936 -0.0327  0.5073
15634TIP3    H168317   0.731   5.587   6.482 -0.3203 -2.3429 -1.2125
15634TIP3    H268318   0.840   5.507   6.414  3.4897  2.9702 -1.7054
15635TIP3   OH268319   0.555   6.040  13.377  0.2338  0.2897  1.0882
15635TIP3    H168320   0.519   5.983  13.309 -0.6267  0.4615  1.3876
15635TIP3    H268321   0.494   6.114  13.380  1.5920  1.4675  0.3782
15636TIP3   OH268322   1.550   3.544  17.143 -0.7562 -0.0837 -0.4088
15636TIP3    H168323   1.548   3.471  17.082  0.8794  0.5457 -1.2468
15636TIP3    H268324   1.558   3.622  17.088  1.0503  0.4704  0.6010
15637TIP3   OH268325   6.479   5.078   1.569 -0.4535 -0.1044  0.3690
15637TIP3    H168326   6.471   4.993   1.526 -3.6204 -0.2349  1.1049
15637TIP3    H268327   6.458   5.142   1.501 -0.7994 -0.0673  0.5078
15638TIP3   OH268328   1.285   0.810   3.790  0.4884 -0.6584 -0.6150
15638TIP3    H168329   1.202   0.856   3.808  0.9548  0.1652 -0.5467
15638TIP3    H268330   1.335   0.820   3.871  1.5121  0.6990 -1.4137
15639TIP3   OH268331   5.534   1.444   4.660 -0.1732  0.2873 -0.6404
15639TIP3    H168332   5.540   1.538   4.673  1.2195  0.0664  0.4230
15639TIP3    H268333   5.561   1.406   4.744 -0.6540 -1.0605 -1.0725
15640TIP3   OH268334   5.349   6.184  13.622 -0.4970  0.1715 -0.6005
15640TIP3    H168335   5.401   6.220  13.550  0.0124  2.6061  0.9359
15640TIP3    H268336   5.402   6.199  13.700 -1.7298 -1.0281  0.4929
15641TIP3   OH268337   1.844   3.869  15.671  0.0137  0.0024  0.4598
15641TIP3    H168338   1.806   3.955  15.658 -2.5979 -1.4188 -1.7111
15641TIP3    H268339   1.773   3.816  15.708  0.9006 -1.8171 -0.3621
15642TIP3   OH268340   5.155   2.326   3.444 -0.4930  0.2006 -0.4626
15642TIP3    H168341   5.244   2.322   3.477 -0.7971  0.9760  0.4666
15642TIP3    H268342   5.105   2.367   3.514 -1.4676  0.3044 -1.2081
15643TIP3   OH268343   4.467   5.450   2.997 -0.4018  0.5481  0.0276
15643TIP3    H168344   4.425   5.465   3.081 -2.2253  2.1738 -1.1262
15643TIP3    H268345   4.410   5.386   2.953  1.4264 -1.5771  0.6239
15644TIP3   OH268346   3.465   3.286  13.005  0.1614 -0.1327  0.4304
15644TIP3    H168347   3.504   3.364  13.045 -0.2410  1.2442 -1.7576
15644TIP3    H268348   3.537   3.223  13.000  1.0189  0.8356  0.3659
15645TIP3   OH268349   5.898   3.765   5.268 -0.0125  0.1599  0.0487
15645TIP3    H168350   5.918   3.859   5.263  0.2941  0.2424  2.1166
15645TIP3    H268351   5.804   3.760   5.255 -0.0551  0.7759  0.1099
15646TIP3   OH268352   2.112   4.589  11.312 -0.5208 -0.5241  0.5607
15646TIP3    H168353   2.191   4.556  11.355  2.0022 -0.6586 -3.9680
15646TIP3    H268354   2.122   4.684  11.314  0.1112 -0.5562 -0.5526
15647TIP3   OH268355   2.319   1.821  12.607 -0.0979  0.9357  0.2795
15647TIP3    H168356   2.241   1.795  12.558 -0.7456 -0.6168  2.0619
15647TIP3    H268357   2.296   1.804  12.699  2.3840  0.2829  0.8109
15648TIP3   OH268358   5.296   0.677   3.143 -0.3821 -0.5691 -0.3837
15648TIP3    H168359   5.259   0.605   3.093 -2.2879 -0.1202  0.3398
15648TIP3    H268360   5.227   0.743   3.144  0.3789  0.2251  1.1547
15649TIP3   OH268361   5.107   1.412   2.633  0.2810  0.1899 -0.0736
15649TIP3    H168362   5.039   1.345   2.645 -0.8764  1.6546  1.8949
15649TIP3    H268363   5.066   1.477   2.576  1.0059 -0.2486 -1.0917
15650TIP3   OH268364   5.907   1.238  13.218 -0.6308 -0.2699 -0.7470
15650TIP3    H168365   5.844   1.294  13.264 -0.2698 -0.6583  0.2329
15650TIP3    H268366   5.898   1.262  13.126 -0.0137  1.8908 -0.2807
15651TIP3   OH268367   6.733   3.326   3.835 -0.5762 -0.0802 -0.4841
15651TIP3    H168368   6.663   3.279   3.881  0.3760  0.2831  1.3769
15651TIP3    H268369   6.769   3.261   3.774 -0.2245 -1.3652  1.0498
15652TIP3   OH268370   0.477   5.434   2.582 -0.0230 -0.2614  0.1512
15652TIP3    H168371   0.562   5.447   2.624  0.0486 -0.9966  0.2400
15652TIP3    H268372   0.418   5.493   2.628  0.8108  1.6238 -1.0947
15653TIP3   OH268373   0.471   2.849   5.527 -0.0337 -0.1944  0.2004
15653TIP3    H168374   0.500   2.830   5.616  1.1160  0.3140 -0.0447
15653TIP3    H268375   0.403   2.915   5.536 -0.5101 -0.7555  0.7460
15654TIP3   OH268376   1.208   1.473  14.921  0.0975 -0.8551  0.3457
15654TIP3    H168377   1.125   1.428  14.935 -0.4008  0.0753  0.4888
15654TIP3    H268378   1.239   1.442  14.836 -1.0097 -0.2932 -0.2741
15655TIP3   OH268379   5.834   4.082   4.680  0.3605  0.0135 -0.5423
15655TIP3    H168380   5.913   4.080   4.735 -0.5605  1.8907  0.9276
15655TIP3    H268381   5.859   4.136   4.605  1.0705 -1.0671 -1.1033
15656TIP3   OH268382   5.392   5.162   4.004  0.3856 -0.7393  0.2868
15656TIP3    H168383   5.443   5.242   4.000 -0.3875 -0.3065 -1.2777
15656TIP3    H268384   5.453   5.096   4.035  1.5380  0.0559 -0.2557
15657TIP3   OH268385   3.204   1.125  11.197  0.2228  0.0242  0.0867
15657TIP3    H168386   3.136   1.147  11.134  0.1973 -0.8854 -0.2140
15657TIP3    H268387   3.161   1.068  11.261 -0.1597  2.2096  1.8466
15658TIP3   OH268388   6.501   6.570  14.266 -0.0205  0.3990 -0.5083
15658TIP3    H168389   6.513   6.626  14.343 -0.9582  2.3151 -1.7084
15658TIP3    H268390   6.500   6.632  14.192 -0.3669 -1.2859 -1.9417
15659TIP3   OH268391   5.005   4.144   3.680  0.3291 -0.6371  0.5595
15659TIP3    H168392   5.084   4.115   3.725  0.0948  0.0321  1.4205
15659TIP3    H268393   5.027   4.138   3.587  1.4774 -0.2400  0.7891
15660TIP3   OH268394   1.298   3.088  12.018 -0.3961 -0.2367  0.2073
15660TIP3    H168395   1.332   3.175  11.996 -0.7699 -0.2730 -0.5571
15660TIP3    H268396   1.262   3.097  12.106  0.0902  0.2329  0.3586
15661TIP3   OH268397   1.285   3.418   0.492 -0.1802  0.4273 -0.8178
15661TIP3    H168398   1.207   3.369   0.466 -1.3410  0.8239  1.8358
15661TIP3    H268399   1.346   3.351   0.522  0.3286  0.1688 -2.3631
15662TIP3   OH268400   1.111   6.787   1.798 -0.0444 -0.0465  0.1370
15662TIP3    H168401   1.202   6.806   1.818 -0.7406  1.3444  2.1422
15662TIP3    H268402   1.085   6.722   1.864 -0.9007  0.6633  0.5096
15663TIP3   OH268403   0.881   0.335   2.582  0.2114 -0.2559 -0.8879
15663TIP3    H168404   0.915   0.282   2.510 -2.4878 -1.5088 -1.3171
15663TIP3    H268405   0.806   0.382   2.544  0.0115  0.6316  0.5752
15664TIP3   OH268406   0.135   2.563  16.247 -0.3244  0.3956  0.1883
15664TIP3    H168407   0.105   2.642  16.291 -0.1719  1.4147 -1.5064
15664TIP3    H268408   0.230   2.565  16.256 -0.3170  0.4282  0.1014
15665TIP3   OH268409   1.031   1.961   3.697 -0.2753 -0.2186  0.1417
15665TIP3    H168410   1.030   1.890   3.762  1.2239 -0.6979 -0.3524
15665TIP3    H268411   1.034   2.041   3.750 -0.9801 -0.5438  0.6886
15666TIP3   OH268412   5.031   2.131  11.217 -0.2376  0.0936  0.2261
15666TIP3    H168413   5.047   2.057  11.158  0.1362 -0.9798  1.6380
15666TIP3    H268414   4.955   2.105  11.268 -0.2444  0.7822  0.5652
15667TIP3   OH268415   0.173   3.591  13.557  0.7019  0.2021 -0.2051
15667TIP3    H168416   0.085   3.625  13.545  0.9611  0.6361 -0.9677
15667TIP3    H268417   0.188   3.593  13.651  0.4469  1.5230 -0.1899
15668TIP3   OH268418   2.198   0.275  14.977  0.2614 -0.3888 -0.4046
15668TIP3    H168419   2.267   0.313  14.922  0.1682 -0.9673 -0.9200
15668TIP3    H268420   2.234   0.193  15.008  0.5882  0.2776  0.9926
15669TIP3   OH268421   0.683   5.539  16.889 -0.5960  0.3166 -0.3165
15669TIP3    H168422   0.778   5.528  16.887 -0.8912 -2.4268 -1.7484
15669TIP3    H268423   0.665   5.612  16.829  0.6500  1.3169  0.5220
15670TIP3   OH268424   5.363   1.569   1.174 -0.5548  0.2075  0.0168
15670TIP3    H168425   5.331   1.634   1.112 -1.2281 -0.0661  0.0807
15670TIP3    H268426   5.291   1.556   1.236  0.3911  1.0582  1.3356
15671TIP3   OH268427   0.435   5.305  13.426  0.1032  0.6593  0.4150
15671TIP3    H168428   0.404   5.215  13.413  0.3775  0.7990 -1.3592
15671TIP3    H268429   0.378   5.358  13.370  1.3380  1.3154 -0.2504
15672TIP3   OH268430   4.976   3.083  11.541 -0.0086 -0.3622 -0.0607
15672TIP3    H168431   4.946   3.140  11.471 -0.8632 -1.3751 -0.5246
15672TIP3    H268432   4.987   2.998  11.500  0.2790 -0.7763  0.8579
15673TIP3   OH268433   6.577   3.993   5.690  0.3367  0.2226 -0.0448
15673TIP3    H168434   6.487   3.995   5.660  0.2775  0.1121  0.1263
15673TIP3    H268435   6.575   4.031   5.778 -0.2147 -3.4502  1.6385
15674TIP3   OH268436   2.164   3.371  16.691 -0.3376  0.1258  0.0801
15674TIP3    H168437   2.156   3.434  16.762  0.3567  0.3578 -0.0419
15674TIP3    H268438   2.116   3.411  16.618 -1.2179 -0.2050  0.4797
15675TIP3   OH268439   1.334   5.846   3.002  0.0967 -0.0610 -0.7158
15675TIP3    H168440   1.263   5.909   3.009 -0.8622 -1.2464  0.4051
15675TIP3    H268441   1.394   5.884   2.937 -0.7824  1.6729 -0.5312
15676TIP3   OH268442   5.545   4.588  16.422  0.5277  0.1158  0.1777
15676TIP3    H168443   5.505   4.568  16.506  0.1804 -2.4073 -0.5559
15676TIP3    H268444   5.625   4.535  16.420  0.3982 -0.0418 -1.1872
15677TIP3   OH268445   0.735   3.340   0.262  0.4968  0.7845  0.2202
15677TIP3    H168446   0.781   3.271   0.215 -0.5683 -0.9230  1.6481
15677TIP3    H268447   0.746   3.318   0.354 -0.3412  2.2171  0.6802
15678TIP3   OH268448   1.655   5.593   2.165 -0.0568  0.0957  0.1683
15678TIP3    H168449   1.714   5.647   2.114 -2.3192  1.4471 -1.0843
15678TIP3    H268450   1.593   5.558   2.101  0.1251 -2.3647  1.2585
15679TIP3   OH268451   0.037   5.238  12.817 -0.4085 -0.1333 -0.1332
15679TIP3    H168452   0.019   5.162  12.871 -1.4834 -0.1197 -0.4643
15679TIP3    H268453   0.127   5.262  12.839 -0.3905 -0.9110  0.6755
15680TIP3   OH268454   5.105   1.866   0.376  0.5622  0.0141  0.0026
15680TIP3    H168455   5.086   1.955   0.407 -1.1361 -0.3248 -0.0162
15680TIP3    H268456   5.068   1.809   0.443 -1.4640 -0.7041 -1.6906
15681TIP3   OH268457   2.612   1.639  15.978 -0.0730 -0.6425  0.0638
15681TIP3    H168458   2.659   1.719  15.955 -0.0434 -1.0724 -1.4131
15681TIP3    H268459   2.520   1.659  15.962 -0.0411 -0.9870 -0.5435
15682TIP3   OH268460   2.224   5.243  15.227  0.4512  0.2634  0.1144
15682TIP3    H168461   2.188   5.161  15.261  2.0318 -0.2588  0.5606
15682TIP3    H268462   2.226   5.231  15.132  0.6491 -0.2147  0.1777
15683TIP3   OH268463   6.258   1.878  11.560 -0.1246 -0.2861  0.6860
15683TIP3    H168464   6.227   1.853  11.646  1.6349  1.7180  1.9722
15683TIP3    H268465   6.352   1.859  11.562 -0.2062 -0.9717 -1.0802
15684TIP3   OH268466   2.115   6.696   1.957  0.0739 -0.3469 -0.3388
15684TIP3    H168467   2.141   6.647   2.035  0.4063 -0.2499 -0.3892
15684TIP3    H268468   2.028   6.730   1.977  0.2732 -0.0952  0.0903
15685TIP3   OH268469   2.728   6.658   3.132  0.5016  0.1652 -0.6185
15685TIP3    H168470   2.698   6.608   3.208  0.0296  1.8755  0.3262
15685TIP3    H268471   2.815   6.623   3.113  0.7530 -0.0475  0.8922
15686TIP3   OH268472   2.212   4.734  16.512  0.4743 -0.3575  0.5936
15686TIP3    H168473   2.289   4.755  16.565 -0.3847  3.6124  0.3866
15686TIP3    H268474   2.146   4.708  16.576  0.3642  1.4883  1.2540
15687TIP3   OH268475   3.694   1.303   0.976  0.5106 -0.1133  1.0792
15687TIP3    H168476   3.784   1.335   0.965  0.2596  0.4558  0.6628
15687TIP3    H268477   3.659   1.299   0.887  0.1276 -0.3422  1.2402
15688TIP3   OH268478   4.837   3.627  12.392 -0.4392 -0.2211 -0.3153
15688TIP3    H168479   4.778   3.602  12.321  0.1834 -3.4458  0.2364
15688TIP3    H268480   4.891   3.696  12.355  0.5434 -2.5132 -3.3795
15689TIP3   OH268481   0.617   2.918   4.366  0.4225  0.4357 -0.0173
15689TIP3    H168482   0.561   2.896   4.440  1.4497 -1.0017  0.3482
15689TIP3    H268483   0.628   3.013   4.372  1.3930  0.2079  2.3199
15690TIP3   OH268484   0.525   0.173  11.587  0.5607  0.5613 -0.2964
15690TIP3    H168485   0.543   0.229  11.511 -0.3394  1.6752  0.2837
15690TIP3    H268486   0.571   0.091  11.569 -1.9846 -0.2742 -3.4178
15691TIP3   OH268487   4.801   5.400   2.424 -0.4490  0.5008  0.3231
15691TIP3    H168488   4.856   5.322   2.410  0.1200  1.1879 -1.5170
15691TIP3    H268489   4.849   5.470   2.381 -1.9768  1.4550  0.1375
15692TIP3   OH268490   4.537   2.205   4.654 -0.0681  0.5457 -0.1575
15692TIP3    H168491   4.524   2.293   4.690  0.3168 -0.1626  1.7474
15692TIP3    H268492   4.614   2.214   4.597 -0.4013  1.5721 -0.4585
15693TIP3   OH268493   3.785   3.053   3.641  0.2969 -0.2514 -0.4472
15693TIP3    H168494   3.788   3.088   3.552 -0.1358  0.0355 -0.3500
15693TIP3    H268495   3.738   2.970   3.632  2.3236 -1.3755 -0.8602
15694TIP3   OH268496   6.594   1.202  12.576  0.1785 -0.9389 -0.7157
15694TIP3    H168497   6.531   1.237  12.512 -0.1245 -2.0903 -1.0552
15694TIP3    H268498   6.629   1.279  12.620 -1.9417 -0.3303 -0.0816
15695TIP3   OH268499   0.312   2.471   4.497 -0.0684 -0.6167  0.2915
15695TIP3    H168500   0.271   2.384   4.500 -0.4449 -0.4898 -0.7876
15695TIP3    H268501   0.378   2.464   4.429 -0.7504  0.2086 -0.4721
15696TIP3   OH268502   3.080   4.963  12.962  0.2661  0.5905  0.1252
15696TIP3    H168503   3.116   4.917  13.038  0.1261  0.1099 -0.0987
15696TIP3    H268504   3.016   4.902  12.925  0.7262  0.5971 -0.6956
15697TIP3   OH268505   2.395   3.351  12.246 -0.6877 -0.0795 -0.0314
15697TIP3    H168506   2.391   3.299  12.166 -1.8144 -0.2986  0.1539
15697TIP3    H268507   2.405   3.286  12.317  0.5476  0.1263  0.0021
15698TIP3   OH268508   5.599   1.144  14.623 -0.0794 -0.4903 -0.4669
15698TIP3    H168509   5.635   1.182  14.544  0.7211 -2.1711 -0.9399
15698TIP3    H268510   5.641   1.058  14.630 -0.3891 -0.5025  1.5951
15699TIP3   OH268511   1.377   4.211  15.033 -0.4625  0.1556  0.1595
15699TIP3    H168512   1.393   4.305  15.025 -1.1104  0.1055 -2.0379
15699TIP3    H268513   1.325   4.189  14.956 -0.7780 -1.9124  0.9344
15700TIP3   OH268514   6.322   2.618  15.025 -0.1117  0.0928 -0.2588
15700TIP3    H168515   6.318   2.544  14.963  0.7705 -0.0675 -0.1427
15700TIP3    H268516   6.235   2.657  15.022 -1.1026 -1.9494  0.8877
15701TIP3   OH268517   1.554   0.721  11.656  0.2833  0.4156 -0.2656
15701TIP3    H168518   1.627   0.663  11.636 -0.3442 -0.7380  0.6987
15701TIP3    H268519   1.558   0.733  11.751 -1.3826 -0.5057 -0.0550
15702TIP3   OH268520   3.140   3.890  12.405 -0.3287 -0.2007 -0.0872
15702TIP3    H168521   3.214   3.872  12.463 -0.2092 -0.8139 -0.4272
15702TIP3    H268522   3.073   3.927  12.461 -0.6716 -1.9214  0.6717
15703TIP3   OH268523   3.058   0.801  14.950 -0.6163  0.4624  0.1551
15703TIP3    H168524   2.969   0.766  14.946 -1.2480  1.8346  1.4592
15703TIP3    H268525   3.047   0.895  14.939  0.5978  0.7143  0.9622
15704TIP3   OH268526   2.443   1.873   1.322  0.2780  0.7082  0.3238
15704TIP3    H168527   2.511   1.826   1.370 -0.4930 -0.0459  0.7147
15704TIP3    H268528   2.450   1.963   1.351 -0.8672  0.0807  2.7327
15705TIP3   OH268529   4.175   5.191  15.741  0.1977  0.5091 -0.0170
15705TIP3    H168530   4.090   5.168  15.702 -0.5725  1.8591  0.8135
15705TIP3    H268531   4.236   5.126  15.706 -1.2925 -0.8264 -0.1959
15706TIP3   OH268532   6.625   3.424  12.245  0.1319  0.4274  0.0696
15706TIP3    H168533   6.580   3.473  12.176  2.1475  0.0459 -1.5631
15706TIP3    H268534   6.664   3.490  12.301 -2.2021  0.7617  1.3794
15707TIP3   OH268535   1.781   0.718   4.883 -0.0052  0.2479 -0.5776
15707TIP3    H168536   1.848   0.782   4.861  1.0112 -0.0772  1.4461
15707TIP3    H268537   1.699   0.767   4.884  0.9980  2.0094  2.8622
15708TIP3   OH268538   3.363   4.450   3.252  0.3756  0.9878  0.2040
15708TIP3    H168539   3.377   4.512   3.180  0.6917  0.2401 -0.3841
15708TIP3    H268540   3.435   4.467   3.313 -0.2111  2.0122  0.6347
15709TIP3   OH268541   1.853   1.508   5.564 -0.1954  0.0129 -0.4258
15709TIP3    H168542   1.860   1.541   5.474  0.7344 -1.9918 -1.1212
15709TIP3    H268543   1.940   1.472   5.582 -1.2303 -2.2669  0.1964
15710TIP3   OH268544   1.817   5.927  11.968  0.0512 -0.8615  0.0841
15710TIP3    H168545   1.818   5.989  11.895 -1.5888 -0.6867  0.1869
15710TIP3    H268546   1.909   5.904  11.981  0.4779 -0.0134 -1.2824
15711TIP3   OH268547   2.013   2.972  13.671 -0.0976 -0.0495 -0.3523
15711TIP3    H168548   1.938   3.015  13.630  1.3658  0.3659 -2.6504
15711TIP3    H268549   1.997   2.878  13.658 -1.1050 -0.0598  0.8100
15712TIP3   OH268550   2.324   3.955   1.943  0.1622  0.0708 -0.0485
15712TIP3    H168551   2.417   3.976   1.931  1.0548 -3.2892  0.7155
15712TIP3    H268552   2.315   3.865   1.912 -2.6828  0.0746  0.6513
15713TIP3   OH268553   0.461   4.412   4.954  0.0586 -0.1459  0.2972
15713TIP3    H168554   0.482   4.505   4.969 -0.2663  0.2437 -1.5264
15713TIP3    H268555   0.490   4.396   4.864 -3.1184 -0.8795 -0.6350
15714TIP3   OH268556   5.340   1.204  11.687  0.7025 -0.2235 -0.6278
15714TIP3    H168557   5.407   1.262  11.650 -0.7393  2.3640  0.7005
15714TIP3    H268558   5.264   1.219  11.631 -0.0306  0.0700  0.4439
15715TIP3   OH268559   6.097   4.129   4.798  0.4545 -0.1863 -0.0097
15715TIP3    H168560   6.090   4.093   4.886  0.4158 -0.6462 -0.2003
15715TIP3    H268561   6.108   4.224   4.811 -0.3963 -0.1437  0.4620
15716TIP3   OH268562   0.694   5.751  12.957  0.2162  0.1192  0.2800
15716TIP3    H168563   0.712   5.658  12.941  2.1587  0.3518  0.8915
15716TIP3    H268564   0.773   5.796  12.926 -0.2672  1.4620  0.9678
15717TIP3   OH268565   3.307   5.167  13.157 -0.0869 -0.3023  0.5252
15717TIP3    H168566   3.339   5.114  13.084 -1.2592  2.1204 -1.8465
15717TIP3    H268567   3.245   5.110  13.202 -0.4510 -1.3624 -1.2467
15718TIP3   OH268568   3.519   5.397   3.247  0.5492  0.4141 -0.3629
15718TIP3    H168569   3.590   5.459   3.263  0.7634  0.3553 -1.0645
15718TIP3    H268570   3.450   5.449   3.207 -0.0834  0.6106  0.9541
15719TIP3   OH268571   2.821   2.968  12.449  0.2983  0.0453  0.6202
15719TIP3    H168572   2.870   2.994  12.371 -0.4118  1.6828  0.6830
15719TIP3    H268573   2.731   2.955  12.418  0.5621 -1.9756  0.6800
15720TIP3   OH268574   5.445   3.505  12.666  0.3763 -0.0453 -0.4734
15720TIP3    H168575   5.372   3.526  12.725 -0.0182 -1.2278 -0.5241
15720TIP3    H268576   5.506   3.578  12.677 -1.0244  1.2254 -0.7785
15721TIP3   OH268577   3.356   5.454  15.330  0.3961  0.1782 -0.2593
15721TIP3    H168578   3.272   5.476  15.371  0.4531  0.2882 -0.2009
15721TIP3    H268579   3.421   5.506  15.378  0.3063  1.3063 -1.3364
15722TIP3   OH268580   4.416   3.702   2.774 -0.0877  0.7295 -0.1884
15722TIP3    H168581   4.486   3.746   2.726  0.4267 -1.1113 -1.1589
15722TIP3    H268582   4.338   3.714   2.721 -0.2265  1.6162  0.2156
15723TIP3   OH268583   1.628   3.943  14.773 -0.0044  0.1904 -0.6390
15723TIP3    H168584   1.595   3.877  14.713  0.3663  0.1558 -0.8087
15723TIP3    H268585   1.646   3.895  14.854  0.0373  0.1298 -0.6835
15724TIP3   OH268586   4.833   3.436  14.396 -0.0648 -0.6662 -0.0415
15724TIP3    H168587   4.902   3.374  14.419  1.5782  0.6472 -1.3078
15724TIP3    H268588   4.835   3.440  14.301 -1.4710 -0.1327 -0.0557
15725TIP3   OH268589   1.193   5.198   2.279  0.1640  1.0972 -0.0961
15725TIP3    H168590   1.230   5.125   2.230 -1.5387 -0.5570  1.0022
15725TIP3    H268591   1.116   5.225   2.229  2.2621  4.0027 -1.9480
15726TIP3   OH268592   5.885   5.070   3.732  0.7325 -0.3386  0.0333
15726TIP3    H168593   5.836   5.111   3.661 -2.0601  0.0765  2.1552
15726TIP3    H268594   5.956   5.132   3.751  0.3293  0.4654 -1.0451
15727TIP3   OH268595   3.137   1.226  13.654  0.3180  0.3647  0.8590
15727TIP3    H168596   3.196   1.280  13.601  0.3632 -0.2391  0.2800
15727TIP3    H268597   3.085   1.288  13.704  1.8384  0.9064  1.8072
15728TIP3   OH268598   6.721   6.765  14.464  0.8720  0.1531 -0.3015
15728TIP3    H168599   6.708   6.712  14.542  1.0536  0.2893 -0.1806
15728TIP3    H268600   6.805   6.808  14.477  0.9324  0.1303 -0.5990
15729TIP3   OH268601   5.032   2.441   1.801 -0.6029 -0.2779  0.1894
15729TIP3    H168602   4.956   2.399   1.842 -0.0096  0.6559  2.3368
15729TIP3    H268603   5.085   2.472   1.875  2.0551 -1.2317 -1.2544
15730TIP3   OH268604   4.458   2.983  16.429 -0.3786 -0.5941 -0.1115
15730TIP3    H168605   4.531   3.037  16.459 -2.3493  2.2187 -0.1807
15730TIP3    H268606   4.499   2.907  16.389  2.5364  1.1197 -0.5197
15731TIP3   OH268607   2.320   5.155   5.983  0.4961 -0.2383  0.1206
15731TIP3    H168608   2.367   5.097   5.923  1.9318  0.4310  0.5928
15731TIP3    H268609   2.365   5.239   5.975  1.5753 -0.4785  3.1493
15732TIP3   OH268610   2.382   2.547  16.147 -0.1133  0.6643  0.2293
15732TIP3    H168611   2.469   2.546  16.186 -0.5825 -1.6117  1.2821
15732TIP3    H268612   2.397   2.565  16.054  1.5757 -1.0936  0.1538
15733TIP3   OH268613   6.679   2.703  15.884  0.2939 -0.0302  0.2330
15733TIP3    H168614   6.744   2.684  15.816  0.1207 -1.4782  0.4437
15733TIP3    H268615   6.604   2.649  15.860  0.0679 -0.2019  1.3330
15734TIP3   OH268616   0.644   2.213   2.349 -0.2958  0.0595 -0.1401
15734TIP3    H168617   0.620   2.168   2.268 -2.9753  1.2788 -0.0751
15734TIP3    H268618   0.570   2.270   2.368  0.3259 -0.0983  3.1156
15735TIP3   OH268619   3.284   6.234   0.736  0.0085  0.1929 -0.5593
15735TIP3    H168620   3.265   6.208   0.826  0.8110  1.1427 -0.0996
15735TIP3    H268621   3.200   6.225   0.690 -0.5102  0.1283  0.3836
15736TIP3   OH268622   0.236   5.748   0.684 -0.1335  0.2647  0.2591
15736TIP3    H168623   0.240   5.843   0.688  0.7534  0.2781 -0.8038
15736TIP3    H268624   0.256   5.720   0.774 -0.1734  1.0688  0.5237
15737TIP3   OH268625   3.683   2.237   5.105 -0.7744  0.1970 -0.5143
15737TIP3    H168626   3.751   2.189   5.151 -2.0721  0.1195  1.3966
15737TIP3    H268627   3.730   2.297   5.047  1.0115  1.6497  2.2954
15738TIP3   OH268628   0.257   5.090  13.413 -0.4520  0.0996 -0.4482
15738TIP3    H168629   0.223   5.012  13.369  0.1035 -0.6288  0.4013
15738TIP3    H268630   0.179   5.139  13.439 -0.8886 -1.5517  1.4678
15739TIP3   OH268631   5.431   2.695   0.673 -0.2687  0.0875  0.4298
15739TIP3    H168632   5.401   2.612   0.636  0.4106 -0.5177  1.2165
15739TIP3    H268633   5.372   2.761   0.636  0.2863 -0.5139 -1.5936
15740TIP3   OH268634   4.834   2.311  16.666 -0.1083  0.1532 -0.0787
15740TIP3    H168635   4.788   2.301  16.582  0.8740 -0.7776 -0.5214
15740TIP3    H268636   4.905   2.372  16.647  0.7182 -0.8265 -0.1842
15741TIP3   OH268637   0.476   3.435   4.763 -0.3192  0.1029 -0.1498
15741TIP3    H168638   0.413   3.408   4.696 -0.7130  1.2293 -0.2378
15741TIP3    H268639   0.493   3.355   4.813 -1.5045 -0.3003 -0.3805
15742TIP3   OH268640   0.583   0.706  11.156  0.7049  0.4117 -0.1131
15742TIP3    H168641   0.647   0.676  11.092  2.0824 -0.9538  1.8480
15742TIP3    H268642   0.635   0.730  11.233 -1.1259 -0.9203  1.6033
15743TIP3   OH268643   1.102   3.799  15.785  0.1305  0.2915  0.0415
15743TIP3    H168644   1.047   3.871  15.817 -2.5183  0.0012 -3.5026
15743TIP3    H268645   1.040   3.727  15.771  2.2601 -1.6948  0.6098
15744TIP3   OH268646   4.827   2.728  12.679  0.1853 -0.1800  0.2486
15744TIP3    H168647   4.767   2.797  12.707  0.5432 -0.1767  1.0134
15744TIP3    H268648   4.815   2.722  12.584  0.2474  1.0275  0.1626
15745TIP3   OH268649   4.996   3.779   3.517  0.0144 -0.0408  0.0169
15745TIP3    H168650   4.988   3.841   3.444 -0.3125 -2.3083 -1.9530
15745TIP3    H268651   5.090   3.770   3.530  0.0903 -0.1019 -0.5577
15746TIP3   OH268652   0.612   2.950   3.508 -0.2971 -0.3930  0.1642
15746TIP3    H168653   0.707   2.939   3.516 -0.2795 -1.0373 -0.9243
15746TIP3    H268654   0.582   2.962   3.598  0.8571  0.1632  0.4872
15747TIP3   OH268655   4.183   3.889   4.581  0.3019  0.4087 -0.4539
15747TIP3    H168656   4.121   3.819   4.604 -0.2685  0.6058 -1.3422
15747TIP3    H268657   4.249   3.846   4.527 -0.1666  0.5945 -1.1796
15748TIP3   OH268658   0.192   1.561   1.939  0.4634  0.4646  0.1557
15748TIP3    H168659   0.214   1.523   2.024 -1.0825 -0.6258  0.0848
15748TIP3    H268660   0.233   1.503   1.875  1.3648  1.1103  0.1415
15749TIP3   OH268661   1.666   2.662   1.781  0.5396 -0.2914 -0.1855
15749TIP3    H168662   1.611   2.740   1.780  1.0581  0.0943  0.3718
15749TIP3    H268663   1.694   2.654   1.873 -0.1463 -1.5858 -0.0773
15750TIP3   OH268664   0.888   3.447  12.597  0.2235  0.2191  0.5294
15750TIP3    H168665   0.861   3.452  12.505  0.9235 -4.3593 -0.0454
15750TIP3    H268666   0.817   3.491  12.645 -1.4427  0.3950 -1.9971
15751TIP3   OH268667   4.394   5.335  16.078 -0.4800 -0.7111  0.2372
15751TIP3    H168668   4.320   5.324  16.018 -0.3638 -0.7124  0.0941
15751TIP3    H268669   4.452   5.396  16.032  0.7013 -2.4725 -0.6636
15752TIP3   OH268670   4.116   2.625  14.612 -0.5372 -0.9485  0.8385
15752TIP3    H168671   4.165   2.703  14.639 -0.1672 -1.5581  1.9670
15752TIP3    H268672   4.104   2.635  14.518 -1.4154  1.0010  1.1351
15753TIP3   OH268673   2.493   1.756   6.030  0.1332 -0.1777 -0.1784
15753TIP3    H168674   2.428   1.812   6.071 -0.3709 -1.3955  0.7043
15753TIP3    H268675   2.546   1.816   5.977  0.1518  1.2463  1.4159
15754TIP3   OH268676   3.255   0.742  14.112  0.0215  0.1134  0.1818
15754TIP3    H168677   3.194   0.686  14.160 -0.1776 -0.7316 -1.0280
15754TIP3    H268678   3.217   0.750  14.025 -0.4552  2.9843  0.6208
15755TIP3   OH268679   2.601   0.526  13.633  0.0462 -0.5747 -0.3738
15755TIP3    H168680   2.532   0.555  13.692 -1.0493  0.4963 -2.1653
15755TIP3    H268681   2.572   0.441  13.601  0.2888 -0.8189  0.0519
15756TIP3   OH268682   5.515   5.446  12.076  0.1616  0.2690  0.4215
15756TIP3    H168683   5.556   5.448  12.163 -0.2399  1.3069  0.5977
15756TIP3    H268684   5.448   5.515  12.080  0.1281  0.3081 -0.7141
15757TIP3   OH268685   1.103   4.569   2.392 -0.3040 -0.4042 -0.0624
15757TIP3    H168686   1.111   4.512   2.316  0.2197 -0.4705  0.0377
15757TIP3    H268687   1.034   4.530   2.445 -0.8384 -0.2248 -0.6198
15758TIP3   OH268688   6.751   2.428  13.006 -0.0773  0.1413  0.3616
15758TIP3    H168689   6.817   2.363  12.983 -0.3488  0.3630 -1.0672
15758TIP3    H268690   6.766   2.445  13.099  2.0173  0.3291  0.0251
15759TIP3   OH268691   3.258   4.506  11.850 -0.5814  0.3502 -0.0577
15759TIP3    H168692   3.202   4.435  11.883 -1.8462  1.3133 -0.1048
15759TIP3    H268693   3.199   4.563  11.801  0.5147  1.1963 -0.4231
15760TIP3   OH268694   2.436   4.898   1.353 -0.0749 -0.1356  0.0350
15760TIP3    H168695   2.502   4.962   1.325 -1.1923  0.3458 -1.5413
15760TIP3    H268696   2.486   4.819   1.374  1.1428  0.6934  0.2733
15761TIP3   OH268697   3.203   2.975  11.456 -0.4275  0.0886  0.1393
15761TIP3    H168698   3.109   2.983  11.442 -0.6799 -0.7421  1.3058
15761TIP3    H268699   3.215   2.999  11.548  0.5418  0.5048 -0.0924
15762TIP3   OH268700   4.106   6.101  12.125  0.1208 -0.2515  0.0160
15762TIP3    H168701   4.026   6.145  12.152 -0.2785 -1.9507  1.7311
15762TIP3    H268702   4.150   6.078  12.207  0.5205 -2.5996 -0.8079
15763TIP3   OH268703   0.216   5.875   6.467 -0.1193  0.2614 -0.5332
15763TIP3    H168704   0.220   5.936   6.541  0.0533 -1.4147  0.8839
15763TIP3    H268705   0.125   5.844   6.467 -0.4459  1.1763 -1.8118
15764TIP3   OH268706   5.586   0.050   6.382 -0.4337 -0.1617  0.3406
15764TIP3    H168707   5.544   0.133   6.405  0.5486  0.2786  0.6167
15764TIP3    H268708   5.679   0.066   6.397 -0.0171 -0.6800 -1.5287
15765TIP3   OH268709   0.705   2.762   6.662  0.2365  0.1633  0.1570
15765TIP3    H168710   0.735   2.726   6.578  1.3700 -0.9031  1.0037
15765TIP3    H268711   0.610   2.763   6.655  0.3453  0.7910 -1.4380
15766TIP3   OH268712   0.961   0.787   4.305  0.8007 -0.2170  0.0387
15766TIP3    H168713   0.968   0.735   4.386  0.6593 -0.0494  0.1598
15766TIP3    H268714   0.920   0.869   4.333 -0.8754 -0.8352 -0.4971
15767TIP3   OH268715   6.544   6.781   5.568  0.1975  0.3424  0.3196
15767TIP3    H168716   6.477   6.848   5.580  0.6887  1.4123 -2.5977
15767TIP3    H268717   6.626   6.827   5.584  0.4537  0.0619 -0.1906
15768TIP3   OH268718   0.437   1.380   4.893  1.0182 -0.3055 -0.2329
15768TIP3    H168719   0.466   1.300   4.936  2.7298 -0.9227 -2.4439
15768TIP3    H268720   0.515   1.436   4.891  0.1404  0.9650  0.2381
15769TIP3   OH268721   1.221   0.091   5.842  0.1883 -0.4061 -0.1999
15769TIP3    H168722   1.140   0.130   5.874  1.2124  1.2559  0.4646
15769TIP3    H268723   1.217   0.103   5.747  0.6112  1.6734  0.0031
15770TIP3   OH268724   5.177   4.061  12.063 -0.0030 -0.1388  1.2201
15770TIP3    H168725   5.121   4.123  12.017  1.7396  0.6442  0.0863
15770TIP3    H268726   5.244   4.038  11.999 -0.3358 -2.8196  1.7973
15771TIP3   OH268727   5.425   3.862   6.496  0.4178  1.0778  0.1973
15771TIP3    H168728   5.394   3.942   6.453 -1.4343  0.0688 -0.4062
15771TIP3    H268729   5.488   3.825   6.436 -0.8569  0.6001 -0.8672
15772TIP3   OH268730   4.088   2.985   4.532 -0.0874  0.7271  0.2905
15772TIP3    H168731   4.145   2.908   4.535  0.3681  1.0279 -0.5691
15772TIP3    H268732   4.144   3.055   4.498 -0.3596  1.5626  1.5192
15773TIP3   OH268733   0.980   5.053   1.312  0.2618 -0.2934  0.0357
15773TIP3    H168734   1.071   5.036   1.286 -0.7034 -2.7351 -1.9844
15773TIP3    H268735   0.987   5.107   1.390  3.4411  0.6523 -0.8297
15774TIP3   OH268736   0.499   0.600   0.221 -0.3295  0.2767 -0.0119
15774TIP3    H168737   0.570   0.581   0.282 -0.1314 -0.8314 -0.5720
15774TIP3    H268738   0.419   0.590   0.272 -0.0991  1.6040  0.6414
15775TIP3   OH268739   0.764   6.603  15.032  0.3762 -0.2515 -0.0896
15775TIP3    H168740   0.826   6.594  14.960  0.0354  0.4281 -0.4745
15775TIP3    H268741   0.734   6.694  15.027  0.2520 -0.2310  0.8277
15776TIP3   OH268742   5.122   4.518   3.735 -0.5552 -0.0184  0.5719
15776TIP3    H168743   5.151   4.484   3.820 -0.8731 -0.0043  0.6855
15776TIP3    H268744   5.202   4.552   3.695  0.1464 -2.6340 -0.3624
15777TIP3   OH268745   6.426   1.137   1.092  0.6555  0.4284 -0.4825
15777TIP3    H168746   6.469   1.068   1.042 -2.0424 -0.9601 -0.9910
15777TIP3    H268747   6.353   1.165   1.037 -0.8730  0.6079  1.5685
15778TIP3   OH268748   3.406   5.499  16.400  0.3626 -0.3564  0.2735
15778TIP3    H168749   3.346   5.472  16.469 -0.2372 -1.2952 -0.6119
15778TIP3    H268750   3.368   5.581  16.367  0.2306 -0.3094  0.5351
15779TIP3   OH268751   4.681   4.560   3.833  0.4181  0.0456 -0.3571
15779TIP3    H168752   4.705   4.471   3.808  0.3855 -0.3489  1.0132
15779TIP3    H268753   4.712   4.570   3.923 -0.1298  1.2068 -0.2830
15780TIP3   OH268754   2.636   4.956  11.805 -0.2683 -0.1309  0.0480
15780TIP3    H168755   2.607   5.044  11.828 -1.3757 -0.1808 -1.1240
15780TIP3    H268756   2.585   4.898  11.861 -1.4519 -0.1496 -1.0364
15781TIP3   OH268757   2.311   4.870  15.490  0.5141  0.4437  0.2780
15781TIP3    H168758   2.232   4.818  15.472  1.6660 -2.0748  2.1199
15781TIP3    H268759   2.381   4.824  15.443  1.2445  1.4259  0.4035
15782TIP3   OH268760   5.865   6.352  15.586  0.1427 -0.1085 -0.4474
15782TIP3    H168761   5.926   6.286  15.553 -1.0587 -1.4236 -0.0750
15782TIP3    H268762   5.784   6.337  15.537 -0.8369 -0.3892  1.1863
15783TIP3   OH268763   2.679   6.659   0.914 -0.1219  0.3432  0.2833
15783TIP3    H168764   2.629   6.730   0.873 -0.5436 -0.0323  0.1446
15783TIP3    H268765   2.671   6.586   0.853  0.2591  0.1555  0.4606
15784TIP3   OH268766   2.193   6.062   4.389  0.3193  0.3487 -0.2041
15784TIP3    H168767   2.105   6.088   4.361  0.4483  0.7123 -0.2771
15784TIP3    H268768   2.214   5.986   4.336 -0.2786 -0.2383  0.3901
15785TIP3   OH268769   2.175   2.068   5.349 -0.0037  0.5670 -0.1552
15785TIP3    H168770   2.140   2.040   5.434  1.9056 -0.7107  0.2329
15785TIP3    H268771   2.191   2.162   5.360 -0.9772  0.6770  0.4620
15786TIP3   OH268772   5.858   4.350  14.961 -0.5907 -0.1132 -0.2549
15786TIP3    H168773   5.834   4.431  15.005 -0.2214  1.0890 -2.1992
15786TIP3    H268774   5.946   4.330  14.994 -1.4259 -0.7701  1.6402
15787TIP3   OH268775   3.782   2.366   5.897 -1.0145 -0.0837 -0.0578
15787TIP3    H168776   3.860   2.317   5.925 -1.9144 -1.7462 -0.3880
15787TIP3    H268777   3.719   2.298   5.872 -1.7235  1.2732 -2.0923
15788TIP3   OH268778   0.504   4.918   1.832  0.0867 -0.0554  0.5520
15788TIP3    H168779   0.504   4.829   1.867  1.9912 -0.0607  0.5656
15788TIP3    H268780   0.593   4.949   1.845 -0.2945  1.4910 -0.4089
15789TIP3   OH268781   0.569   3.384  13.975 -0.0577  0.2338  0.5281
15789TIP3    H168782   0.558   3.374  14.070 -0.4432  1.6790  0.6526
15789TIP3    H268783   0.590   3.296  13.944 -2.0362 -0.6872  1.6671
15790TIP3   OH268784   0.599   0.884   2.877  0.2898 -0.6004 -0.2936
15790TIP3    H168785   0.524   0.828   2.860 -0.5230 -0.0206  1.2685
15790TIP3    H268786   0.626   0.862   2.966  1.2150  0.0564 -0.4051
15791TIP3   OH268787   0.890   1.473   4.267 -0.6850  0.4694  0.3865
15791TIP3    H168788   0.899   1.402   4.330  0.4341 -0.8469 -1.2042
15791TIP3    H268789   0.962   1.460   4.205  0.4452  3.8686  0.8760
15792TIP3   OH268790   1.669   2.718  12.469 -0.5850  0.4745 -0.1254
15792TIP3    H168791   1.643   2.672  12.389 -2.6492  0.1295  0.7233
15792TIP3    H268792   1.669   2.810  12.444 -2.8690  0.5071 -0.1116
15793TIP3   OH268793   5.106   5.170  16.126  0.0882 -0.0084  0.3456
15793TIP3    H168794   5.123   5.250  16.177  0.7116  0.8257 -1.1380
15793TIP3    H268795   5.010   5.165  16.121  0.0139 -0.1431  1.6492
15794TIP3   OH268796   4.223   6.240   0.194  0.9247 -0.0184 -0.1120
15794TIP3    H168797   4.156   6.204   0.252  1.5168  1.2891  1.4339
15794TIP3    H268798   4.206   6.200   0.109 -2.7519  1.4389 -0.1300
15795TIP3   OH268799   0.803   2.639  12.794  0.0826 -0.3861  0.1669
15795TIP3    H168800   0.889   2.603  12.774  0.5396  0.3082  0.8543
15795TIP3    H268801   0.747   2.561  12.808  0.8259 -0.8374  0.6700
15796TIP3   OH268802   1.356   5.486  14.044  0.4653 -0.3375  0.0494
15796TIP3    H168803   1.280   5.542  14.030 -0.5646 -1.7510 -0.1579
15796TIP3    H268804   1.424   5.545  14.077 -0.6357  0.9881 -0.0138
15797TIP3   OH268805   3.712   5.071  15.251  0.2198  0.5245  0.2991
15797TIP3    H168806   3.697   4.986  15.293  2.9901 -0.6196 -0.9277
15797TIP3    H268807   3.655   5.069  15.174  1.5628 -1.0063 -0.7011
15798TIP3   OH268808   1.440   6.543  16.422  0.0270 -0.4899  0.0363
15798TIP3    H168809   1.440   6.637  16.408  0.7356 -0.6709 -1.2530
15798TIP3    H268810   1.532   6.520  16.433 -0.0153 -1.2180 -1.0355
15799TIP3   OH268811   4.908   2.870   4.006  0.5876  0.1213  0.0317
15799TIP3    H168812   4.998   2.891   3.980  0.3562  0.7065 -0.3089
15799TIP3    H268813   4.874   2.953   4.039  0.3464 -0.2289  0.6630
15800TIP3   OH268814   6.785   0.259  12.470  0.1364 -0.5563 -0.5415
15800TIP3    H168815   6.798   0.167  12.450  0.4931 -0.1329 -2.3864
15800TIP3    H268816   6.721   0.289  12.405  0.6320  0.6792 -0.4848
15801TIP3   OH268817   0.622   3.791   5.860 -0.2572 -0.1051  0.2586
15801TIP3    H168818   0.576   3.844   5.924 -1.2220 -2.1107  1.2829
15801TIP3    H268819   0.702   3.764   5.904 -1.0646 -1.7376  0.7795
15802TIP3   OH268820   0.038   6.157  12.514  0.1584 -0.4076  0.6120
15802TIP3    H168821  -0.056   6.170  12.527  0.3560  0.5698  1.1490
15802TIP3    H268822   0.074   6.246  12.508  0.8382 -0.7881 -1.1885
15803TIP3   OH268823   4.261   4.442   1.506  0.1837  0.1718  0.4208
15803TIP3    H168824   4.227   4.498   1.576  0.7413  0.4533  0.4706
15803TIP3    H268825   4.231   4.484   1.425  2.2806  1.6988  0.3775
15804TIP3   OH268826   6.531   5.976   6.175 -0.0040 -0.3016  0.3105
15804TIP3    H168827   6.529   5.883   6.200 -4.0120 -0.4380 -0.1080
15804TIP3    H268828   6.490   6.021   6.248  0.0906  0.8997 -0.3656
15805TIP3   OH268829   0.131   1.419  14.309 -0.6766  0.3863 -0.5033
15805TIP3    H168830   0.045   1.403  14.271 -2.4461  1.4406  2.8637
15805TIP3    H268831   0.129   1.511  14.335  1.5328  0.4713 -0.4964
15806TIP3   OH268832   6.717   3.118   3.188 -0.2472  0.6910  0.6453
15806TIP3    H168833   6.721   3.210   3.162  0.4027  0.6954  0.7540
15806TIP3    H268834   6.809   3.090   3.190 -0.4615 -0.0172  0.3901
15807TIP3   OH268835   3.648   5.272   5.058  0.3592  0.4444  0.2546
15807TIP3    H168836   3.553   5.269   5.048  0.1880  0.5208  1.7305
15807TIP3    H268837   3.667   5.208   5.126  1.2376  1.3391  0.8618
15808TIP3   OH268838   4.390   0.215   1.985  0.3430  0.1533 -0.4729
15808TIP3    H168839   4.324   0.157   2.023 -2.3616  3.2475 -0.1402
15808TIP3    H268840   4.387   0.197   1.891 -0.5999 -0.1579 -0.3907
15809TIP3   OH268841   1.774   3.194   5.552  0.2230  0.3961  0.3552
15809TIP3    H168842   1.734   3.168   5.636 -1.0711  0.3847 -0.2466
15809TIP3    H268843   1.769   3.290   5.552 -0.6239  0.3559 -0.1063
15810TIP3   OH268844   6.556   3.414   3.616 -0.3687 -0.2055 -0.5074
15810TIP3    H168845   6.476   3.362   3.623 -1.2290  0.9975 -1.2193
15810TIP3    H268846   6.604   3.395   3.697 -1.8043 -0.2240  0.3599
15811TIP3   OH268847   5.911   2.952  14.860  0.1964  0.4360  0.8126
15811TIP3    H168848   5.818   2.935  14.844  0.7907  0.9646 -3.8853
15811TIP3    H268849   5.914   3.044  14.888 -0.7716  0.0279  2.3372
15812TIP3   OH268850   1.772   4.127   6.975 -0.6024  1.1759  0.1711
15812TIP3    H168851   1.750   4.070   6.901 -1.4619  0.5413  0.8978
15812TIP3    H268852   1.860   4.100   7.000 -1.1697 -0.1771  0.7869
15813TIP3   OH268853   2.094   1.159   2.418 -0.8094  0.3267  0.3971
15813TIP3    H168854   2.042   1.130   2.344  0.4588  0.2534 -0.4711
15813TIP3    H268855   2.072   1.252   2.428 -1.4182  0.1896  0.2952
15814TIP3   OH268856   3.759   2.892  16.246  0.0770 -0.2422 -0.0980
15814TIP3    H168857   3.807   2.966  16.282 -1.7373  0.4268  1.0331
15814TIP3    H268858   3.814   2.816  16.264  0.9241  0.5581  0.7152
15815TIP3   OH268859   0.061   0.025  15.979  0.0504 -0.4024 -0.0308
15815TIP3    H168860   0.092  -0.056  16.020  2.5899  1.5617  2.0213
15815TIP3    H268861  -0.006   0.059  16.038  1.1017  0.5330  0.6267
15816TIP3   OH268862   5.437   4.200   4.856  0.0744 -0.0665 -0.2549
15816TIP3    H168863   5.342   4.191   4.854 -0.0593  1.5239 -2.1128
15816TIP3    H268864   5.468   4.152   4.779  0.7329 -0.0775  0.0122
15817TIP3   OH268865   6.365   1.879   3.040  0.6563  0.1495 -0.1062
15817TIP3    H168866   6.338   1.857   3.129 -0.4744  1.2571 -0.1549
15817TIP3    H268867   6.290   1.854   2.986 -0.0273  2.6177 -0.3427
15818TIP3   OH268868   4.169   1.000  16.215 -0.0320 -0.6370  0.3341
15818TIP3    H168869   4.163   0.953  16.299 -1.0047 -3.6048 -1.3424
15818TIP3    H268870   4.078   1.009  16.186  0.3782 -0.8046 -1.0282
15819TIP3   OH268871   6.154   2.367  11.348 -0.0776 -0.2459 -0.1138
15819TIP3    H168872   6.240   2.330  11.370 -0.4378 -0.6786  0.5777
15819TIP3    H268873   6.134   2.426  11.421  0.4036  1.1711 -1.1143
15820TIP3   OH268874   4.118   0.878  14.069  0.1757  0.0243 -0.1805
15820TIP3    H168875   4.093   0.963  14.035 -1.5877 -0.5517 -0.3767
15820TIP3    H268876   4.180   0.897  14.139  0.2473  1.4265 -0.6148
15821TIP3   OH268877   3.827   3.314   6.201  0.0341  0.0527  0.1400
15821TIP3    H168878   3.884   3.296   6.126 -0.3965 -0.0411 -0.1703
15821TIP3    H268879   3.799   3.227   6.231 -2.1157  0.1527 -1.4156
15822TIP3   OH268880   5.563   0.116  16.344 -0.3673 -0.1037  0.6347
15822TIP3    H168881   5.496   0.168  16.389  0.5467  0.1033  1.7861
15822TIP3    H268882   5.632   0.179  16.324 -0.6486 -0.2587 -0.8152
15823TIP3   OH268883   1.129   5.624   1.115  0.4022 -0.4471  0.1622
15823TIP3    H168884   1.107   5.717   1.113 -4.4410 -1.4749 -0.5230
15823TIP3    H268885   1.145   5.601   1.024  1.6355 -0.3006  0.3354
15824TIP3   OH268886   4.998   4.134  16.330 -0.1349  0.0994 -0.0483
15824TIP3    H168887   4.996   4.228  16.346  2.8031  0.1579  0.2965
15824TIP3    H268888   4.993   4.094  16.417  1.6866  0.0435  0.0476
15825TIP3   OH268889   1.422   2.336   2.145  0.0263 -0.1651  0.3974
15825TIP3    H168890   1.394   2.256   2.191  0.9621 -0.4943  0.4030
15825TIP3    H268891   1.442   2.398   2.215 -0.6666  0.0758  0.3933
15826TIP3   OH268892   1.348   0.627  11.460  0.1789 -0.0423 -0.4826
15826TIP3    H168893   1.399   0.548  11.441  0.0854 -0.2738  0.2136
15826TIP3    H268894   1.405   0.679  11.517 -0.0392  0.0770 -0.3756
15827TIP3   OH268895   0.154   3.888   5.954 -0.4185  0.2988 -0.2254
15827TIP3    H168896   0.160   3.983   5.949  0.5042  0.2214 -0.6231
15827TIP3    H268897   0.122   3.871   6.043 -3.7968  1.0977 -1.2214
15828TIP3   OH268898   2.606   2.408  11.230  0.0289 -0.0589  0.5241
15828TIP3    H168899   2.598   2.490  11.181  2.2733 -0.1209  0.0107
15828TIP3    H268900   2.518   2.391  11.262 -0.7256  1.9047 -0.4175
15829TIP3   OH268901   4.751   3.425  15.430  0.5339 -0.2219 -0.2114
15829TIP3    H168902   4.723   3.353  15.486  1.6612 -0.0449  0.5954
15829TIP3    H268903   4.671   3.475  15.413  0.0888 -0.5599  0.8409
15830TIP3   OH268904   5.650   6.661   6.049  0.7235 -0.6432 -0.4560
15830TIP3    H168905   5.715   6.706   6.102 -0.3026 -0.1722  0.4213
15830TIP3    H268906   5.579   6.724   6.039 -0.4134 -1.7850  0.1861
15831TIP3   OH268907   1.960   1.167  16.198 -0.0901  0.1778 -0.1459
15831TIP3    H168908   1.950   1.262  16.205  0.8718  0.3456 -1.0091
15831TIP3    H268909   2.039   1.147  16.248 -1.1093 -0.3697  1.2918
15832TIP3   OH268910   0.699   3.099   0.739  1.3824  0.2798  0.3445
15832TIP3    H168911   0.617   3.077   0.696  0.1535  1.4410  2.0141
15832TIP3    H268912   0.736   3.015   0.766  0.5030 -0.2212  0.0003
15833TIP3   OH268913   4.847   4.930  11.723 -0.5117 -0.5071  0.3453
15833TIP3    H168914   4.780   4.890  11.778 -1.4791 -0.1717 -0.5707
15833TIP3    H268915   4.851   4.874  11.645 -0.6331  0.1791 -0.1637
15834TIP3   OH268916   1.996   6.318   2.736  0.4976 -0.0873  0.1160
15834TIP3    H168917   2.009   6.250   2.669  2.0187  0.8728 -0.5925
15834TIP3    H268918   2.035   6.281   2.815  0.1059 -0.5910  0.0769
15835TIP3   OH268919   2.831   0.441  12.629  0.1827  0.2456  0.5501
15835TIP3    H168920   2.774   0.370  12.598 -0.5943  0.6637  1.0198
15835TIP3    H268921   2.918   0.416  12.598 -0.5579  0.6795 -2.0409
15836TIP3   OH268922   1.223   5.967   0.851  0.0459  0.2729 -0.5044
15836TIP3    H168923   1.288   6.037   0.849  0.5702 -0.1965 -0.0324
15836TIP3    H268924   1.159   5.992   0.785  0.2423  1.1878 -0.3540
15837TIP3   OH268925   4.234   4.731  13.094  0.1296  0.3802 -0.3863
15837TIP3    H168926   4.262   4.777  13.015 -0.2052  0.5066 -0.4293
15837TIP3    H268927   4.160   4.677  13.065  1.0784 -0.8761 -0.5419
15838TIP3   OH268928   2.978   5.665   5.836  0.7866  0.0181 -0.3412
15838TIP3    H168929   3.052   5.645   5.779  0.8281 -1.3573  0.1744
15838TIP3    H268930   2.904   5.676   5.777  1.1422  0.1038 -0.7694
15839TIP3   OH268931   1.598   3.923  13.666  0.1562 -0.1265 -0.4931
15839TIP3    H168932   1.666   3.985  13.693 -1.1081  0.9545  0.2670
15839TIP3    H268933   1.630   3.886  13.584  2.4255 -0.8392  0.6743
15840TIP3   OH268934   2.106   3.052   0.272  0.3071  0.3034 -0.1155
15840TIP3    H168935   2.037   3.110   0.305  0.7789  1.0216 -0.3613
15840TIP3    H268936   2.076   3.025   0.186  0.0989  0.2027 -0.0125
15841TIP3   OH268937   0.105   0.910  13.831 -0.1066 -0.0498  0.1198
15841TIP3    H168938   0.187   0.865  13.808  0.2230  0.9631 -0.7028
15841TIP3    H268939   0.058   0.919  13.749 -0.1330  1.1791  0.2575
15842TIP3   OH268940   1.792   6.414   2.935 -0.3354 -0.4210  0.9091
15842TIP3    H168941   1.729   6.343   2.937  1.6281 -2.2648 -0.2727
15842TIP3    H268942   1.859   6.385   2.873  1.8193  1.3391  2.3154
15843TIP3   OH268943   3.139   0.904   1.376 -0.0459 -0.0677  0.6934
15843TIP3    H168944   3.205   0.947   1.323  0.0088  0.2094  0.9870
15843TIP3    H268945   3.142   0.812   1.349  0.4921 -0.0639  0.7415
15844TIP3   OH268946   1.695   1.415  14.015  0.2422  0.0781 -0.0108
15844TIP3    H168947   1.655   1.365  14.086 -0.2787 -0.2419 -0.5181
15844TIP3    H268948   1.786   1.428  14.042 -0.3684  1.3742  1.4609
15845TIP3   OH268949   3.426   4.861   2.082  0.2124  0.0089  0.5320
15845TIP3    H168950   3.521   4.863   2.095  0.0649 -0.9345  1.7887
15845TIP3    H268951   3.411   4.783   2.028  0.2505  0.8003 -0.6536
15846TIP3   OH268952   5.732   2.373  16.006  0.0102 -0.2289 -0.3424
15846TIP3    H168953   5.825   2.352  16.016  0.3961  1.7723  0.4882
15846TIP3    H268954   5.729   2.468  15.992 -1.9799 -0.0670  0.8900
15847TIP3   OH268955   0.077   0.992  10.071  0.2101 -0.3669  0.2508
15847TIP3    H168956   0.035   1.032   9.995  0.5586  2.3374  1.4198
15847TIP3    H268957   0.006   0.953  10.122 -0.4128  0.6718  0.1754
15848TIP3   OH268958   3.499   5.534  13.855 -0.0416  0.1278 -0.0910
15848TIP3    H168959   3.483   5.619  13.895 -2.1042  0.6798 -1.9848
15848TIP3    H268960   3.595   5.530  13.846  0.1228  2.0057  0.5109
15849TIP3   OH268961   0.835   0.946  14.078  0.0205  0.1347 -0.5471
15849TIP3    H168962   0.880   0.968  13.996  0.7354  1.0760  0.0783
15849TIP3    H268963   0.854   1.020  14.135 -0.3912 -0.5665  0.5002
15850TIP3   OH268964   5.154   6.353  12.240 -0.1327 -0.7791  0.5986
15850TIP3    H168965   5.112   6.407  12.173  1.0563 -0.3970  0.1511
15850TIP3    H268966   5.240   6.394  12.254 -1.0470  0.2075  3.6602
15851TIP3   OH268967   2.215   0.483  12.038 -0.4541  0.0732  0.0862
15851TIP3    H168968   2.160   0.418  12.081  0.3677 -1.7437 -1.5141
15851TIP3    H268969   2.203   0.467  11.944  3.9996 -1.5080 -0.3385
15852TIP3   OH268970   2.518   1.350   4.976 -0.0117 -0.5206 -0.3333
15852TIP3    H168971   2.516   1.446   4.979 -1.3092 -0.5034 -1.3698
15852TIP3    H268972   2.592   1.330   4.919  1.1574 -0.1755  1.0360
15853TIP3   OH268973   4.012   5.546   2.333  0.3693  0.0701 -0.4050
15853TIP3    H168974   3.962   5.471   2.301 -0.4746  0.0880  0.8573
15853TIP3    H268975   3.972   5.622   2.292 -0.4468  0.0582  0.3727
15854TIP3   OH268976   4.919   5.862   1.773  0.6466 -0.6203 -0.2017
15854TIP3    H168977   4.923   5.922   1.699  2.5534 -1.2723 -0.6597
15854TIP3    H268978   4.947   5.914   1.848  1.0017 -0.5915 -0.3560
15855TIP3   OH268979   5.854   2.724  11.010  0.0886  0.2360  0.1402
15855TIP3    H168980   5.886   2.635  10.998 -0.1673  0.0253  1.0317
15855TIP3    H268981   5.933   2.776  11.023  0.3294  0.3531 -1.6489
15856TIP3   OH268982   2.248   3.732   1.151 -0.1660  0.5936  0.3563
15856TIP3    H168983   2.214   3.648   1.121  3.1925 -1.1716  1.3538
15856TIP3    H268984   2.266   3.719   1.244  3.8798  1.2054 -0.2726
15857TIP3   OH268985   6.281   5.659   0.589  0.0331 -0.1665 -0.2034
15857TIP3    H168986   6.275   5.737   0.534 -0.4578  0.6247  0.9524
15857TIP3    H268987   6.333   5.686   0.664  1.0485 -1.3535 -0.4536
15858TIP3   OH268988   0.036   3.488   0.295 -0.5573  0.5092  0.5494
15858TIP3    H168989  -0.028   3.466   0.363 -0.9166 -2.4690 -0.7028
15858TIP3    H268990   0.012   3.434   0.220  1.3827  1.8726 -1.1188
15859TIP3   OH268991   1.555   0.218   6.132  0.1646 -0.5963 -0.0933
15859TIP3    H168992   1.544   0.220   6.227  2.1235  1.4952  0.1261
15859TIP3    H268993   1.526   0.303   6.102 -0.5978 -1.3044 -1.4079
15860TIP3   OH268994   6.614   5.154   0.234  0.3801  0.7347  0.0449
15860TIP3    H168995   6.654   5.198   0.309  0.8443  0.6471 -0.1526
15860TIP3    H268996   6.544   5.214   0.207  0.4796  0.9635  0.2853
15861TIP3   OH268997   5.443   4.575   5.508  0.3729  0.2010  0.6764
15861TIP3    H168998   5.361   4.605   5.467  0.3937 -0.5557  0.0716
15861TIP3    H268999   5.453   4.631   5.585 -0.0003  1.2160 -0.0057
15862TIP3   OH269000   6.638   3.913   5.074  0.1950 -0.2063  0.3855
15862TIP3    H169001   6.724   3.925   5.034  1.2754 -1.6870  2.2083
15862TIP3    H269002   6.606   3.831   5.037 -0.8389  0.7868 -0.9619
15863TIP3   OH269003   0.100   6.497   6.374 -0.1568  0.2163 -0.4627
15863TIP3    H169004   0.074   6.566   6.435  0.6130  0.0335  0.0722
15863TIP3    H269005   0.174   6.535   6.326  0.4431 -0.3357  0.0212
15864TIP3   OH269006   5.545   3.707  13.918 -0.6948 -0.5505  0.7374
15864TIP3    H169007   5.454   3.678  13.923 -0.5000 -1.9380 -2.3748
15864TIP3    H269008   5.594   3.643  13.970 -1.4996  0.4817  2.8276
15865TIP3   OH269009   6.000   4.008  11.313 -0.4856  0.0602  0.3909
15865TIP3    H169010   6.057   4.062  11.259  2.6512 -1.6315  1.9120
15865TIP3    H269011   5.955   3.951  11.251  0.0936  0.8143 -0.7379
15866TIP3   OH269012   5.550   6.576  11.357 -0.3531  0.4487  0.3439
15866TIP3    H169013   5.595   6.572  11.273  0.0763  1.4298  0.5200
15866TIP3    H269014   5.587   6.504  11.408  0.5740  0.8692  0.2724
15867TIP3   OH269015   0.165   6.080   2.345 -0.1179  0.5113 -0.0000
15867TIP3    H169016   0.145   6.138   2.419 -0.0690 -0.0661  0.4713
15867TIP3    H269017   0.117   6.000   2.364  0.9278 -0.1103  0.0532
15868TIP3   OH269018   4.926   2.390   5.876 -0.1388  0.7343 -0.4082
15868TIP3    H169019   4.909   2.404   5.969  0.5342  4.6875 -0.7691
15868TIP3    H269020   5.020   2.369   5.872  0.6770  4.0826 -0.3953
15869TIP3   OH269021   2.593   0.602   0.127  0.1410 -0.2693  0.4710
15869TIP3    H169022   2.687   0.610   0.110 -0.2931  0.2755 -1.7124
15869TIP3    H269023   2.575   0.509   0.120  0.7908 -0.5880  2.5276
15870TIP3   OH269024   2.330   4.809   1.722 -0.3583  0.2078 -0.4403
15870TIP3    H169025   2.242   4.838   1.696 -0.3830  1.1542  0.6356
15870TIP3    H269026   2.334   4.829   1.816  2.1045  3.0521 -1.0768
15871TIP3   OH269027   5.870   4.060  13.957 -0.2371 -0.6692 -0.3382
15871TIP3    H169028   5.891   4.138  14.008 -1.0664  0.2583 -1.3792
15871TIP3    H269029   5.805   4.014  14.009  1.4207 -1.4983  1.0292
15872TIP3   OH269030   0.524   5.173   4.892  0.2788 -0.1548 -0.3776
15872TIP3    H169031   0.454   5.231   4.862  0.7982  0.9431  0.5032
15872TIP3    H269032   0.567   5.222   4.962  0.7916 -1.5623  0.3121
15873TIP3   OH269033   5.870   2.929   3.040 -0.4243 -0.5169  0.3061
15873TIP3    H169034   5.855   2.839   3.068 -1.2423 -0.8573 -1.1636
15873TIP3    H269035   5.787   2.973   3.055 -1.1671 -0.9228 -2.2740
15874TIP3   OH269036   1.732   2.850   5.270 -0.0911  0.2975 -0.2210
15874TIP3    H169037   1.734   2.771   5.217 -1.9996  0.4143 -0.5249
15874TIP3    H269038   1.783   2.914   5.221 -0.3612 -0.1215 -1.0505
15875TIP3   OH269039   0.376   1.102   4.593 -0.1505  0.0715  0.4482
15875TIP3    H169040   0.300   1.157   4.574 -0.1997 -0.5606 -1.3284
15875TIP3    H269041   0.340   1.028   4.643 -0.9295 -0.7879 -1.3279
15876TIP3   OH269042   5.830   6.514   2.578 -0.0667  0.2597  0.0589
15876TIP3    H169043   5.806   6.527   2.670 -0.6018 -0.5711  0.0490
15876TIP3    H269044   5.922   6.538   2.574 -0.4295  1.7915  0.4792
15877TIP3   OH269045   0.346   3.512   0.389 -0.9811 -0.3604  0.0006
15877TIP3    H169046   0.349   3.533   0.482  1.4908 -0.1443 -0.0753
15877TIP3    H269047   0.389   3.426   0.383 -1.3081 -0.4674 -0.9137
15878TIP3   OH269048   5.109   4.082  16.937  0.3696  0.0157 -0.4698
15878TIP3    H169049   5.037   4.021  16.922 -1.4700  1.5750  1.5153
15878TIP3    H269050   5.071   4.168  16.920  1.7255  0.8812  0.7576
15879TIP3   OH269051   2.906   0.629   4.182  0.4622 -0.1036 -0.3999
15879TIP3    H169052   2.848   0.699   4.212  1.3280  0.7694 -0.7524
15879TIP3    H269053   2.867   0.599   4.100  0.5143  0.4901 -0.6438
15880TIP3   OH269054   0.120   6.176   5.017  0.4051  0.0950 -0.4024
15880TIP3    H169055   0.128   6.084   5.043  1.2374  0.7525  1.8048
15880TIP3    H269056   0.211   6.206   5.009  0.1360  0.7840 -0.9081
15881TIP3   OH269057   4.802   1.447   5.770 -0.0648 -0.2422  0.5822
15881TIP3    H169058   4.882   1.405   5.740  0.2388 -0.6916  2.0014
15881TIP3    H269059   4.772   1.393   5.843 -1.7547 -0.1819 -0.0264
15882TIP3   OH269060   3.030   5.337   0.658 -0.5762  0.5655  0.1833
15882TIP3    H169061   3.027   5.422   0.614 -1.8482  0.3588 -0.1355
15882TIP3    H269062   2.979   5.349   0.738 -0.2829  0.2608  0.4181
15883TIP3   OH269063   2.467   3.472   3.190 -0.0553 -0.9552  0.9850
15883TIP3    H169064   2.513   3.544   3.233  0.9091 -0.4858 -0.8139
15883TIP3    H269065   2.379   3.506   3.174  0.8570  0.4073 -1.2736
15884TIP3   OH269066   6.682   3.414   4.213 -0.7036  0.8795  0.2784
15884TIP3    H169067   6.593   3.418   4.177 -1.2790  0.5920  1.6118
15884TIP3    H269068   6.737   3.459   4.149 -1.8638  1.3271 -0.4136
15885TIP3   OH269069   6.541   2.533   1.935  0.1123  0.4651 -0.0452
15885TIP3    H169070   6.618   2.590   1.939  0.0306  0.5562  0.2469
15885TIP3    H269071   6.478   2.582   1.883 -0.2996  1.0523  0.9988
15886TIP3   OH269072   6.142   2.629  14.624 -0.1362  0.3062 -0.1105
15886TIP3    H169073   6.081   2.675  14.567 -1.4336 -0.9677  0.2186
15886TIP3    H269074   6.227   2.669  14.606 -0.6131  0.3238 -2.5137
15887TIP3   OH269075   5.914   4.720   0.441 -0.3511  0.3745  0.9537
15887TIP3    H169076   5.927   4.801   0.392  0.0628  0.2139  0.7916
15887TIP3    H269077   5.838   4.678   0.400 -0.0387  0.2682  0.4910
15888TIP3   OH269078   4.342   0.706  10.737 -0.3243 -0.2519 -0.2314
15888TIP3    H169079   4.424   0.733  10.780 -0.7047  0.5152  0.0229
15888TIP3    H269080   4.305   0.641  10.796  0.1864 -0.7271 -0.4289
15889TIP3   OH269081   6.531   0.817  14.245  0.9464  0.6644 -0.0944
15889TIP3    H169082   6.460   0.821  14.181 -0.0292 -0.9474  0.8545
15889TIP3    H269083   6.543   0.907  14.273 -2.0541  0.7493  1.1461
15890TIP3   OH269084   2.298   4.608   2.981  0.0671  0.0137 -0.0214
15890TIP3    H169085   2.245   4.649   3.049  2.0752 -0.4117  1.8370
15890TIP3    H269086   2.358   4.676   2.953  0.0469 -0.1758 -0.5361
15891TIP3   OH269087   1.804   4.901  13.178 -0.0538 -0.1742 -0.1502
15891TIP3    H169088   1.755   4.925  13.257 -1.3747  3.4784 -1.9724
15891TIP3    H269089   1.886   4.951  13.185  1.1891 -2.2341  0.3530
15892TIP3   OH269090   4.242   5.008   1.127  0.7015  0.0232  0.3192
15892TIP3    H169091   4.233   5.053   1.211 -0.3753  1.2203 -0.4298
15892TIP3    H269092   4.168   4.948   1.124  0.9678 -0.3146  0.3864
15893TIP3   OH269093   6.610   3.573  11.002 -0.0529  1.0511 -1.1540
15893TIP3    H169094   6.518   3.560  11.026  0.5232  0.5704  0.8955
15893TIP3    H269095   6.635   3.492  10.957  0.5363 -0.6909  2.1308
15894TIP3   OH269096   2.998   1.423  16.810 -0.1174 -0.0397  0.1779
15894TIP3    H169097   3.085   1.457  16.790 -1.0236  0.8097 -2.6745
15894TIP3    H269098   3.012   1.332  16.836  1.8613  0.9484  2.7505
15895TIP3   OH269099   4.926   0.099  11.780  0.5653  0.3889  0.1628
15895TIP3    H169100   4.839   0.059  11.781 -0.0636  1.7341  1.0110
15895TIP3    H269101   4.936   0.133  11.691  0.3000  0.0605  0.0052
15896TIP3   OH269102   2.906   6.149  16.330  0.4251  0.1671 -0.7196
15896TIP3    H169103   2.835   6.168  16.269 -0.1453  3.1931  0.7841
15896TIP3    H269104   2.954   6.231  16.338  0.3839 -0.0854  2.9668
15897TIP3   OH269105   4.455   5.296  12.653  0.3703 -0.2643 -0.4009
15897TIP3    H169106   4.493   5.241  12.585  0.2538 -1.3956  0.4304
15897TIP3    H269107   4.436   5.379  12.610  1.1690 -0.6547 -1.5082
15898TIP3   OH269108   4.946   3.933   2.647 -0.3964  0.2225  0.3211
15898TIP3    H169109   4.851   3.923   2.656 -0.5106  0.4642 -0.4862
15898TIP3    H269110   4.958   4.027   2.634  0.0041  0.2570  0.9426
15899TIP3   OH269111   0.748   2.047   5.145 -0.1637  0.3789  0.3036
15899TIP3    H169112   0.789   2.134   5.138 -0.3235  0.5823  1.6437
15899TIP3    H269113   0.806   1.989   5.095 -0.8597  1.5112 -1.8371
15900TIP3   OH269114   1.518   2.476  12.726  0.3358  0.3606  0.0867
15900TIP3    H169115   1.567   2.461  12.645  0.8697  0.2281  0.4336
15900TIP3    H269116   1.445   2.414  12.721  1.2640 -0.7856  0.4466
15901TIP3   OH269117   0.780   3.939  15.427 -0.0730 -0.2997 -0.1212
15901TIP3    H169118   0.758   3.882  15.501 -1.6040  0.5681  0.1210
15901TIP3    H269119   0.875   3.934  15.420 -0.0558 -1.6789  0.8622
15902TIP3   OH269120   4.728   3.508  11.038 -0.2518 -0.0518 -0.2464
15902TIP3    H169121   4.669   3.486  11.110 -0.0396 -0.0105 -0.0552
15902TIP3    H269122   4.702   3.451  10.966  0.3778 -1.0131  0.2830
15903TIP3   OH269123   4.267   6.531  14.332  0.0418  0.1886  0.4076
15903TIP3    H169124   4.296   6.620  14.315  0.4198  0.0933  0.5540
15903TIP3    H269125   4.296   6.512  14.422  0.8433 -0.4355  0.0178
15904TIP3   OH269126   0.613   3.874   6.626  0.8910 -0.0619 -0.1455
15904TIP3    H169127   0.639   3.917   6.545  1.4389  1.7805  0.9637
15904TIP3    H269128   0.683   3.895   6.688  0.3739 -1.2428  0.8780
15905TIP3   OH269129   6.504   3.479   0.175 -0.3661  0.2536  0.7396
15905TIP3    H169130   6.568   3.526   0.121  0.1305 -0.7517  0.4366
15905TIP3    H269131   6.482   3.541   0.245 -0.7990  1.4733 -0.4407
15906TIP3   OH269132   3.940   0.226   3.577  0.3842 -0.0020  0.2065
15906TIP3    H169133   3.918   0.310   3.617  0.4831 -0.1542  0.5820
15906TIP3    H269134   3.991   0.249   3.500 -3.4033  0.5096 -2.2818
15907TIP3   OH269135   1.547   2.300  14.361  0.2734  0.2578 -0.0104
15907TIP3    H169136   1.455   2.318  14.339 -0.4304 -0.9913  1.7541
15907TIP3    H269137   1.597   2.347  14.295 -1.6300  1.6931 -0.4833
15908TIP3   OH269138   2.973   0.930  11.119 -0.3353 -0.1247  0.4410
15908TIP3    H169139   2.883   0.960  11.108 -0.4307 -0.7123 -0.3930
15908TIP3    H269140   2.982   0.856  11.059  1.0664  0.6831 -0.3858
15909TIP3   OH269141   1.724   4.476   0.912 -0.5992  0.0964  0.2742
15909TIP3    H169142   1.687   4.530   0.981 -0.3895 -0.3567  0.7401
15909TIP3    H269143   1.649   4.452   0.857 -1.0285 -0.9469  1.3049
15910TIP3   OH269144   4.024   4.108   1.647 -0.0932 -0.2344  0.1914
15910TIP3    H169145   4.030   4.188   1.700 -0.1401  0.6031 -1.0557
15910TIP3    H269146   3.931   4.088   1.645 -0.2841  0.7368 -1.0380
15911TIP3   OH269147   3.289   1.564  12.994  0.3333 -0.2791  0.1251
15911TIP3    H169148   3.261   1.502  13.061 -1.5280  2.4882  2.0442
15911TIP3    H269149   3.368   1.604  13.029 -0.2737  0.7019  0.3966
15912TIP3   OH269150   6.002   1.065  15.293 -0.5167 -0.4054  0.5559
15912TIP3    H169151   6.091   1.085  15.262 -0.8334  1.5223  0.8361
15912TIP3    H269152   6.013   1.046  15.386 -0.4571  0.2834  0.6902
15913TIP3   OH269153   5.104   3.879   4.533  0.0118  0.0932  0.5023
15913TIP3    H169154   5.067   3.914   4.452 -2.1920 -0.9285  1.0464
15913TIP3    H269155   5.077   3.941   4.600  2.1447  1.1353  0.4550
15914TIP3   OH269156   1.494   2.141   4.833 -0.6605  0.3355  0.2002
15914TIP3    H169157   1.450   2.067   4.790  0.8151 -0.3771 -0.1310
15914TIP3    H269158   1.452   2.219   4.797 -0.7296 -0.3042 -1.1335
15915TIP3   OH269159   3.635   2.775  10.730  0.1240 -0.6032 -0.1905
15915TIP3    H169160   3.623   2.848  10.670  0.4483 -1.9002 -1.8808
15915TIP3    H269161   3.728   2.754  10.725  0.0302 -1.1499  0.2444
15916TIP3   OH269162   4.615   0.181   1.230 -0.3179  0.0060 -0.8474
15916TIP3    H169163   4.595   0.113   1.166 -3.2923 -0.8416  0.9009
15916TIP3    H269164   4.677   0.140   1.291 -1.9594 -1.1155  0.0956
15917TIP3   OH269165   5.896   1.919   4.244 -0.2656 -0.0778 -0.1868
15917TIP3    H169166   5.845   1.870   4.179 -1.8697  2.3430 -0.8186
15917TIP3    H269167   5.833   1.942   4.312  0.5055  0.8540  0.2346
15918TIP3   OH269168   3.047   2.645   4.405  0.1289 -0.7758  0.4673
15918TIP3    H169169   3.082   2.734   4.402 -2.8683  0.5399  1.7571
15918TIP3    H269170   2.991   2.639   4.328  0.0397 -1.4003  0.5781
15919TIP3   OH269171   1.022   6.533   5.991  0.2141  0.2433  0.4177
15919TIP3    H169172   1.009   6.451   5.942  1.8112 -0.2171  0.7113
15919TIP3    H269173   0.947   6.587   5.969  0.2769 -0.4439 -1.5940
15920TIP3   OH269174   4.732   3.130  15.041 -0.1836 -0.3521 -0.0392
15920TIP3    H169175   4.817   3.138  15.084 -0.0603 -0.2125 -0.3011
15920TIP3    H269176   4.702   3.220  15.032 -0.6279 -0.4399  0.5811
15921TIP3   OH269177   1.480   4.200  10.805 -0.1464  0.3715 -0.7197
15921TIP3    H169178   1.464   4.261  10.733  0.8316  1.1926 -0.2576
15921TIP3    H269179   1.574   4.183  10.802 -0.1939 -0.0588  0.0041
15922TIP3   OH269180   0.482   1.170   1.019 -1.0177 -0.1101  0.1688
15922TIP3    H169181   0.474   1.189   0.926 -0.0983 -2.7822 -0.5015
15922TIP3    H269182   0.425   1.095   1.034  0.1447 -0.7831  1.4012
15923TIP3   OH269183   6.779   4.785  15.346  0.2291  0.0877 -0.4520
15923TIP3    H169184   6.778   4.770  15.441  1.2179 -2.9614 -0.8700
15923TIP3    H269185   6.868   4.813  15.326 -0.2564  1.7465 -0.3700
15924TIP3   OH269186   5.495   3.787   1.820  0.4083  0.2480  0.1634
15924TIP3    H169187   5.457   3.823   1.900 -0.1557 -0.1293  0.0727
15924TIP3    H269188   5.423   3.787   1.757  0.0657 -2.0497  0.4880
15925TIP3   OH269189   5.236   2.695   4.001 -0.2901  0.1266  0.3308
15925TIP3    H169190   5.152   2.693   4.047  0.4056  1.9692  1.7328
15925TIP3    H269191   5.213   2.698   3.908 -1.7362 -2.5137  0.5601
15926TIP3   OH269192   0.262   6.356   4.854 -0.0242  0.1926  0.0343
15926TIP3    H169193   0.176   6.395   4.866 -0.1265  0.2883 -0.9760
15926TIP3    H269194   0.323   6.424   4.884 -0.2849  0.1754  0.6185
15927TIP3   OH269195   3.036   5.674   2.950  0.2146  0.1610  0.3552
15927TIP3    H169196   3.060   5.605   3.013 -0.3753 -0.4951 -0.1373
15927TIP3    H269197   2.950   5.648   2.917  0.7614  0.2083 -1.1398
15928TIP3   OH269198   5.459   4.068  12.008 -0.1507 -0.1875 -0.1219
15928TIP3    H169199   5.420   4.147  12.045  0.8037  0.6691 -0.9071
15928TIP3    H269200   5.552   4.076  12.028 -0.3636 -2.2911  1.8922
15929TIP3   OH269201   0.881   4.738   4.934  0.7289  0.6168 -0.0905
15929TIP3    H169202   0.944   4.672   4.906  0.6307  0.9711 -1.1526
15929TIP3    H269203   0.932   4.796   4.992  0.8981 -0.1789  0.5689
15930TIP3   OH269204   3.115   5.369  12.430 -0.6914 -0.1651 -0.0465
15930TIP3    H169205   3.027   5.373  12.466 -1.1635  2.3363 -1.4119
15930TIP3    H269206   3.107   5.406  12.342  1.5858 -0.5908 -0.4641
15931TIP3   OH269207   3.052   1.576   3.409  0.0452 -0.2589 -0.6756
15931TIP3    H169208   2.978   1.636   3.397  1.7325  1.8195 -1.0670
15931TIP3    H269209   3.039   1.540   3.497 -1.0304  0.6291 -0.4503
15932TIP3   OH269210   2.496   3.299   4.589  0.2314 -0.1103  0.3504
15932TIP3    H169211   2.448   3.313   4.670  1.4118  0.5125  0.9531
15932TIP3    H269212   2.518   3.206   4.591 -1.2256 -0.4833 -0.1014
15933TIP3   OH269213   4.432   0.320   1.375 -1.0019 -0.2451  0.2184
15933TIP3    H169214   4.475   0.254   1.320  0.6796  0.8653  0.1655
15933TIP3    H269215   4.381   0.373   1.313  0.8059  0.9358 -0.2959
15934TIP3   OH269216   0.555   4.886   0.112  0.1549  0.3907  0.4840
15934TIP3    H169217   0.483   4.832   0.078 -0.8173  1.3826  0.9247
15934TIP3    H269218   0.570   4.852   0.200  1.0549 -0.6024 -0.0345
15935TIP3   OH269219   3.124   0.280   5.047  0.3152  0.0232  0.0435
15935TIP3    H169220   3.092   0.220   5.115 -0.2604  1.7538  1.3511
15935TIP3    H269221   3.215   0.298   5.072  0.1425  0.5619  0.3020
15936TIP3   OH269222   1.777   0.714  16.696 -0.3743 -0.4037 -0.3351
15936TIP3    H169223   1.817   0.674  16.619  2.1476  2.1627 -0.4298
15936TIP3    H269224   1.784   0.648  16.764 -0.5467 -1.8473 -1.7022
15937TIP3   OH269225   6.759   2.266   6.380  0.1942  0.1373  0.0825
15937TIP3    H169226   6.827   2.310   6.329  0.2569  0.2541  0.2687
15937TIP3    H269227   6.748   2.320   6.458 -0.2477  0.2241 -0.0345
15938TIP3   OH269228   6.741   2.830  15.223  0.5998 -0.2736  0.4001
15938TIP3    H169229   6.793   2.903  15.190 -0.3891  0.6390  0.8437
15938TIP3    H269230   6.664   2.827  15.166 -0.3055  0.2662  1.5619
15939TIP3   OH269231   5.873   6.452  13.955  0.1254  0.5708 -0.3833
15939TIP3    H169232   5.826   6.375  13.988  0.8483 -0.7078 -2.1742
15939TIP3    H269233   5.805   6.507  13.916 -0.0996 -0.5334 -1.5990
15940TIP3   OH269234   4.625   6.697  12.932  0.5499 -0.3264 -0.1748
15940TIP3    H169235   4.643   6.634  12.862  1.0868 -0.3350 -0.0321
15940TIP3    H269236   4.544   6.667  12.972  1.7734 -1.9935  1.1080
15941TIP3   OH269237   2.929   2.871  16.499  0.3214 -0.0366 -0.1680
15941TIP3    H169238   2.912   2.955  16.542  0.8424  0.8112 -1.6026
15941TIP3    H269239   2.895   2.882  16.410 -1.9223 -2.2219  0.3871
15942TIP3   OH269240   1.462   0.891   4.555  0.2275  0.0074  0.5375
15942TIP3    H169241   1.446   0.910   4.462  0.6769 -0.0352  0.4475
15942TIP3    H269242   1.557   0.902   4.565  0.3121 -0.9305  0.7742
15943TIP3   OH269243   2.681   0.173  15.102 -0.0332 -0.7979 -0.1949
15943TIP3    H169244   2.662   0.250  15.155  0.0460 -0.7361 -0.2545
15943TIP3    H269245   2.777   0.173  15.093 -0.0394 -0.8542 -0.2670
15944TIP3   OH269246   1.319   3.688   4.604  0.4346  0.2752  0.1714
15944TIP3    H169247   1.314   3.770   4.556 -1.6860 -0.4132 -0.8618
15944TIP3    H269248   1.229   3.674   4.636  0.6028 -1.9808 -0.2891
15945TIP3   OH269249   4.145   1.807   1.102  0.1369  0.2158  0.7635
15945TIP3    H169250   4.125   1.865   1.029  1.2860 -0.5615 -0.1964
15945TIP3    H269251   4.093   1.840   1.175  0.1353  1.9238 -0.0013
15946TIP3   OH269252   6.456   0.216  10.962 -0.1851  0.3850 -0.4032
15946TIP3    H169253   6.365   0.244  10.949 -0.0538  0.9311 -0.1561
15946TIP3    H269254   6.506   0.298  10.966  0.0203  0.1692  1.7896
15947TIP3   OH269255   4.576   1.936  14.116  0.5276  0.1343  0.1625
15947TIP3    H169256   4.577   1.887  14.034 -0.4166  1.1265 -0.4620
15947TIP3    H269257   4.664   1.973  14.123  1.0286 -1.0875  0.2951
15948TIP3   OH269258   4.049   3.226  11.327 -0.2882  0.1964  0.0497
15948TIP3    H169259   4.015   3.300  11.376 -0.3353  0.6568 -0.6677
15948TIP3    H269260   3.978   3.161  11.332 -0.2691  0.2177  0.6310
15949TIP3   OH269261   3.200   3.511  11.474  0.0231 -0.6009 -0.5814
15949TIP3    H169262   3.105   3.499  11.468  0.0414  0.0307 -2.5774
15949TIP3    H269263   3.236   3.425  11.449 -0.0162 -0.3579 -1.4981
15950TIP3   OH269264   0.632   6.251   0.809  0.7029  0.3564 -0.0928
15950TIP3    H169265   0.571   6.181   0.831  1.2209 -0.4032 -1.0389
15950TIP3    H269266   0.689   6.213   0.743  0.0400  2.1357 -1.7331
15951TIP3   OH269267   1.528   5.013   1.550  0.7165 -0.2211  0.6775
15951TIP3    H169268   1.436   5.020   1.576  0.4228  0.9327 -0.6050
15951TIP3    H269269   1.574   5.072   1.609  0.3608  0.6754  0.0711
15952TIP3   OH269270   2.207   5.499   5.213  0.2934  0.2140  0.2218
15952TIP3    H169271   2.255   5.447   5.278  0.7674  0.1254 -0.1940
15952TIP3    H269272   2.148   5.553   5.264 -0.4753 -1.0065  0.6468
15953TIP3   OH269273   6.332   1.915   1.699 -0.4565  0.2880 -0.7619
15953TIP3    H169274   6.322   1.858   1.622  2.0831 -1.3610  0.0608
15953TIP3    H269275   6.300   1.862   1.772  1.1433  0.1749 -0.1074
15954TIP3   OH269276   1.408   2.589   0.269  0.1658 -0.6924  0.0318
15954TIP3    H169277   1.476   2.523   0.255  0.4383 -0.3815 -0.1288
15954TIP3    H269278   1.377   2.574   0.358  0.8470 -0.4744  0.3080
15955TIP3   OH269279   2.311   6.570  11.609 -0.2736 -0.0301  0.0663
15955TIP3    H169280   2.243   6.629  11.577 -0.0707  1.1614  1.7853
15955TIP3    H269281   2.391   6.599  11.566 -0.2135  0.8192  0.7482
15956TIP3   OH269282   0.572   4.365  13.114 -0.0041 -0.2110 -0.0082
15956TIP3    H169283   0.485   4.402  13.096 -0.7954 -1.6946  0.6864
15956TIP3    H269284   0.563   4.272  13.093  1.4670 -0.3461 -0.0695
15957TIP3   OH269285   6.397   5.280   2.427 -0.4566  0.3302  0.4934
15957TIP3    H169286   6.411   5.188   2.451 -1.4950 -0.1715 -0.7534
15957TIP3    H269287   6.302   5.289   2.423 -0.3723  1.6146  1.1303
15958TIP3   OH269288   5.172   3.642  15.634  0.1024  0.5790  0.3813
15958TIP3    H169289   5.144   3.715  15.689  0.3739  0.8781  0.1169
15958TIP3    H269290   5.110   3.642  15.561 -0.3314  0.1082  0.7402
15959TIP3   OH269291   2.985   6.655  15.885  0.1810  0.0816  0.5619
15959TIP3    H169292   3.026   6.583  15.837 -3.5323 -2.1473  0.5223
15959TIP3    H269293   2.935   6.702  15.818 -0.2680  0.5272  1.2026
15960TIP3   OH269294   1.222   2.739  11.579 -0.2703  0.4710  0.9798
15960TIP3    H169295   1.247   2.649  11.599  0.8610  0.8089  1.1929
15960TIP3    H269296   1.272   2.761  11.500 -2.3369  0.1603 -0.4264
15961TIP3   OH269297   2.564   5.155   2.025 -0.4045 -0.5373 -0.1537
15961TIP3    H169298   2.638   5.142   1.966 -0.2995  0.3150 -0.2210
15961TIP3    H269299   2.516   5.072   2.023  1.3352 -1.5914  1.0052
15962TIP3   OH269300   0.094   5.761   1.267  0.1686  0.5309 -0.7693
15962TIP3    H169301   0.029   5.803   1.324 -0.0612 -0.4622 -0.2888
15962TIP3    H269302   0.162   5.827   1.256 -0.8851  1.5731 -1.2330
15963TIP3   OH269303   6.083   0.031   3.546  0.5304 -0.0784  0.1915
15963TIP3    H169304   6.052   0.062   3.461 -0.3062 -1.8835 -0.1878
15963TIP3    H269305   6.072  -0.064   3.542  0.1032 -0.1585  2.4578
15964TIP3   OH269306   5.742   1.666  15.745 -0.0651  0.0926  0.2952
15964TIP3    H169307   5.724   1.751  15.705  1.3128  0.6781  0.8708
15964TIP3    H269308   5.802   1.623  15.684  0.4643  0.1742  0.7536
15965TIP3   OH269309   0.123   5.215   4.246  0.0537  0.2710 -0.2838
15965TIP3    H169310   0.171   5.153   4.190 -0.4334 -0.7685  0.4419
15965TIP3    H269311   0.049   5.243   4.193  0.6562  0.7733 -0.8724
15966TIP3   OH269312   0.645   6.109  16.148  0.0068  0.0050  0.7612
15966TIP3    H169313   0.642   6.178  16.082  1.1171 -0.9171 -0.2728
15966TIP3    H269314   0.553   6.086  16.162 -0.2574  0.3991 -0.2606
15967TIP3   OH269315   0.744   0.157  10.677 -0.2118  0.4420 -0.5588
15967TIP3    H169316   0.752   0.249  10.654  2.6555  0.3745  0.0374
15967TIP3    H269317   0.767   0.110  10.596  2.1174  0.2469  0.1999
15968TIP3   OH269318   1.943   0.584   4.101 -0.5401 -0.0071  0.1051
15968TIP3    H169319   1.895   0.621   4.027 -1.5635  0.6434  1.0770
15968TIP3    H269320   1.952   0.657   4.162  0.7152 -0.4129  0.4354
15969TIP3   OH269321   6.121   5.550  13.122 -0.2132  0.1234 -0.1210
15969TIP3    H169322   6.141   5.596  13.040  0.2895 -0.9846 -0.6233
15969TIP3    H269323   6.048   5.493  13.101 -0.1242 -0.1174  0.2238
15970TIP3   OH269324   4.182   4.347  12.136 -0.4452 -0.2523 -0.0086
15970TIP3    H169325   4.221   4.324  12.051 -1.3323 -0.8499 -0.2588
15970TIP3    H269326   4.190   4.267  12.188  2.6877  0.9481  1.4690
15971TIP3   OH269327   0.584   2.172  12.656  0.2160 -0.1374 -0.3502
15971TIP3    H169328   0.593   2.122  12.575 -1.1421 -0.7375 -0.1382
15971TIP3    H269329   0.515   2.127  12.705  1.1656  0.1082  1.2330
15972TIP3   OH269330   2.625   4.514   5.063 -0.3499  0.2832 -0.1245
15972TIP3    H169331   2.676   4.532   5.142 -0.3492  0.5216 -0.1774
15972TIP3    H269332   2.537   4.492   5.096  0.0906 -1.2888  0.0195
15973TIP3   OH269333   2.665   3.221  12.378  0.0622 -0.0053  0.1440
15973TIP3    H169334   2.590   3.201  12.433  0.5655 -0.9964  0.5023
15973TIP3    H269335   2.741   3.200  12.432  0.6090  1.5087 -0.0192
15974TIP3   OH269336   4.019   2.520  10.907 -0.0212  0.0020  0.4785
15974TIP3    H169337   4.107   2.494  10.879  0.1693  0.3725  0.7251
15974TIP3    H269338   3.987   2.575  10.835 -0.7198 -1.5199 -0.3862
15975TIP3   OH269339   0.923   2.190  13.237 -0.6088 -0.1707  0.2143
15975TIP3    H169340   0.930   2.262  13.173 -0.4642 -2.1462 -2.0560
15975TIP3    H269341   0.903   2.234  13.320  0.0286  2.5372 -0.9990
15976TIP3   OH269342   4.223   3.199  17.033 -0.0345  0.2669  0.2584
15976TIP3    H169343   4.227   3.176  17.126  1.4877 -0.9957 -0.1090
15976TIP3    H269344   4.313   3.223  17.011 -0.3940  0.5587 -0.8979
15977TIP3   OH269345   0.638   4.691   0.311  0.6688 -0.3862  0.0084
15977TIP3    H169346   0.712   4.752   0.317 -1.3524  2.1967 -0.2893
15977TIP3    H269347   0.648   4.649   0.226  1.5429  0.2682 -0.2263
15978TIP3   OH269348   6.375   6.552   3.321  0.0571 -0.8058 -0.3365
15978TIP3    H169349   6.329   6.468   3.310 -0.1189 -1.3332  3.6168
15978TIP3    H269350   6.468   6.529   3.314 -0.0167 -1.2032 -0.0540
15979TIP3   OH269351   2.236   5.868  14.672 -0.9967  0.6428 -0.5408
15979TIP3    H169352   2.162   5.858  14.731 -0.5989  0.1357 -0.1302
15979TIP3    H269353   2.283   5.944  14.705  0.9996 -1.4908  1.7150
15980TIP3   OH269354   4.591   5.185   0.251 -0.5245 -0.5905  0.6745
15980TIP3    H169355   4.545   5.103   0.267 -0.8831 -0.0818  2.3451
15980TIP3    H269356   4.529   5.238   0.202 -0.4214 -1.1786 -0.1055
15981TIP3   OH269357   3.049   3.400   2.818 -0.1203 -0.3233 -0.2504
15981TIP3    H169358   3.142   3.383   2.804 -0.0265 -1.4683  1.5799
15981TIP3    H269359   3.005   3.322   2.784 -0.3404 -0.1721 -0.3108
15982TIP3   OH269360   6.198   4.725   0.118  1.4605  0.2247 -0.8285
15982TIP3    H169361   6.190   4.631   0.135 -0.0114  0.4840 -0.0631
15982TIP3    H269362   6.232   4.761   0.200 -1.6481  0.8875  0.2091
15983TIP3   OH269363   2.685   2.935   1.611 -0.6289  0.3685 -0.2553
15983TIP3    H169364   2.670   2.986   1.690  1.9438 -2.3629  2.1236
15983TIP3    H269365   2.728   2.996   1.551  0.7004  1.5731  1.8388
15984TIP3   OH269366   2.657   2.163  16.098 -0.3239  0.0971 -0.4417
15984TIP3    H169367   2.642   2.234  16.035  1.6792  0.9347 -0.0226
15984TIP3    H269368   2.746   2.178  16.130 -1.6937  0.4649  3.5643
15985TIP3   OH269369   6.741   2.615  16.522  0.1337 -0.6388  0.7391
15985TIP3    H169370   6.791   2.671  16.581 -0.0315 -1.0798  1.3072
15985TIP3    H269371   6.673   2.672  16.486  0.3547 -0.3189  0.8257
15986TIP3   OH269372   0.541   0.998   3.492 -0.2290 -0.6275 -0.0262
15986TIP3    H169373   0.526   1.092   3.498 -0.8790 -0.7423  0.1635
15986TIP3    H269374   0.603   0.988   3.420  1.3673  0.1033  1.2030
15987TIP3   OH269375   2.436   1.672   3.283 -0.7361 -0.5497 -0.0894
15987TIP3    H169376   2.491   1.611   3.331 -1.2515 -1.6871 -0.9260
15987TIP3    H269377   2.360   1.686   3.340 -0.4007 -0.3275  0.3031
15988TIP3   OH269378   4.889   4.177  15.270  0.2053 -0.2068  0.2299
15988TIP3    H169379   4.963   4.186  15.211 -1.4256  0.1463 -1.8116
15988TIP3    H269380   4.829   4.116  15.227 -1.1248  0.2245  1.3849
15989TIP3   OH269381   2.470   5.389  15.456 -0.0948 -0.1469 -0.6599
15989TIP3    H169382   2.515   5.401  15.540 -0.5442  1.3959 -0.6237
15989TIP3    H269383   2.410   5.316  15.471 -0.0766  0.0343  0.3209
15990TIP3   OH269384   4.026   0.820   6.516 -0.1748  1.1003  0.5710
15990TIP3    H169385   4.109   0.840   6.559 -0.2488 -0.0857  1.2852
15990TIP3    H269386   4.045   0.743   6.462 -0.8435  0.7205  0.8731
15991TIP3   OH269387   6.366   2.355   0.321 -0.4545  0.1489 -0.1753
15991TIP3    H169388   6.413   2.323   0.243 -1.0058 -0.0509 -0.4230
15991TIP3    H269389   6.383   2.449   0.321 -0.2439  0.1131 -0.3963
15992TIP3   OH269390   5.801   2.938   4.900  0.2217  0.0740  0.3206
15992TIP3    H169391   5.779   2.853   4.936 -0.3917 -0.4173 -1.1671
15992TIP3    H269392   5.894   2.931   4.878  0.2552 -0.0865  0.5133
15993TIP3   OH269393   4.129   2.259   5.948  0.3891  0.0831 -0.4838
15993TIP3    H169394   4.103   2.328   6.009 -2.6730 -0.5482 -0.9577
15993TIP3    H269395   4.138   2.302   5.864 -3.9257 -0.3313 -1.3047
15994TIP3   OH269396   2.706   4.599  13.898  0.9451  0.3617  0.3723
15994TIP3    H169397   2.725   4.691  13.880  2.3804 -0.1745 -1.0133
15994TIP3    H269398   2.792   4.556  13.898  0.1607 -1.2658 -0.6995
15995TIP3   OH269399   3.518   6.504   1.774 -0.2317  0.6286  0.6232
15995TIP3    H169400   3.448   6.522   1.711  0.5368  1.2499 -0.0654
15995TIP3    H269401   3.564   6.588   1.784 -1.4660  1.0126  3.4230
15996TIP3   OH269402   0.393   4.957  12.351 -0.1282 -0.1352  0.0296
15996TIP3    H169403   0.331   4.951  12.424 -0.5334 -1.6490 -0.4351
15996TIP3    H269404   0.366   4.888  12.290  0.4280  0.8796 -1.3954
15997TIP3   OH269405   2.289   4.043   5.671 -0.0634  0.3110 -0.5149
15997TIP3    H169406   2.280   4.002   5.757  1.3097 -0.5712 -0.7744
15997TIP3    H269407   2.308   4.135   5.690 -0.5982  0.3039  0.0985
15998TIP3   OH269408   4.665   1.072   3.050 -0.0604  0.0754 -0.1952
15998TIP3    H169409   4.600   1.104   3.112  1.6283 -1.0177  2.2208
15998TIP3    H269410   4.630   0.989   3.017 -0.6229  0.2956 -0.1490
15999TIP3   OH269411   1.913   0.778   5.287  0.0294 -0.2000  0.3375
15999TIP3    H169412   1.835   0.726   5.307 -0.4588  0.8039  1.1157
15999TIP3    H269413   1.983   0.714   5.276 -1.2466 -1.2518 -2.1189
16000TIP3   OH269414   2.475   0.008   1.829  0.4659  0.4361 -0.3473
16000TIP3    H169415   2.490   0.102   1.839 -0.3607  0.3213  2.4463
16000TIP3    H269416   2.560  -0.027   1.804  0.9948  1.8199 -0.5592
16001TIP3   OH269417   3.296   1.182  12.910 -0.1472 -0.0906  0.1027
16001TIP3    H169418   3.293   1.099  12.863 -1.1241  0.2226 -0.4077
16001TIP3    H269419   3.216   1.182  12.964  0.4107  0.0299  0.9464
16002TIP3   OH269420   4.717   1.619  15.044 -0.8021  0.4312  0.4999
16002TIP3    H169421   4.646   1.618  14.980 -2.0801 -0.4174  1.9152
16002TIP3    H269422   4.675   1.640  15.127  0.4931 -0.8095  1.4858
16003TIP3   OH269423   0.589   3.964   2.248  0.0280  0.4332 -0.3898
16003TIP3    H169424   0.523   3.918   2.196  1.5452  0.1896 -2.1623
16003TIP3    H269425   0.584   3.923   2.334 -0.5843 -1.1498 -1.1466
16004TIP3   OH269426   4.274   2.107   1.419 -0.0390  0.0078 -0.4625
16004TIP3    H169427   4.264   2.017   1.388 -0.9515 -0.7468  1.9527
16004TIP3    H269428   4.184   2.136   1.436  0.4339  0.4636  1.2710
16005TIP3   OH269429   3.135   0.277   3.580 -0.9179 -0.7677 -0.2543
16005TIP3    H169430   3.094   0.236   3.504 -2.5681 -0.0490  0.2250
16005TIP3    H269431   3.144   0.369   3.555 -0.5703 -0.7217  0.0448
16006TIP3   OH269432   0.999   4.406  12.839  0.6233 -0.1989 -0.4873
16006TIP3    H169433   0.990   4.469  12.768 -1.6579 -0.4292 -0.4344
16006TIP3    H269434   1.043   4.454  12.908  0.4174  0.8393 -1.0604
16007TIP3   OH269435   1.528   0.965  11.350  0.1449 -0.2599  0.5184
16007TIP3    H169436   1.525   1.060  11.342  0.4560 -0.2414  0.5950
16007TIP3    H269437   1.438   0.939  11.366  0.2077  0.1106  1.4887
16008TIP3   OH269438   5.812   6.585  12.919  0.4532  0.4693  0.0738
16008TIP3    H169439   5.860   6.626  12.847 -0.5597  1.7628  0.1155
16008TIP3    H269440   5.739   6.539  12.877 -0.4506  1.6763  0.3005
16009TIP3   OH269441   1.282   5.131   0.779 -0.2330  0.4996 -0.2251
16009TIP3    H169442   1.243   5.084   0.853  0.7170 -0.5773 -0.3970
16009TIP3    H269443   1.282   5.067   0.708  0.1952  1.0638 -0.7319
16010TIP3   OH269444   3.619   4.970  11.962  0.4281 -0.6786  0.1447
16010TIP3    H169445   3.633   4.878  11.986 -0.6080 -0.7304  0.5600
16010TIP3    H269446   3.687   5.017  12.009 -0.0595 -1.0557  1.2458
16011TIP3   OH269447   2.347   3.620   0.795  0.8305 -0.1873 -0.3464
16011TIP3    H169448   2.390   3.609   0.710  0.1273 -2.2442 -0.4720
16011TIP3    H269449   2.396   3.563   0.854 -1.5992 -2.5199 -0.4758
16012TIP3   OH269450   6.627   1.946  11.651 -0.3781 -0.1491  0.4879
16012TIP3    H169451   6.709   1.936  11.603  0.0483  2.5595  0.5659
16012TIP3    H269452   6.609   1.859  11.686  0.8605 -1.4899 -2.0579
16013TIP3   OH269453   6.395   5.476  15.900  0.0376 -0.0259 -0.0743
16013TIP3    H169454   6.489   5.457  15.898 -0.3750 -2.2294 -0.5344
16013TIP3    H269455   6.383   5.548  15.838  1.4271  0.2818  0.0080
16014TIP3   OH269456   1.225   1.597  14.614 -0.5327 -0.5120 -0.1238
16014TIP3    H169457   1.271   1.673  14.650 -1.1727  0.6366 -1.7062
16014TIP3    H269458   1.290   1.554  14.559 -0.6052 -0.3141 -0.3618
16015TIP3   OH269459   1.046   4.263  12.416 -0.1015 -0.1270 -0.0726
16015TIP3    H169460   1.056   4.198  12.486 -0.0239 -0.0122  0.0226
16015TIP3    H269461   0.964   4.308  12.436 -0.7348 -0.9413 -0.7480
16016TIP3   OH269462   1.009   0.472   1.833  0.0966  0.3388 -0.2831
16016TIP3    H169463   0.967   0.522   1.903 -0.6282 -0.4590 -0.1370
16016TIP3    H269464   1.074   0.417   1.879  1.3112  1.5639 -0.5070
16017TIP3   OH269465   3.484   0.570   2.607  0.3233  0.3453  0.5808
16017TIP3    H169466   3.501   0.612   2.691  0.2578  1.0194  0.2583
16017TIP3    H269467   3.488   0.641   2.543 -2.5406  0.3555  0.3475
16018TIP3   OH269468   5.814   0.010  11.944  0.1933 -0.1327 -0.0150
16018TIP3    H169469   5.842   0.093  11.982 -2.4337  1.2187 -0.8376
16018TIP3    H269470   5.754  -0.028  12.009  1.8109 -1.6923  0.6081
16019TIP3   OH269471   5.648   6.466   4.637 -0.1130  0.0085  0.0739
16019TIP3    H169472   5.680   6.482   4.726  0.4468 -0.4984 -0.0310
16019TIP3    H269473   5.699   6.391   4.607 -0.0932  0.3584 -0.7819
16020TIP3   OH269474   5.974   5.672  14.384 -0.2919 -0.6708 -0.3836
16020TIP3    H169475   6.055   5.723  14.394  0.2334 -1.4486 -0.6704
16020TIP3    H269476   5.993   5.610  14.314 -0.6975 -1.7424  0.4589
16021TIP3   OH269477   6.131   5.994   3.329  0.2007  0.2068  0.0267
16021TIP3    H169478   6.181   6.002   3.247 -0.5419 -0.2707 -0.4810
16021TIP3    H269479   6.102   5.903   3.329  1.0087 -0.0559  1.3042
16022TIP3   OH269480   3.186   1.968   0.386  0.4422 -0.1894 -0.4038
16022TIP3    H169481   3.270   2.013   0.394 -0.0155  0.7226 -0.6370
16022TIP3    H269482   3.185   1.934   0.297  1.0047 -1.1180 -0.0671
16023TIP3   OH269483   3.794   0.033   3.149 -0.1861  0.2282  0.0361
16023TIP3    H169484   3.755   0.044   3.235 -1.2127 -2.3377 -0.0442
16023TIP3    H269485   3.761  -0.052   3.119 -0.8150  1.6082 -3.3809
16024TIP3   OH269486   2.739   3.854   0.751 -0.0086  0.5609 -0.7115
16024TIP3    H169487   2.787   3.785   0.796 -0.5552  0.7856  0.2436
16024TIP3    H269488   2.802   3.925   0.741  0.1607  0.4499 -0.4404
16025TIP3   OH269489   4.670   1.849   2.313  0.0139 -0.0036  0.0067
16025TIP3    H169490   4.680   1.758   2.286 -0.6949  0.1319 -0.7356
16025TIP3    H269491   4.759   1.885   2.310  0.1779 -0.4467 -0.5492
16026TIP3   OH269492   3.157   4.623   4.695  0.1689  0.4126  0.1478
16026TIP3    H169493   3.130   4.532   4.699 -3.4715  1.4757  1.8015
16026TIP3    H269494   3.197   4.633   4.608 -1.5733 -2.1626 -1.0009
16027TIP3   OH269495   1.400   1.899   3.075 -0.7798 -0.0978  0.0387
16027TIP3    H169496   1.453   1.823   3.050 -2.4882 -1.1670 -0.3900
16027TIP3    H269497   1.407   1.903   3.171 -1.4436 -1.3565  0.1416
16028TIP3   OH269498   6.206   1.490   0.687  0.2797 -0.2005  0.5999
16028TIP3    H169499   6.230   1.450   0.771 -0.1945 -0.9445  0.3850
16028TIP3    H269500   6.283   1.476   0.631  0.4213 -0.1051  0.7703
16029TIP3   OH269501   3.576   2.722  15.598  0.5166  0.1293  0.0684
16029TIP3    H169502   3.660   2.759  15.626  0.5967  0.5318 -0.7048
16029TIP3    H269503   3.514   2.795  15.602 -0.4160 -0.7413  3.1798
16030TIP3   OH269504   4.636   2.847  17.106 -0.1911 -0.4513 -0.2953
16030TIP3    H169505   4.561   2.871  17.161 -1.3633 -1.5566 -1.4010
16030TIP3    H269506   4.707   2.830  17.168 -0.4359  1.9688  0.7075
16031TIP3   OH269507   3.444   2.453  13.674  0.2747  0.5083  0.3868
16031TIP3    H169508   3.517   2.508  13.646 -0.3081  2.2845  2.2581
16031TIP3    H269509   3.413   2.494  13.755 -1.1278 -1.7253  1.0165
16032TIP3   OH269510   0.849   6.001   4.249 -0.6451 -0.1509 -0.1539
16032TIP3    H169511   0.840   5.975   4.158 -0.4506  0.9534 -0.4966
16032TIP3    H269512   0.848   5.919   4.298  0.9778 -0.8712 -1.2850
16033TIP3   OH269513   0.974   2.805  15.231  0.2266 -0.3330  0.1997
16033TIP3    H169514   0.952   2.720  15.269 -2.4189 -0.4615 -1.4798
16033TIP3    H269515   0.952   2.796  15.138 -0.7484  2.3599  0.1155
16034TIP3   OH269516   1.500   0.980  14.413  0.1937 -0.4213  0.1681
16034TIP3    H169517   1.523   1.023  14.496  3.2979  0.7332 -1.2214
16034TIP3    H269518   1.423   1.027  14.383  0.4767  0.7587  1.2305
16035TIP3   OH269519   3.232   6.388  11.892  0.3880 -0.1748 -0.0735
16035TIP3    H169520   3.312   6.360  11.848  1.6611  1.0142  1.3878
16035TIP3    H269521   3.165   6.326  11.864  2.2620 -2.3732  0.1708
16036TIP3   OH269522   5.080   1.147  17.185  0.0990  0.4518  0.0410
16036TIP3    H169523   5.173   1.141  17.210  0.3546  0.2138 -0.9350
16036TIP3    H269524   5.067   1.073  17.126 -0.2651  1.4783 -1.1883
16037TIP3   OH269525   1.129   4.717  16.242 -0.1778 -0.2389  0.6110
16037TIP3    H169526   1.078   4.717  16.161  0.7965  0.4587 -0.0127
16037TIP3    H269527   1.096   4.792  16.292  3.4181  3.1811 -1.8650
16038TIP3   OH269528   6.180   3.466   2.196  0.4206 -0.5403  0.3357
16038TIP3    H169529   6.109   3.427   2.145 -0.4451  2.8839 -1.2598
16038TIP3    H269530   6.148   3.467   2.286 -1.4978  0.6372 -0.3095
16039TIP3   OH269531   2.961   1.979  16.872 -0.3148 -0.0757 -0.0854
16039TIP3    H169532   2.889   2.037  16.849  0.2679  0.3549 -0.8290
16039TIP3    H269533   2.956   1.971  16.967 -1.3684 -0.0840 -0.1358
16040TIP3   OH269534   3.821   4.783  16.073  0.1141  0.1943  0.1653
16040TIP3    H169535   3.911   4.782  16.039  0.0425 -1.2979  0.0133
16040TIP3    H269536   3.784   4.863  16.036  0.5667 -0.5202 -1.9328
16041TIP3   OH269537   2.518   1.226   3.594 -0.5837 -0.5036  0.3972
16041TIP3    H169538   2.570   1.212   3.673  1.2046 -0.2648 -0.7100
16041TIP3    H269539   2.534   1.317   3.570  0.1854 -1.0024 -1.1094
16042TIP3   OH269540   3.860   4.747  11.147  0.6993  0.1135  0.2069
16042TIP3    H169541   3.816   4.812  11.203  0.5517 -2.9407  3.8289
16042TIP3    H269542   3.820   4.759  11.061 -1.2313  2.9744  1.4081
16043TIP3   OH269543   3.472   4.083  17.187  0.0040 -0.0139  0.8204
16043TIP3    H169544   3.542   4.061  17.125  0.8972 -1.8548  2.4268
16043TIP3    H269545   3.479   4.177  17.198 -0.9081  0.5662 -2.7135
16044TIP3   OH269546   4.422   5.560   4.115  0.1292  0.5312 -0.3435
16044TIP3    H169547   4.355   5.626   4.101  1.0475  1.6292  0.3346
16044TIP3    H269548   4.389   5.482   4.070 -2.8729  0.2222  2.1840
16045TIP3   OH269549   1.581   3.575   2.523  0.5753 -0.2925  0.0144
16045TIP3    H169550   1.541   3.643   2.470  1.4504 -0.4703 -0.9044
16045TIP3    H269551   1.526   3.568   2.600 -0.7587 -0.0590 -0.9014
16046TIP3   OH269552   6.502   3.076  16.498  0.4907  0.2453  0.4544
16046TIP3    H169553   6.451   3.149  16.463  0.0316  0.3386  1.3118
16046TIP3    H269554   6.551   3.114  16.571  1.7125  0.1336 -0.3060
16047TIP3   OH269555   4.900   5.812  17.007 -0.2585 -0.0752 -0.3412
16047TIP3    H169556   4.903   5.726  17.050 -0.7951 -0.2090 -0.5729
16047TIP3    H269557   4.965   5.806  16.937  0.2704 -0.0229  0.1408
16048TIP3   OH269558   4.805   5.712  13.989  0.5310 -0.0387  0.3491
16048TIP3    H169559   4.834   5.643  14.048 -2.2379  0.3530  2.2811
16048TIP3    H269560   4.718   5.685  13.961  0.4705  1.4035 -0.9194
16049TIP3   OH269561   2.097   4.162   2.949  0.1614  0.2212 -0.2850
16049TIP3    H169562   2.170   4.196   3.001 -2.3658 -0.6003  4.0425
16049TIP3    H269563   2.132   4.084   2.906  2.1510  0.4856  0.7879
16050TIP3   OH269564   2.599   5.908   1.864 -0.0928  0.2523  0.1436
16050TIP3    H169565   2.516   5.951   1.844 -0.7702 -0.7951  0.6375
16050TIP3    H269566   2.592   5.885   1.957  0.0894 -1.2719 -0.2111
16051TIP3   OH269567   0.261   3.343   0.794  0.3120  0.2604  0.3558
16051TIP3    H169568   0.275   3.316   0.885  1.2879 -0.2129  0.0713
16051TIP3    H269569   0.300   3.273   0.741 -0.0970  0.6144 -0.4220
16052TIP3   OH269570   0.549   5.574   1.629  0.6488  0.1835  0.7567
16052TIP3    H169571   0.474   5.628   1.653  0.0605 -0.8723  1.3469
16052TIP3    H269572   0.510   5.490   1.604  1.5584 -0.0138 -0.0224
16053TIP3   OH269573   4.730   5.746  16.114 -0.0568 -0.2843  0.2469
16053TIP3    H169574   4.803   5.684  16.118  0.2434 -0.0348 -1.2873
16053TIP3    H269575   4.771   5.830  16.096 -0.6198  0.0838  0.6605
16054TIP3   OH269576   5.820   4.881   0.769  0.1465 -0.4160 -0.4914
16054TIP3    H169577   5.914   4.886   0.751  0.0288 -1.1091 -1.2914
16054TIP3    H269578   5.779   4.917   0.691 -0.2385  0.6740  0.2009
16055TIP3   OH269579   0.651   2.013  14.948 -0.4749  0.3251 -0.1069
16055TIP3    H169580   0.637   2.108  14.950 -1.8217  0.1253  1.1275
16055TIP3    H269581   0.739   2.001  14.982 -0.2720  1.1380 -0.3305
16056TIP3   OH269582   4.622   0.167  15.754 -0.0321 -0.2391 -0.1057
16056TIP3    H169583   4.669   0.114  15.819  0.7853  0.4680 -0.1133
16056TIP3    H269584   4.655   0.137  15.670  0.0276 -0.0956 -0.1334
16057TIP3   OH269585   1.683   0.303   2.449 -0.1778 -0.1983  0.9668
16057TIP3    H169586   1.657   0.221   2.408  0.2338  0.2277 -0.1813
16057TIP3    H269587   1.631   0.308   2.529 -1.6926 -0.6101  0.0286
16058TIP3   OH269588   6.432   4.480   5.375 -0.3273 -0.1814 -0.0772
16058TIP3    H169589   6.519   4.516   5.358 -0.1410 -0.1082  1.0028
16058TIP3    H269590   6.420   4.414   5.307 -0.3137  1.3015 -1.5358
16059TIP3   OH269591   5.933   6.188  14.468  0.1408  0.1628  0.2021
16059TIP3    H169592   5.861   6.211  14.409  1.7179 -1.2205 -2.3292
16059TIP3    H269593   5.923   6.094  14.482  0.6414  0.2228  0.9707
16060TIP3   OH269594   4.670   5.936   3.142  0.2689  0.6843 -0.5045
16060TIP3    H169595   4.659   5.860   3.085 -1.0400  0.5053 -0.0330
16060TIP3    H269596   4.708   5.900   3.223 -1.3360  0.3488  0.1171
16061TIP3   OH269597   3.502   1.355  15.042  0.1910  0.0731 -0.1735
16061TIP3    H169598   3.556   1.428  15.013  1.1555 -0.9641 -1.0320
16061TIP3    H269599   3.490   1.301  14.964  0.6664 -1.4077  0.7490
16062TIP3   OH269600   0.097   4.401  15.991  0.3683  0.2904  0.0315
16062TIP3    H169601   0.174   4.437  15.949 -0.5558  0.2503 -1.7520
16062TIP3    H269602   0.063   4.472  16.045  1.3298  0.4795  0.3928
16063TIP3   OH269603   2.855   1.623  10.517 -0.2005  0.1872  0.1948
16063TIP3    H169604   2.909   1.556  10.474 -0.9266 -1.1106  1.2942
16063TIP3    H269605   2.833   1.684  10.447  0.0832 -0.9715 -0.9248
16064TIP3   OH269606   6.696   2.467  14.654  0.1710  0.0150  0.3047
16064TIP3    H169607   6.678   2.540  14.712  1.1133  1.3380 -1.0371
16064TIP3    H269608   6.659   2.493  14.570  1.8098 -0.4009 -0.5647
16065TIP3   OH269609   0.446   2.846  14.310  0.1337 -0.1685 -0.2931
16065TIP3    H169610   0.363   2.872  14.350  0.0585 -1.4738  0.4186
16065TIP3    H269611   0.512   2.894  14.359 -0.0819 -0.5119  0.3545
16066TIP3   OH269612   2.493   3.415   2.272  0.2024 -0.2788  0.2737
16066TIP3    H169613   2.492   3.321   2.290  0.1460 -0.1587  0.9102
16066TIP3    H269614   2.401   3.441   2.270  0.2486  0.0088  1.4386
16067TIP3   OH269615   0.622   5.015   2.200 -0.4065 -0.0246 -0.3545
16067TIP3    H169616   0.573   5.059   2.270 -0.9139  1.8152 -1.8373
16067TIP3    H269617   0.567   5.024   2.123  0.8238 -0.7449 -1.3300
16068TIP3   OH269618   6.371   0.633  11.007 -0.1340 -0.0464  0.0585
16068TIP3    H169619   6.444   0.624  11.068 -0.0808 -0.6792 -0.0948
16068TIP3    H269620   6.390   0.570  10.938  0.1961  1.1821 -0.9978
16069TIP3   OH269621   3.392   4.679   0.087 -0.1819  0.1514  0.1720
16069TIP3    H169622   3.338   4.756   0.106  1.3092  1.3461 -0.3750
16069TIP3    H269623   3.328   4.607   0.080 -1.4594  1.0490  2.0566
16070TIP3   OH269624   5.057   6.338   5.839  0.6316 -0.2594 -0.1437
16070TIP3    H169625   4.964   6.334   5.862  0.6610  1.7143  0.3390
16070TIP3    H269626   5.102   6.353   5.922  1.0538  2.6642 -0.8456
16071TIP3   OH269627   0.037   0.001  12.388 -0.0262 -0.3458 -0.1903
16071TIP3    H169628   0.132  -0.006  12.376 -0.2468 -0.6023 -1.9948
16071TIP3    H269629   0.008  -0.088  12.407 -0.1065 -0.5619 -1.3070
16072TIP3   OH269630   3.184   1.439  11.348  0.7619 -0.5992 -0.2514
16072TIP3    H169631   3.192   1.364  11.289 -1.8876 -1.8571  0.8760
16072TIP3    H269632   3.138   1.505  11.296 -1.1553 -1.5346  0.2096
16073TIP3   OH269633   6.746   2.748   2.086  0.2052 -0.0878 -0.2372
16073TIP3    H169634   6.791   2.769   2.004 -0.8130  0.4302 -0.6731
16073TIP3    H269635   6.797   2.791   2.153  0.4385  0.3862 -0.7183
16074TIP3   OH269636   3.284   1.303   4.203 -0.4446  0.2943 -0.9607
16074TIP3    H169637   3.310   1.376   4.146  1.3615 -0.9946 -1.8650
16074TIP3    H269638   3.189   1.299   4.196 -0.5175  2.2844 -1.2374
16075TIP3   OH269639   5.701   4.259  16.434 -0.2050  0.7674  0.1528
16075TIP3    H169640   5.650   4.241  16.513  1.6337  0.9034  1.3992
16075TIP3    H269641   5.702   4.177  16.386 -1.0273  0.5898  0.4235
16076TIP3   OH269642   6.221   2.404   1.299  0.0337  0.3345 -0.2222
16076TIP3    H169643   6.248   2.349   1.226 -3.2746 -3.7102  1.3930
16076TIP3    H269644   6.259   2.362   1.377 -2.1663  0.5099  1.0001
16077TIP3   OH269645   6.641   5.699   0.682 -0.4880 -0.1347  0.1861
16077TIP3    H169646   6.605   5.758   0.748 -0.2543  1.3512 -0.9761
16077TIP3    H269647   6.723   5.667   0.720 -1.3661 -0.9094  1.4597
16078TIP3   OH269648   3.649   0.547  14.189 -0.1911  0.3603  0.0544
16078TIP3    H169649   3.622   0.460  14.217 -0.4275 -0.3297 -2.2038
16078TIP3    H269650   3.611   0.606  14.254 -1.4413 -1.0924  0.6717
16079TIP3   OH269651   5.785   0.253   3.551  0.2687  0.5253 -0.2150
16079TIP3    H169652   5.773   0.316   3.479  1.3294  1.7191  0.6318
16079TIP3    H269653   5.709   0.195   3.545 -0.6531  1.7904 -1.1120
16080TIP3   OH269654   6.494   3.213  12.889  0.1334 -0.0112 -0.2482
16080TIP3    H169655   6.572   3.165  12.859  2.0313  1.4479  2.2086
16080TIP3    H269656   6.436   3.145  12.923  1.4370 -0.8690  0.2970
16081TIP3   OH269657   2.170   4.491   2.755 -0.7159 -0.3314  0.4936
16081TIP3    H169658   2.199   4.482   2.846 -1.7795 -0.6258  0.8023
16081TIP3    H269659   2.176   4.585   2.737  0.9652 -0.4462  0.3742
16082TIP3   OH269660   5.133   6.157   1.706 -0.7374  0.6259  0.0222
16082TIP3    H169661   5.170   6.158   1.795 -0.2168 -0.2569 -0.1823
16082TIP3    H269662   5.131   6.250   1.680  0.8527  0.7342  0.2395
16083TIP3   OH269663   1.754   2.015   1.829 -0.1465  0.2683 -0.1583
16083TIP3    H169664   1.826   1.981   1.776  0.7141  1.2763  0.3641
16083TIP3    H269665   1.790   2.024   1.917 -0.8476  0.9908  0.0630
16084TIP3   OH269666   5.373   1.174   1.458 -0.6414 -0.2205  0.5445
16084TIP3    H169667   5.460   1.178   1.419 -0.8886 -3.0763 -0.4507
16084TIP3    H269668   5.381   1.109   1.528 -1.9024 -0.3559  0.5804
16085TIP3   OH269669   0.514   5.201  16.345 -0.0294 -0.1013  0.5122
16085TIP3    H169670   0.543   5.292  16.352  1.5297 -0.5093 -0.3781
16085TIP3    H269671   0.579   5.152  16.396 -0.4298 -0.7995  0.3523
16086TIP3   OH269672   2.843   6.401   4.971 -0.2229 -0.2039  0.3368
16086TIP3    H169673   2.933   6.381   4.995 -0.3657  0.3456  1.3289
16086TIP3    H269674   2.850   6.437   4.882  0.5697  0.1701  0.5444
16087TIP3   OH269675   0.667   0.427  14.961 -0.0176  0.3529 -0.1258
16087TIP3    H169676   0.734   0.365  14.987  0.9619  0.6174 -1.9396
16087TIP3    H269677   0.713   0.510  14.949 -0.5944  0.4696 -1.6765
16088TIP3   OH269678   6.655   4.246  16.342 -0.4533  0.5001 -0.3326
16088TIP3    H169679   6.653   4.275  16.251 -0.3786  0.4102 -0.3608
16088TIP3    H269680   6.652   4.151  16.337  1.7387  0.3963 -0.3190
16089TIP3   OH269681   5.109   4.416   2.437 -0.4335 -0.6571 -0.5270
16089TIP3    H169682   5.063   4.430   2.519 -1.6495 -3.2581 -0.7260
16089TIP3    H269683   5.198   4.391   2.463 -0.3051  0.2435 -0.0733
16090TIP3   OH269684   5.288   1.405  13.128 -0.0555 -0.0078  0.5029
16090TIP3    H169685   5.251   1.359  13.053  1.4239 -0.9807  0.3634
16090TIP3    H269686   5.263   1.351  13.204  1.0484 -0.6534  0.4107
16091TIP3   OH269687   3.189   3.716   2.000 -0.4074 -0.2457  0.0337
16091TIP3    H169688   3.100   3.753   1.993  0.3216  1.1765 -2.5013
16091TIP3    H269689   3.226   3.728   1.913  2.6147 -0.0120  1.3066
16092TIP3   OH269690   6.476   0.893  13.114  0.1003  0.6063  0.0975
16092TIP3    H169691   6.429   0.959  13.164  0.7332  0.8370  0.3971
16092TIP3    H269692   6.482   0.818  13.173  0.6668  0.8066  0.3063
16093TIP3   OH269693   4.441   0.051   5.515 -0.0187 -0.1305  0.1710
16093TIP3    H169694   4.430   0.062   5.610  0.0023  1.5484 -0.0204
16093TIP3    H269695   4.368   0.100   5.477 -0.3641 -1.2894 -0.6737
16094TIP3   OH269696   4.061   1.835  12.816 -0.2025 -0.1129  0.1519
16094TIP3    H169697   4.017   1.920  12.814 -0.9430 -0.4488  1.3766
16094TIP3    H269698   4.154   1.855  12.807 -0.2867  0.9183  1.5361
16095TIP3   OH269699   5.432   0.915   1.604  0.5292  0.5699 -0.4240
16095TIP3    H169700   5.389   0.844   1.652  1.4155  0.7881  0.7156
16095TIP3    H269701   5.503   0.943   1.661 -0.3027  2.9206 -0.5018
16096TIP3   OH269702   0.813   3.238  12.782 -0.4818  0.2533  0.5716
16096TIP3    H169703   0.851   3.325  12.772 -0.4442 -0.0767 -2.9428
16096TIP3    H269704   0.719   3.253  12.787 -0.4226  0.5421  0.8235
16097TIP3   OH269705   1.103   2.976  11.619  0.1042 -0.0812 -0.4314
16097TIP3    H169706   1.055   3.001  11.540  0.8279 -2.2239 -1.6072
16097TIP3    H269707   1.136   2.888  11.599  0.3819 -0.6034  2.2354
16098TIP3   OH269708   1.663   4.584  14.839  0.0400  0.1794 -0.1373
16098TIP3    H169709   1.630   4.673  14.848  1.2223  0.7771 -1.5171
16098TIP3    H269710   1.589   4.535  14.804 -0.5990  0.6154  0.5782
16099TIP3   OH269711   1.759   1.530   1.865 -0.0965  0.2238  0.5193
16099TIP3    H169712   1.837   1.583   1.882 -0.4124  1.1968 -1.0164
16099TIP3    H269713   1.688   1.575   1.911 -0.2148  0.7146 -0.1360
16100TIP3   OH269714   5.987   6.350   5.585 -0.1481  0.2538  0.6852
16100TIP3    H169715   5.933   6.400   5.645  0.8948  1.8738  0.3210
16100TIP3    H269716   6.072   6.345   5.628  0.6619  1.5853 -0.6913
16101TIP3   OH269717   1.643   3.342  12.483 -0.5016  0.0095 -0.4199
16101TIP3    H169718   1.623   3.391  12.563  1.2092  0.6286 -0.3500
16101TIP3    H269719   1.728   3.303  12.500 -0.9874 -1.4460 -1.2212
16102TIP3   OH269720   5.171   6.752   2.455 -0.0107 -0.4939 -0.3243
16102TIP3    H169721   5.262   6.779   2.454 -0.3479  0.6210 -0.9541
16102TIP3    H269722   5.122   6.827   2.420 -0.9536 -1.8969 -2.1155
16103TIP3   OH269723   2.211   3.168  14.896 -0.5633  0.5044  0.0923
16103TIP3    H169724   2.216   3.098  14.831 -1.0679 -0.2016  0.8004
16103TIP3    H269725   2.146   3.229  14.860 -0.0113  0.6877 -0.5972
16104TIP3   OH269726   2.204   6.779  13.830 -0.0588  0.0400 -0.7604
16104TIP3    H169727   2.265   6.726  13.883 -0.6600  1.2419  1.1799
16104TIP3    H269728   2.175   6.719  13.761  0.3333 -1.7661  0.5876
16105TIP3   OH269729   5.184   2.214   1.307 -0.1184 -0.1664  0.3377
16105TIP3    H169730   5.173   2.289   1.248 -0.9590 -0.4295  0.1658
16105TIP3    H269731   5.175   2.251   1.395 -2.4094 -0.3852  0.2037
16106TIP3   OH269732   1.374   5.674  13.706 -0.2653  0.1596  0.3983
16106TIP3    H169733   1.424   5.642  13.630 -0.9076  2.7474 -1.1724
16106TIP3    H269734   1.384   5.605  13.771  3.6758 -0.3526 -0.5802
16107TIP3   OH269735   2.619   3.293  17.026 -0.0738 -0.0115 -0.1839
16107TIP3    H169736   2.649   3.384  17.029 -1.3517  0.4077  0.2219
16107TIP3    H269737   2.562   3.290  16.950 -1.9313  0.1393  1.1685
16108TIP3   OH269738   4.715   1.753  14.580 -0.5505 -0.1691 -0.0542
16108TIP3    H169739   4.766   1.718  14.507 -2.2700 -1.1635 -0.8019
16108TIP3    H269740   4.625   1.727  14.561 -1.4076  1.8836  1.0537
16109TIP3   OH269741   3.036   5.996   5.016 -0.0365  0.4411 -0.4920
16109TIP3    H169742   2.964   6.034   4.967 -2.0395 -1.2197  1.0793
16109TIP3    H269743   3.113   6.047   4.990 -1.9478  2.9486 -1.3462
16110TIP3   OH269744   0.384   4.491   5.846  0.6545 -0.3998 -0.4958
16110TIP3    H169745   0.343   4.519   5.928  1.1087 -0.5865 -0.1984
16110TIP3    H269746   0.471   4.531   5.849  0.6555 -0.3756 -0.9053
16111TIP3   OH269747   2.215   2.495   0.834  0.1308  0.4258 -0.1581
16111TIP3    H169748   2.153   2.547   0.783  0.7112  0.5633 -0.7292
16111TIP3    H269749   2.286   2.556   0.855  0.8674 -0.1519 -0.9265
16112TIP3   OH269750   3.457   0.881  14.965 -0.5081  0.2446  0.1967
16112TIP3    H169751   3.429   0.969  14.992 -1.2581  0.0915 -0.0717
16112TIP3    H269752   3.552   0.888  14.957 -0.6622  1.3052 -0.8474
16113TIP3   OH269753   6.208   3.711   4.197 -0.0301 -0.4469 -0.8575
16113TIP3    H169754   6.161   3.637   4.158  1.1439 -0.8767 -1.4823
16113TIP3    H269755   6.168   3.788   4.157 -0.9046 -0.7600 -0.5960
16114TIP3   OH269756   2.311   1.572   2.669 -0.3654  0.2974  0.2017
16114TIP3    H169757   2.345   1.487   2.640 -0.5635  1.2399 -2.9782
16114TIP3    H269758   2.379   1.608   2.725  0.4533 -1.2037  0.1917
16115TIP3   OH269759   1.967   2.107  11.444  0.0695  0.0977 -0.4049
16115TIP3    H169760   1.907   2.044  11.404 -1.4877  1.3156 -0.0323
16115TIP3    H269761   1.998   2.065  11.523 -0.0103 -0.6910 -0.7909
16116TIP3   OH269762   2.485   0.688  16.629  0.0439 -0.3423  0.5352
16116TIP3    H169763   2.532   0.636  16.694 -0.3516 -2.1679 -0.6251
16116TIP3    H269764   2.522   0.662  16.545 -0.7162  0.6709 -0.1393
16117TIP3   OH269765   5.152   4.475  15.098  0.0414  0.1628 -0.1731
16117TIP3    H169766   5.158   4.455  15.191  0.1162  0.4812 -0.1111
16117TIP3    H269767   5.068   4.436  15.071 -0.1953  0.4684  0.1245
16118TIP3   OH269768   0.861   2.352  14.463  0.5459  0.1845 -0.1056
16118TIP3    H169769   0.858   2.299  14.543  2.7657  0.3858  0.1376
16118TIP3    H269770   0.877   2.289  14.394 -1.3756  0.0110 -0.4380
16119TIP3   OH269771   4.682   5.830   1.888 -0.1267 -0.2689 -0.2287
16119TIP3    H169772   4.703   5.864   1.975 -1.8646  0.6800 -0.1678
16119TIP3    H269773   4.767   5.822   1.845  0.8574 -1.7738  1.9196
16120TIP3   OH269774   0.175   4.563   4.934  0.0595 -0.7492 -0.2365
16120TIP3    H169775   0.254   4.548   4.987 -0.8680  0.2148  1.4622
16120TIP3    H269776   0.203   4.624   4.866  0.6651 -0.0410  0.6444
16121TIP3   OH269777   3.684   4.125  14.699 -0.2530 -0.4125  0.1671
16121TIP3    H169778   3.698   4.031  14.707 -0.3093 -0.4066  0.3266
16121TIP3    H269779   3.589   4.136  14.697 -0.2549 -0.3038  0.7977
16122TIP3   OH269780   0.416   6.747  15.082  0.2074  0.0086 -0.4446
16122TIP3    H169781   0.431   6.816  15.146  0.7103 -0.5099  0.0052
16122TIP3    H269782   0.332   6.709  15.106  0.0309  0.3303 -0.5636
16123TIP3   OH269783   4.584   2.834   3.457 -0.2630  0.3457  0.1868
16123TIP3    H169784   4.566   2.740   3.455 -2.9214  0.7945  1.0930
16123TIP3    H269785   4.590   2.860   3.365  0.8102 -0.7464 -0.0656
16124TIP3   OH269786   0.816   3.064  11.216  0.0982 -0.0530  0.1306
16124TIP3    H169787   0.892   3.033  11.167  0.2173 -0.6275  0.6764
16124TIP3    H269788   0.801   2.997  11.282 -2.4693 -1.2551 -1.5744
16125TIP3   OH269789   5.277   1.064  13.605 -0.3350  0.2240  0.3854
16125TIP3    H169790   5.205   1.120  13.575  0.1539  0.9216  0.5008
16125TIP3    H269791   5.290   1.088  13.697  0.6973  0.8144  0.0967
16126TIP3   OH269792   2.837   0.707  12.753 -0.0816 -0.4390  0.6597
16126TIP3    H169793   2.762   0.756  12.718  1.2363  1.7678  0.8844
16126TIP3    H269794   2.836   0.625  12.705 -1.2037  0.5726 -1.0891
16127TIP3   OH269795   6.503   0.411   2.992  0.0092  0.4788  0.2460
16127TIP3    H169796   6.541   0.423   2.905  2.1687 -0.4948  1.0070
16127TIP3    H269797   6.575   0.429   3.053 -0.9923 -0.5000  1.7729
16128TIP3   OH269798   3.381   6.576   3.674 -0.1430 -0.8249 -0.1838
16128TIP3    H169799   3.326   6.649   3.703 -1.3938 -2.0560  0.6364
16128TIP3    H269800   3.439   6.613   3.608 -1.5964  0.6302 -0.6530
16129TIP3   OH269801   5.104   2.222  16.429  0.3566  0.1482 -0.2376
16129TIP3    H169802   5.093   2.222  16.334 -0.3454 -0.0386 -0.1603
16129TIP3    H269803   5.086   2.312  16.455  3.4916  0.9418 -0.5915
16130TIP3   OH269804   3.667   3.292  15.897 -0.1985 -0.2524  0.5017
16130TIP3    H169805   3.634   3.354  15.962 -1.3946 -0.3786  0.0228
16130TIP3    H269806   3.595   3.281  15.835  1.0873  0.2027 -1.1075
16131TIP3   OH269807   5.334   0.095   4.773  0.3215 -0.0581 -0.4974
16131TIP3    H169808   5.262   0.113   4.713  0.0339 -1.7863 -0.7010
16131TIP3    H269809   5.410   0.135   4.731 -0.2428  0.4760 -1.0273
16132TIP3   OH269810   2.902   4.869  12.734  0.0724  0.6312  0.2110
16132TIP3    H169811   2.897   4.779  12.703 -1.1909  1.6549 -2.6953
16132TIP3    H269812   2.835   4.873  12.803  1.0535 -0.9548  1.3020
16133TIP3   OH269813   1.374   6.466   2.697  0.0740 -0.1201 -0.7766
16133TIP3    H169814   1.424   6.512   2.764  1.1310 -2.3611  0.0331
16133TIP3    H269815   1.288   6.452   2.736  0.4065 -0.6385 -0.2268
16134TIP3   OH269816   5.732   3.992  16.325 -0.1632 -0.0409  0.1398
16134TIP3    H169817   5.827   3.998  16.333  0.2332 -3.9343 -0.5715
16134TIP3    H269818   5.707   3.928  16.393 -2.1284  0.1236 -0.4121
16135TIP3   OH269819   3.903   6.746   5.571  0.6242  0.7164 -0.3973
16135TIP3    H169820   3.809   6.752   5.588  0.6129 -0.3117 -0.0777
16135TIP3    H269821   3.931   6.837   5.558 -0.1622  1.1334  0.8122
16136TIP3   OH269822   4.363   5.454   0.544 -0.2180 -0.5775  0.3612
16136TIP3    H169823   4.307   5.399   0.490 -0.8615 -0.1895  0.6273
16136TIP3    H269824   4.446   5.407   0.549  0.0141 -0.4027 -1.3624
16137TIP3   OH269825   5.363   2.450  15.688 -0.3178  0.4653  0.1385
16137TIP3    H169826   5.291   2.505  15.658 -3.1780 -3.1808 -0.0376
16137TIP3    H269827   5.385   2.485  15.775 -0.4473  3.2631 -0.8943
16138TIP3   OH269828   1.726   4.419  14.086  0.0231  0.0102  0.2822
16138TIP3    H169829   1.756   4.452  14.171  1.0040  0.1007 -0.0854
16138TIP3    H269830   1.736   4.494  14.027  0.2619 -0.3373 -0.1148
16139TIP3   OH269831   6.731   6.165  12.120 -0.4051  0.0165 -0.3989
16139TIP3    H169832   6.645   6.125  12.120 -0.0413 -0.7712 -0.0820
16139TIP3    H269833   6.714   6.259  12.113 -1.2376 -0.2156 -1.5086
16140TIP3   OH269834   0.399   6.029   3.176  0.6027 -0.5714  0.1108
16140TIP3    H169835   0.491   6.042   3.198  0.0664  2.2430  0.8749
16140TIP3    H269836   0.358   6.004   3.258  0.5293 -0.8728 -0.0197
16141TIP3   OH269837   3.079   5.849  16.159  0.0077 -0.3004  0.2580
16141TIP3    H169838   3.070   5.933  16.203  0.2934 -0.9945  1.6602
16141TIP3    H269839   3.026   5.789  16.211 -0.8730 -0.8194 -1.2092
16142TIP3   OH269840   6.239   5.191  10.933 -0.5392 -0.1322 -0.1666
16142TIP3    H169841   6.239   5.240  10.851 -0.9583 -1.5192 -0.9970
16142TIP3    H269842   6.151   5.154  10.939 -0.7564  0.5702  1.2838
16143TIP3   OH269843   4.580   0.438  15.540 -0.0301 -0.2322  0.1411
16143TIP3    H169844   4.663   0.397  15.565 -0.1865 -0.1988  0.7283
16143TIP3    H269845   4.588   0.455  15.446 -0.5678 -3.1061 -0.4944
16144TIP3   OH269846   6.660   4.990   2.614 -0.5900 -0.4348  0.1257
16144TIP3    H169847   6.679   4.914   2.670  1.6700 -0.2313 -0.3164
16144TIP3    H269848   6.723   5.057   2.643 -2.4038  1.2034  0.3494
16145TIP3   OH269849   1.388   0.284  11.156 -0.0617 -0.7795  0.3378
16145TIP3    H169850   1.374   0.231  11.235  0.6212 -0.9881  0.3196
16145TIP3    H269851   1.335   0.363  11.170  1.2770 -0.1134  1.6775
16146TIP3   OH269852   5.084   2.126   1.988  0.0234  0.2770 -0.1559
16146TIP3    H169853   4.991   2.128   1.964 -0.1481 -2.7163  0.0540
16146TIP3    H269854   5.130   2.153   1.908 -0.9814 -0.0615 -0.8627
16147TIP3   OH269855   4.761   3.390   5.694  0.1766  0.3645 -0.0370
16147TIP3    H169856   4.701   3.317   5.707  1.1806 -0.2225  1.5213
16147TIP3    H269857   4.708   3.468   5.710 -0.8064 -0.0273 -1.3173
16148TIP3   OH269858   6.010   1.615   1.242  0.1459 -0.4758  0.5920
16148TIP3    H169859   5.974   1.589   1.157 -0.7057  0.1585  0.7457
16148TIP3    H269860   5.936   1.607   1.303  0.7060 -0.7529  1.2389
16149TIP3   OH269861   0.257   4.886   0.619  0.0193 -0.3010  0.3200
16149TIP3    H169862   0.168   4.850   0.618 -0.0107 -0.3095  1.6557
16149TIP3    H269863   0.249   4.972   0.578 -0.5804 -0.3732  0.2849
16150TIP3   OH269864   4.873   6.741   5.503 -0.1866  0.2301 -0.4164
16150TIP3    H169865   4.792   6.788   5.484  0.7283  1.6273 -0.9406
16150TIP3    H269866   4.942   6.797   5.466  0.8172 -2.3558 -2.6438
16151TIP3   OH269867   1.951   0.687  16.066  0.4763 -0.1193  0.0359
16151TIP3    H169868   1.885   0.625  16.099 -0.0895  0.2182 -0.4576
16151TIP3    H269869   1.916   0.773  16.089  0.8549  0.0507 -0.0310
16152TIP3   OH269870   1.724   0.800   5.825 -0.2290 -0.0031  0.1002
16152TIP3    H169871   1.657   0.734   5.842 -1.4131  1.0086 -0.5303
16152TIP3    H269872   1.715   0.863   5.897  0.9523 -0.5569  0.7478
16153TIP3   OH269873   4.629   4.427  15.575 -0.1565  0.8069 -0.0960
16153TIP3    H169874   4.578   4.349  15.551 -0.0086  0.5014  0.5738
16153TIP3    H269875   4.569   4.481  15.626  0.3270  0.2216  1.1107
16154TIP3   OH269876   4.982   0.169   4.168  0.4652  0.5331 -0.2128
16154TIP3    H169877   5.003   0.251   4.212 -1.5582  2.0265 -1.9338
16154TIP3    H269878   4.911   0.131   4.221 -0.7456  1.4496 -1.1657
16155TIP3   OH269879   5.548   0.793  11.922 -0.4034 -0.4728 -0.2457
16155TIP3    H169880   5.599   0.871  11.900 -0.3760 -0.3020  0.4023
16155TIP3    H269881   5.577   0.770  12.010 -0.6921 -0.9914 -0.2829
16156TIP3   OH269882   6.007   6.227   5.331 -0.6690 -0.0016  0.2892
16156TIP3    H169883   6.100   6.221   5.311 -0.8689  0.0480 -0.6591
16156TIP3    H269884   6.002   6.290   5.403 -0.0031  0.2392  0.1276
16157TIP3   OH269885   2.494   3.477  16.531  0.3629  0.6319 -0.6766
16157TIP3    H169886   2.531   3.492  16.618  0.0022 -0.5758 -0.3211
16157TIP3    H269887   2.403   3.506  16.538  0.1493 -0.0954 -0.4710
16158TIP3   OH269888   3.648   2.377   3.157 -1.1942  0.1752  0.3100
16158TIP3    H169889   3.702   2.331   3.092  0.4941 -1.4632  2.7898
16158TIP3    H269890   3.559   2.351   3.135 -0.4618 -2.3105  0.0606
16159TIP3   OH269891   0.672   4.772  16.776 -0.3710  0.3767  0.0219
16159TIP3    H169892   0.584   4.791  16.810 -0.0845  0.0809  0.9462
16159TIP3    H269893   0.662   4.774  16.681 -1.0247  1.9610  0.1122
16160TIP3   OH269894   3.048   5.926  13.352 -0.3069  0.5367  0.0541
16160TIP3    H169895   3.086   5.862  13.411  0.3995  0.2798 -0.6619
16160TIP3    H269896   2.972   5.961  13.399 -0.2127 -0.2229  0.7787
16161TIP3   OH269897   3.124   4.100  13.677 -0.1963 -0.3145 -0.2765
16161TIP3    H169898   3.091   4.163  13.613 -0.6547  0.2073  0.4739
16161TIP3    H269899   3.046   4.070  13.724  0.2340 -0.0455  0.6240
16162TIP3   OH269900   5.071   1.105   3.980 -0.7213  0.5037 -0.4560
16162TIP3    H169901   5.018   1.142   4.051 -1.1945  0.5454 -0.8267
16162TIP3    H269902   5.103   1.022   4.015 -1.5888  0.1577 -0.4726
16163TIP3   OH269903   6.366   5.803  13.981  0.7819  0.2919  0.1827
16163TIP3    H169904   6.316   5.822  13.902  1.0676  0.5175  0.0591
16163TIP3    H269905   6.324   5.724  14.017  0.5579  0.2763 -0.1084
16164TIP3   OH269906   0.030   3.784  16.959 -0.1559  0.0031  0.2564
16164TIP3    H169907  -0.064   3.767  16.949  0.1393 -0.6354 -1.5294
16164TIP3    H269908   0.071   3.698  16.953  0.5426  0.2649  1.1732
16165TIP3   OH269909   5.987   6.141   5.938  0.0943  0.0967 -0.1934
16165TIP3    H169910   6.044   6.085   5.885 -0.9538 -1.1119 -0.0662
16165TIP3    H269911   6.024   6.229   5.927  0.2920 -0.2210 -2.4008
16166TIP3   OH269912   1.158   6.707   3.773 -0.0642 -0.1091  0.2871
16166TIP3    H169913   1.096   6.737   3.840 -0.3116 -1.0700  0.4996
16166TIP3    H269914   1.235   6.762   3.785 -1.2143  1.7415 -0.5872
16167TIP3   OH269915   1.184   5.800   4.333  0.3665  0.1186 -0.1924
16167TIP3    H169916   1.144   5.722   4.294  0.6467  0.1561 -0.5626
16167TIP3    H269917   1.118   5.833   4.393  0.2005 -0.3432 -0.1146
16168TIP3   OH269918   2.560   1.973   1.634  0.0671 -0.0906 -0.4638
16168TIP3    H169919   2.465   1.978   1.620  0.0425  0.0775 -0.2395
16168TIP3    H269920   2.574   1.884   1.666 -0.1812  0.2820  0.7269
16169TIP3   OH269921   4.605   6.141  12.434  0.3858 -0.4649 -0.1758
16169TIP3    H169922   4.651   6.224  12.445 -0.2979 -0.2214  0.9886
16169TIP3    H269923   4.673   6.079  12.406  0.7857  0.6068 -1.5734
16170TIP3   OH269924   1.618   1.634   5.147  0.0286  0.4707  0.0028
16170TIP3    H169925   1.562   1.568   5.106 -1.3073  0.3444  1.9532
16170TIP3    H269926   1.579   1.718   5.123 -0.1880  0.4297  0.2086
16171TIP3   OH269927   2.419   0.437  11.668 -0.2167 -0.4592  0.4068
16171TIP3    H169928   2.373   0.356  11.648 -0.2766 -0.0955 -0.9813
16171TIP3    H269929   2.511   0.411  11.677 -0.3347 -0.7890  0.6603
16172TIP3   OH269930   3.212   0.825  13.870  0.4610 -0.4268  0.5330
16172TIP3    H169931   3.214   0.908  13.822  0.6661 -0.1347  1.0513
16172TIP3    H269932   3.215   0.758  13.801 -0.0864 -0.0111  0.0987
16173TIP3   OH269933   0.731   4.959  17.149 -0.1432  0.0684  0.1086
16173TIP3    H169934   0.642   4.993  17.163  0.9259  2.2054  2.0452
16173TIP3    H269935   0.759   5.000  17.067 -0.4020  0.5508  0.2576
16174TIP3   OH269936   2.995   5.943   0.209 -0.3082 -0.3216 -0.3174
16174TIP3    H169937   2.934   5.982   0.271  0.1415  0.8367 -0.5878
16174TIP3    H269938   2.940   5.886   0.154 -0.9047 -0.3801  0.3380
16175TIP3   OH269939   4.597   3.841  13.643  0.0114 -0.0668 -0.2383
16175TIP3    H169940   4.679   3.821  13.687  0.5478  0.1426 -1.1253
16175TIP3    H269941   4.613   3.820  13.551 -1.0977 -0.5339 -0.3379
16176TIP3   OH269942   5.237   4.761  12.333  0.3729 -0.6191  0.2760
16176TIP3    H169943   5.190   4.753  12.250  1.0615  0.9424 -0.2733
16176TIP3    H269944   5.308   4.696  12.326  0.1488 -0.8215 -0.1503
16177TIP3   OH269945   3.078   4.501   3.122 -1.3114 -0.1308 -0.1960
16177TIP3    H169946   2.999   4.447   3.127 -1.7732  0.5656  0.1730
16177TIP3    H269947   3.064   4.570   3.187 -1.0900  0.9049 -1.2281
16178TIP3   OH269948   4.564   1.822  16.091  0.2289 -0.2873  0.2820
16178TIP3    H169949   4.473   1.800  16.071 -0.2859  2.8532 -1.1997
16178TIP3    H269950   4.562   1.851  16.183  0.2134 -2.4661  0.9959
16179TIP3   OH269951   1.496   6.289  14.154 -0.6570  0.1635 -1.1679
16179TIP3    H169952   1.452   6.359  14.202 -0.3950  1.5129 -2.8311
16179TIP3    H269953   1.575   6.270  14.206  0.6474  2.9769 -2.0368
16180TIP3   OH269954   3.780   2.851   2.341 -0.4692  0.2106 -0.4797
16180TIP3    H169955   3.823   2.766   2.341 -0.4243  0.2323 -0.1166
16180TIP3    H269956   3.703   2.839   2.286  0.1744  0.2632 -1.4150
16181TIP3   OH269957   3.553   4.188  13.105 -0.6039 -0.0964  0.4038
16181TIP3    H169958   3.473   4.203  13.054 -0.5527 -1.5045 -0.1156
16181TIP3    H269959   3.608   4.264  13.085 -1.2008  0.1281 -0.4397
16182TIP3   OH269960   5.790   4.301   1.072  0.1807 -0.7086  0.4392
16182TIP3    H169961   5.731   4.364   1.030 -0.9675 -0.7250  1.9727
16182TIP3    H269962   5.843   4.355   1.131  0.0245 -1.0117  0.8583
16183TIP3   OH269963   0.124   1.932  13.925 -0.4085 -0.1200  0.1597
16183TIP3    H169964   0.140   1.996  13.994 -0.0622  0.2155 -0.2257
16183TIP3    H269965   0.043   1.888  13.951 -0.2221 -0.0725  0.8321
16184TIP3   OH269966   1.862   4.605  13.177 -0.1737  0.8199 -0.6340
16184TIP3    H169967   1.828   4.694  13.171 -2.1003  0.0825 -1.2612
16184TIP3    H269968   1.913   4.593  13.096  0.0810  1.3459 -0.5523
16185TIP3   OH269969   1.744   3.297  14.186  0.4231 -0.3605 -0.0565
16185TIP3    H169970   1.753   3.345  14.103  2.8273  0.8718  0.8434
16185TIP3    H269971   1.736   3.366  14.252 -1.0052 -1.3247  0.7971
16186TIP3   OH269972   4.412   0.355  13.997  0.0807  0.0552 -0.2511
16186TIP3    H169973   4.375   0.441  13.978  0.4344  0.5006  1.0312
16186TIP3    H269974   4.337   0.295  13.992  0.0507  0.2372 -2.3624
16187TIP3   OH269975   2.037   3.669   3.937 -0.3048 -0.1009 -0.1409
16187TIP3    H169976   2.023   3.602   3.870  1.7845  0.7313 -1.4860
16187TIP3    H269977   2.000   3.748   3.899 -1.0868 -0.0868  0.6422
16188TIP3   OH269978   1.114   5.359   5.674  0.3973 -0.0349 -0.4944
16188TIP3    H169979   1.195   5.319   5.704  0.3325 -0.2232 -0.5708
16188TIP3    H269980   1.056   5.356   5.750 -0.7629 -3.1395 -1.4511
16189TIP3   OH269981   0.066   1.241   1.402 -0.1347 -0.2816  0.3828
16189TIP3    H169982   0.033   1.328   1.425  3.8289  0.8701  2.0248
16189TIP3    H269983   0.090   1.247   1.310 -0.8421  0.0006  0.2108
16190TIP3   OH269984   1.896   2.870   5.810 -0.0636  0.3662  0.1491
16190TIP3    H169985   1.847   2.951   5.792 -1.9920 -0.6827  0.4974
16190TIP3    H269986   1.849   2.803   5.759  0.2404 -0.9012  1.5297
16191TIP3   OH269987   4.817   0.079  14.107 -0.7594 -0.2841  0.1583
16191TIP3    H169988   4.754   0.033  14.052 -0.1611 -0.5101 -0.3452
16191TIP3    H269989   4.895   0.087  14.052 -0.3381 -0.0448  0.7873
16192TIP3   OH269990   4.644   1.151   1.216  0.1679  0.1570  0.1899
16192TIP3    H169991   4.555   1.187   1.226  1.1789  1.8769  3.9240
16192TIP3    H269992   4.635   1.059   1.241 -0.7466  0.0836 -0.3737
16193TIP3   OH269993   5.563   4.623   4.455 -0.0921  0.6067 -0.2993
16193TIP3    H169994   5.553   4.631   4.550  1.4298  0.8801 -0.1568
16193TIP3    H269995   5.562   4.529   4.439 -0.3023  0.5578 -0.0096
16194TIP3   OH269996   2.687   3.975   3.567 -0.1102  0.2569 -0.4240
16194TIP3    H169997   2.730   3.929   3.496 -0.5391 -0.5093 -0.1889
16194TIP3    H269998   2.697   3.918   3.643 -1.6118  0.0072 -0.3862
16195TIP3   OH269999   0.274   5.361  11.668 -0.4506  0.5378  0.1290
16195TIP3    H170000   0.366   5.341  11.686 -0.0695  1.1934 -1.0514
16195TIP3    H270001   0.226   5.291  11.711  0.7782 -1.9477 -2.4419
16196TIP3   OH270002   0.657   3.456   5.918  0.0280  0.6535  0.1931
16196TIP3    H170003   0.663   3.467   6.013 -1.2321 -0.1848  0.3730
16196TIP3    H270004   0.671   3.363   5.904 -0.4952  0.6647 -0.3858
16197TIP3   OH270005   5.597   1.925   1.664  0.1941  0.3943  0.0899
16197TIP3    H170006   5.678   1.875   1.661  0.1162  0.1620  1.5602
16197TIP3    H270007   5.531   1.863   1.692  0.1435  1.3512  2.1670
16198TIP3   OH270008   2.538   1.899   3.194 -0.1045 -0.2650  0.2422
16198TIP3    H170009   2.508   1.812   3.218 -0.5185 -0.4415 -0.9099
16198TIP3    H270010   2.509   1.955   3.266 -0.9769 -0.8508  0.3494
16199TIP3   OH270011   5.868   0.116  14.283  0.3116  0.2588 -0.1563
16199TIP3    H170012   5.846   0.118  14.190 -1.1611  0.2028  0.1768
16199TIP3    H270013   5.955   0.076  14.286  1.2597  2.1535 -1.6508
16200TIP3   OH270014   2.528   4.567  12.481 -0.4433  0.6179 -0.0447
16200TIP3    H170015   2.489   4.604  12.560 -0.0914 -0.3964  0.6138
16200TIP3    H270016   2.471   4.494  12.458  0.0441  0.2569 -0.1145
16201TIP3   OH270017   1.033   1.279  15.913 -0.1237  0.1825  0.8743
16201TIP3    H170018   1.110   1.229  15.885 -0.9520  0.2341 -1.6538
16201TIP3    H270019   1.039   1.361  15.863 -1.5296  0.3985  1.0360
16202TIP3   OH270020   3.715   2.811   1.363  0.3227 -0.6095  0.2434
16202TIP3    H170021   3.670   2.890   1.332 -1.4452 -1.2846  1.0357
16202TIP3    H270022   3.759   2.839   1.443 -0.2111 -0.3901  0.4629
16203TIP3   OH270023   2.236   2.768  15.631 -0.0498 -0.1798  0.8642
16203TIP3    H170024   2.168   2.834  15.636 -0.2831 -0.3424 -0.1472
16203TIP3    H270025   2.282   2.786  15.549  0.1175 -1.0352  0.7574
16204TIP3   OH270026   0.562   2.871   4.094  0.4039  0.5513 -0.1086
16204TIP3    H170027   0.625   2.882   4.165  2.0406 -1.2006 -1.2151
16204TIP3    H270028   0.490   2.821   4.133  1.2337 -0.2922  0.3642
16205TIP3   OH270029   5.278   5.914  15.248  0.1307 -0.3368 -0.0119
16205TIP3    H170030   5.212   5.847  15.231 -2.3814  1.5491  1.9023
16205TIP3    H270031   5.252   5.989  15.194 -0.1148  0.9032  1.7643
16206TIP3   OH270032   1.016   3.718   3.640 -0.3152  0.1192 -0.2920
16206TIP3    H170033   1.012   3.754   3.552  2.6153  0.5781 -0.2825
16206TIP3    H270034   0.953   3.646   3.639 -0.2157  0.0171 -2.7959
16207TIP3   OH270035   2.280   0.600   2.402  0.4693  0.1097 -0.5361
16207TIP3    H170036   2.347   0.590   2.334  0.4101 -0.5539 -0.5050
16207TIP3    H270037   2.221   0.526   2.387  0.1044  0.3285 -0.1602
16208TIP3   OH270038   0.583   2.881   5.776 -0.1880 -0.4188  0.2719
16208TIP3    H170039   0.646   2.937   5.731  0.2474  0.1818  1.5969
16208TIP3    H270040   0.631   2.847   5.852 -0.4916 -2.4866 -0.4430
16209TIP3   OH270041   0.192   1.837   0.096 -0.1700  0.6468 -0.3502
16209TIP3    H170042   0.135   1.909   0.125 -0.1855  0.6540 -0.3990
16209TIP3    H270043   0.165   1.821   0.006 -1.5026 -0.7058  0.2637
16210TIP3   OH270044   3.094   0.999  14.630 -0.2238  0.2398  1.2519
16210TIP3    H170045   3.118   1.001  14.722 -2.1595  0.5536  1.7772
16210TIP3    H270046   3.109   1.089  14.599  0.2790  0.1715  1.3000
16211TIP3   OH270047   6.020   6.187  15.014  0.1063  0.1845 -0.7022
16211TIP3    H170048   5.967   6.260  14.982 -0.3238  0.1294 -0.1361
16211TIP3    H270049   5.978   6.109  14.977 -0.3861  0.1217 -0.0360
16212TIP3   OH270050   4.427   3.327  11.890 -0.0716 -0.0009  0.0429
16212TIP3    H170051   4.411   3.283  11.807  2.3141 -0.7082 -0.0773
16212TIP3    H270052   4.512   3.369  11.880  0.6040 -0.6926  2.3346
16213TIP3   OH270053   1.792   6.440  16.325 -0.8215 -0.1037  0.1265
16213TIP3    H170054   1.750   6.491  16.256 -0.5746  0.8333  0.6616
16213TIP3    H270055   1.733   6.366  16.340 -1.8116  0.7122  0.2355
16214TIP3   OH270056   2.518   2.821   5.741  0.2620  0.0006  0.1859
16214TIP3    H170057   2.428   2.808   5.771  0.3660 -2.3214 -0.3815
16214TIP3    H270058   2.518   2.907   5.700 -1.6133  0.1630  0.5083
16215TIP3   OH270059   0.171   4.487  12.471 -0.0774  0.4022  0.1285
16215TIP3    H170060   0.260   4.512  12.448  0.2122  1.2041  2.0806
16215TIP3    H270061   0.149   4.541  12.547 -1.7867 -0.6594  0.4178
16216TIP3   OH270062   2.749   3.630  13.254 -0.3137 -0.5259  0.4728
16216TIP3    H170063   2.742   3.609  13.160 -0.1125  0.4981  0.2304
16216TIP3    H270064   2.678   3.692  13.270 -0.2302 -0.5566  0.9679
16217TIP3   OH270065   6.785   2.527   0.692 -0.7112  0.5442 -0.5600
16217TIP3    H170066   6.870   2.521   0.648  0.2420 -0.0393  1.3414
16217TIP3    H270067   6.805   2.557   0.780 -2.4574  0.0684  0.0117
16218TIP3   OH270068   5.658   4.407   3.635  0.2051  0.2258  0.1742
16218TIP3    H170069   5.640   4.407   3.541 -1.8115 -0.2597  0.5391
16218TIP3    H270070   5.670   4.315   3.658 -1.9027  0.0881  0.8381
16219TIP3   OH270071   5.519   0.265  15.605  0.4685  0.4212  0.2533
16219TIP3    H170072   5.468   0.344  15.588  1.0154  0.1380 -3.0671
16219TIP3    H270073   5.600   0.296  15.647  0.5130  1.5865 -0.6883
16220TIP3   OH270074   6.001   3.099  14.252  0.2346 -0.4195  0.0442
16220TIP3    H170075   6.028   3.135  14.336  3.0532 -1.1841 -0.4687
16220TIP3    H270076   5.932   3.036  14.274 -1.1639  1.5493  1.4327
16221TIP3   OH270077   5.126   6.583  15.755 -0.0935 -0.5184  0.2990
16221TIP3    H170078   5.136   6.616  15.844  0.5068  0.3999 -0.0986
16221TIP3    H270079   5.148   6.490  15.761  0.5278 -0.3341  0.9987
16222TIP3   OH270080   2.533   0.476  12.611  0.1763  0.2470 -0.0091
16222TIP3    H170081   2.580   0.529  12.546 -1.4226 -0.5913 -1.8979
16222TIP3    H270082   2.592   0.404  12.630 -0.2082 -0.6942 -2.2291
16223TIP3   OH270083   6.077   5.364   2.632 -0.7504  0.2779 -0.4843
16223TIP3    H170084   6.104   5.300   2.566  2.8842 -0.3082  1.4385
16223TIP3    H270085   6.098   5.449   2.593 -0.8683  0.0604 -1.0288
16224TIP3   OH270086   6.104   5.889  13.382  1.1362 -0.1345  0.0115
16224TIP3    H170087   6.117   5.795  13.393  2.1542 -0.1265 -1.0543
16224TIP3    H270088   6.014   5.904  13.411  1.4093 -1.2142  1.4526
16225TIP3   OH270089   3.804   6.598   2.183 -0.2490 -0.6375  0.0454
16225TIP3    H170090   3.767   6.533   2.243 -0.2819 -1.3221 -0.7050
16225TIP3    H270091   3.890   6.564   2.161 -0.4846 -0.7024 -0.7787
16226TIP3   OH270092   4.761   3.325   3.549 -0.4008  0.0643  0.6303
16226TIP3    H170093   4.854   3.314   3.567 -0.2704 -0.8812 -0.5783
16226TIP3    H270094   4.720   3.324   3.636  0.8326  1.9904  1.2822
16227TIP3   OH270095   1.077   5.775   5.122 -0.3189  0.6996 -0.3081
16227TIP3    H170096   1.059   5.734   5.207  0.3894 -2.6285 -1.7102
16227TIP3    H270097   0.992   5.778   5.078 -0.4045  0.9467 -0.1299
16228TIP3   OH270098   2.585   4.415  12.754 -0.2119  0.6774  0.0035
16228TIP3    H170099   2.537   4.382  12.829  0.6566 -2.0925 -0.6008
16228TIP3    H270100   2.646   4.345  12.732  0.4323  1.9632 -2.4940
16229TIP3   OH270101   1.570   1.417   5.786  0.6300 -0.0848 -0.1174
16229TIP3    H170102   1.600   1.333   5.822  0.3586 -0.9540 -1.8643
16229TIP3    H270103   1.477   1.420   5.807  0.2984 -0.9532 -1.3610
16230TIP3   OH270104   5.705   4.923   1.342  0.4972 -0.4892 -1.0840
16230TIP3    H170105   5.665   4.955   1.423 -0.3103 -2.2438 -0.7896
16230TIP3    H270106   5.682   4.990   1.277  0.2080  0.3660 -0.1310
16231TIP3   OH270107   1.955   4.949  14.581  0.4369  0.1697  0.0823
16231TIP3    H170108   1.979   4.967  14.671  2.0075 -2.2837  0.1742
16231TIP3    H270109   1.876   4.895  14.587  0.5840 -0.0552 -0.0294
16232TIP3   OH270110   5.497   4.152  12.788 -0.1816  0.2396  0.2530
16232TIP3    H170111   5.577   4.101  12.775 -0.6168 -0.7790  1.3697
16232TIP3    H270112   5.501   4.222  12.723 -0.1323 -1.9093 -2.1527
16233TIP3   OH270113   5.748   1.070   2.713 -0.0348  0.2970  0.1529
16233TIP3    H170114   5.767   1.015   2.788 -0.0535 -1.0845 -0.8356
16233TIP3    H270115   5.747   1.010   2.639 -0.1923  1.6099 -0.9282
16234TIP3   OH270116   4.484   2.511   5.011 -0.0732  0.9643  0.2400
16234TIP3    H170117   4.543   2.538   5.082 -2.5613 -1.9961  3.6062
16234TIP3    H270118   4.401   2.552   5.031 -0.6332  0.6939 -1.4094
16235TIP3   OH270119   3.609   6.571  11.195  0.8925 -0.1909 -0.1854
16235TIP3    H170120   3.647   6.626  11.263  1.7644 -1.9020  0.7190
16235TIP3    H270121   3.551   6.511  11.241 -1.1257  0.8395 -1.3157
16236TIP3   OH270122   3.187   0.361   4.752 -0.4487 -0.6667  0.0044
16236TIP3    H170123   3.211   0.375   4.844  1.4989 -2.0195 -0.2765
16236TIP3    H270124   3.142   0.276   4.752  0.9726 -1.4287 -0.5258
16237TIP3   OH270125   3.344   6.321   1.377  0.4866  0.0844  0.1399
16237TIP3    H170126   3.288   6.266   1.322  0.7341  0.0468 -0.0706
16237TIP3    H270127   3.392   6.259   1.432 -0.2705  0.1414  0.8964
16238TIP3   OH270128   4.874   1.111  12.384 -0.3763 -0.1618  0.1749
16238TIP3    H170129   4.807   1.069  12.331  1.2438 -1.2448 -1.0660
16238TIP3    H270130   4.894   1.193  12.337  1.3799 -1.3313 -1.2233
16239TIP3   OH270131   5.330   1.146   3.850 -0.3521  0.6689  0.0976
16239TIP3    H170132   5.330   1.242   3.841 -2.4156  0.6337 -0.6710
16239TIP3    H270133   5.249   1.127   3.899  0.4519 -0.6355  0.9481
16240TIP3   OH270134   4.526   1.075  13.581 -0.5546 -0.3843 -1.0507
16240TIP3    H170135   4.574   1.074  13.499  1.2807  1.9494 -0.0420
16240TIP3    H270136   4.573   1.013  13.637 -0.7325 -0.6108 -1.1489
16241TIP3   OH270137   4.952   5.626  11.199 -0.1298 -0.3898  0.1825
16241TIP3    H170138   5.002   5.618  11.117  0.5080 -0.4875  0.5742
16241TIP3    H270139   5.009   5.586  11.265 -0.9298 -0.8931  0.5600
16242TIP3   OH270140   0.661   2.493   1.958  0.3886 -0.4405  0.4138
16242TIP3    H170141   0.657   2.580   1.998  0.3390 -0.8975  1.4389
16242TIP3    H270142   0.753   2.467   1.968  0.4520 -0.4122 -0.0981
16243TIP3   OH270143   3.516   6.335  12.069  0.0986  0.3274 -1.0240
16243TIP3    H170144   3.555   6.248  12.080  1.0001  0.6820 -1.3378
16243TIP3    H270145   3.494   6.340  11.976 -1.9066 -0.3595 -0.6123
16244TIP3   OH270146   3.198   5.047   2.616  0.4049 -0.3624  0.0009
16244TIP3    H170147   3.286   5.073   2.643  0.9760 -0.1283 -2.0154
16244TIP3    H270148   3.210   4.962   2.573 -0.7622 -1.6657  2.1396
16245TIP3   OH270149   3.230   6.368  11.211  0.8361 -0.1924  0.5801
16245TIP3    H170150   3.187   6.283  11.223  1.1323 -0.6453 -1.3697
16245TIP3    H270151   3.158   6.430  11.198  0.6746 -0.6222 -0.7165
16246TIP3   OH270152   6.040   2.896  13.323  0.5113  0.2252  0.5611
16246TIP3    H170153   6.094   2.903  13.401  1.4004  0.1097 -0.0378
16246TIP3    H270154   5.961   2.947  13.343  0.6019 -0.0698  1.6428
16247TIP3   OH270155   3.757   3.108   1.361  0.0862  0.3462 -0.1459
16247TIP3    H170156   3.669   3.071   1.358  0.1482  0.2290 -0.5392
16247TIP3    H270157   3.745   3.202   1.353  0.0691  0.2458 -1.3008
16248TIP3   OH270158   2.987   0.403  11.197  0.1774 -0.6120 -0.3367
16248TIP3    H170159   3.053   0.347  11.237 -0.3378  0.3844  2.0017
16248TIP3    H270160   3.032   0.446  11.125  1.5747 -1.3075  0.1055
16249TIP3   OH270161   2.663   6.526  16.343 -0.6805  0.1026 -0.3925
16249TIP3    H170162   2.737   6.480  16.381  0.5062  1.1666 -1.3960
16249TIP3    H270163   2.592   6.461  16.343 -0.1802 -0.4929  1.8577
16250TIP3   OH270164   0.658   6.732  10.492  0.0437 -0.3555 -0.3065
16250TIP3    H170165   0.639   6.647  10.531 -1.5563  0.7125  1.2800
16250TIP3    H270166   0.573   6.769  10.470  0.7927  0.1656 -2.5352
16251TIP3   OH270167   5.384   5.687  13.087 -0.5829  0.1561 -0.2184
16251TIP3    H170168   5.373   5.699  13.182 -0.5241  2.7646 -0.4879
16251TIP3    H270169   5.299   5.656  13.057 -1.1339  0.9841  0.4603
16252TIP3   OH270170   0.706   0.879  11.735 -0.1382 -0.2418  0.4495
16252TIP3    H170171   0.733   0.933  11.809  0.3251 -0.5437  0.5022
16252TIP3    H270172   0.728   0.789  11.762  1.3214 -0.2044 -0.6321
16253TIP3   OH270173   4.833   3.950   3.287 -0.2854 -0.1831  0.1431
16253TIP3    H170174   4.825   3.865   3.243 -0.4172 -0.0378 -0.1107
16253TIP3    H270175   4.745   3.967   3.322 -0.1930 -0.2768  0.4234
16254TIP3   OH270176   2.121   1.537   1.182  0.1097 -0.6091 -0.2232
16254TIP3    H170177   2.052   1.560   1.120 -1.4914 -1.7214  1.0910
16254TIP3    H270178   2.139   1.445   1.164  0.3652 -0.6562  0.2754
16255TIP3   OH270179   4.179   0.580   0.765  0.8910  0.0693 -0.3652
16255TIP3    H170180   4.208   0.575   0.674  0.4323 -1.5148 -0.4468
16255TIP3    H270181   4.210   0.498   0.805  1.7452  1.0806  1.1138
16256TIP3   OH270182   2.839   3.909   1.111  0.0410 -0.1737 -0.4013
16256TIP3    H170183   2.935   3.905   1.115  0.0847  0.4811 -0.8153
16256TIP3    H270184   2.820   3.978   1.047 -0.7171  0.3722  0.4081
16257TIP3   OH270185   2.073   4.779   5.597 -0.2685  0.8432  0.4509
16257TIP3    H170186   2.123   4.711   5.642 -1.8426 -0.2010  0.6211
16257TIP3    H270187   2.135   4.816   5.534  0.7948 -0.2639  0.8322
16258TIP3   OH270188   1.748   5.329   4.440  0.0392 -0.2492 -0.4239
16258TIP3    H170189   1.740   5.345   4.534  0.3639 -1.2834 -0.2247
16258TIP3    H270190   1.693   5.397   4.400  1.8254  1.7520  0.4054
16259TIP3   OH270191   5.893   2.205   2.526 -0.0524  0.6398  0.2171
16259TIP3    H170192   5.798   2.197   2.518 -0.1287  2.7976 -1.4576
16259TIP3    H270193   5.906   2.285   2.577  0.8761 -0.6419  2.0741
16260TIP3   OH270194   1.104   0.625   5.397  0.4920 -0.5862 -0.0169
16260TIP3    H170195   1.154   0.579   5.465 -0.9980 -1.3912  0.5829
16260TIP3    H270196   1.100   0.715   5.427  1.3673 -0.5757  0.0605
16261TIP3   OH270197   3.806   0.014   1.557 -0.1895  0.7910 -0.1644
16261TIP3    H170198   3.853   0.085   1.514 -1.2499  1.4451 -0.2569
16261TIP3    H270199   3.714   0.032   1.540 -0.5674  0.4085  1.3683
16262TIP3   OH270200   4.889   1.834  16.096  0.3217  0.1284  0.2121
16262TIP3    H170201   4.936   1.772  16.151 -2.3103 -1.6321  0.5345
16262TIP3    H270202   4.809   1.854  16.145 -0.4265  1.2267 -1.4107
16263TIP3   OH270203   4.392   1.879   2.355  0.2113 -0.0466  0.2218
16263TIP3    H170204   4.486   1.878   2.339  0.5183 -1.5003  2.0191
16263TIP3    H270205   4.369   1.788   2.373 -1.2094  0.5661  1.6325
16264TIP3   OH270206   0.449   1.691   6.198 -0.4418 -0.5308 -0.7185
16264TIP3    H170207   0.445   1.728   6.286  0.4892 -0.3820 -0.7327
16264TIP3    H270208   0.363   1.708   6.160 -0.3652  0.6728 -0.3487
16265TIP3   OH270209   5.947   5.730  12.291 -0.3392  0.0133 -0.2009
16265TIP3    H170210   5.878   5.725  12.357  0.2701 -1.7075  0.3461
16265TIP3    H270211   5.934   5.815  12.249  0.7282  2.1929  3.7037
16266TIP3   OH270212   1.911   0.319  12.874 -0.1925 -0.1652  0.1234
16266TIP3    H170213   1.833   0.374  12.871  0.2011  0.3219 -1.6544
16266TIP3    H270214   1.894   0.250  12.810  0.1425 -1.0118  0.9328
16267TIP3   OH270215   0.796   2.659  16.680 -0.3487  0.0718  0.1524
16267TIP3    H170216   0.862   2.621  16.621 -0.4579 -2.1780  1.4094
16267TIP3    H270217   0.713   2.641  16.636 -0.3133 -0.0005  0.1116
16268TIP3   OH270218   6.046   3.767   4.452 -0.1488  0.2567 -0.2726
16268TIP3    H170219   5.971   3.826   4.446 -1.0550 -0.8907 -0.5344
16268TIP3    H270220   6.095   3.782   4.371  1.3803  2.9396  1.1225
16269TIP3   OH270221   3.360   6.437   2.308 -0.1724 -0.1452  0.9550
16269TIP3    H170222   3.272   6.430   2.344 -1.6982  1.7614 -2.2028
16269TIP3    H270223   3.394   6.519   2.345  0.2022 -0.7140  1.9096
16270TIP3   OH270224   1.117   5.482  14.783  0.6853 -0.0457 -0.1906
16270TIP3    H170225   1.147   5.501  14.872  0.4320 -1.6246  0.2565
16270TIP3    H270226   1.025   5.458  14.794  0.3501  0.8536 -1.0252
16271TIP3   OH270227   4.226   1.234  15.167 -0.1170 -0.1210  0.2874
16271TIP3    H170228   4.154   1.236  15.230 -0.5110 -0.3311 -0.1526
16271TIP3    H270229   4.256   1.143  15.169 -0.2405 -0.1651  0.0424
16272TIP3   OH270230   2.688   5.656   6.167  0.2809  0.7696 -0.3044
16272TIP3    H170231   2.754   5.707   6.213  0.1179  0.8489 -0.1561
16272TIP3    H270232   2.610   5.662   6.223  1.0705 -2.0399  1.1496
16273TIP3   OH270233   4.822   5.534   1.386  0.4262 -0.0017 -0.0761
16273TIP3    H170234   4.763   5.491   1.449  1.2096 -2.4849 -0.9886
16273TIP3    H270235   4.899   5.558   1.439  0.2689 -0.3463  0.3160
16274TIP3   OH270236   3.780   2.147  11.482  0.6062  0.0260  0.4002
16274TIP3    H170237   3.746   2.123  11.395  1.1947 -0.1314  0.2101
16274TIP3    H270238   3.840   2.219  11.465  0.6936  0.0201  0.6820
16275TIP3   OH270239   3.976   2.699   5.935 -0.4912 -0.0655  0.2313
16275TIP3    H170240   4.036   2.625   5.944  1.5940  1.6952  1.3127
16275TIP3    H270241   3.951   2.721   6.024  1.3116  2.3799  0.2181
16276TIP3   OH270242   0.228   0.424  16.630  0.8007  0.4109 -0.3459
16276TIP3    H170243   0.196   0.348  16.581 -0.2671 -0.1348  1.1762
16276TIP3    H270244   0.178   0.423  16.712  1.7976  1.9349  0.2994
16277TIP3   OH270245   2.062   6.644   1.674 -0.2928  0.9891  0.1186
16277TIP3    H170246   2.057   6.642   1.770  1.5806  1.5645  0.2408
16277TIP3    H270247   2.118   6.719   1.654 -0.3463  0.6321 -1.4195
16278TIP3   OH270248   2.544   6.466   4.382 -0.1318  0.1730  0.7333
16278TIP3    H170249   2.449   6.475   4.387 -0.0258  1.7237  0.2693
16278TIP3    H270250   2.575   6.494   4.469 -0.0038  1.3653  0.3183
16279TIP3   OH270251   6.234   0.686  11.695 -0.0441 -0.1510  0.1304
16279TIP3    H170252   6.284   0.768  11.694 -0.4989  0.1255 -0.8917
16279TIP3    H270253   6.161   0.703  11.755  0.3668 -0.1209  0.6253
16280TIP3   OH270254   6.056   2.911   0.648  0.3540  0.3199  0.3481
16280TIP3    H170255   6.031   2.917   0.555 -0.9275 -1.5876  0.5491
16280TIP3    H270256   5.986   2.957   0.694  1.4631  2.0729  0.3306
16281TIP3   OH270257   3.572   3.376  11.004 -0.4871 -0.0134 -0.5769
16281TIP3    H170258   3.530   3.436  11.066 -0.4444 -0.0416 -0.5208
16281TIP3    H270259   3.568   3.423  10.920 -1.2510 -0.3109 -0.7146
16282TIP3   OH270260   3.068   6.204   1.619  0.0842 -0.6261 -0.6130
16282TIP3    H170261   3.092   6.188   1.710  1.1746 -0.2409 -0.8325
16282TIP3    H270262   3.139   6.167   1.567  1.6682  3.0093 -1.1829
16283TIP3   OH270263   6.168   3.419  13.954 -0.4859 -0.1981  0.2653
16283TIP3    H170264   6.111   3.490  13.923 -0.4719 -0.1663  0.3119
16283TIP3    H270265   6.108   3.347  13.972 -0.6178  0.1100  1.1265
16284TIP3   OH270266   4.404   0.746   2.299  0.7542 -0.2558 -0.0619
16284TIP3    H170267   4.384   0.700   2.218  0.0960  0.0066 -0.0495
16284TIP3    H270268   4.334   0.720   2.359  1.1824 -0.3702  0.3944
16285TIP3   OH270269   0.442   6.685   1.510  0.2016 -0.6475 -0.3360
16285TIP3    H170270   0.475   6.745   1.577 -1.4947  0.5336 -0.5026
16285TIP3    H270271   0.473   6.723   1.428 -0.3179 -0.3629 -0.4017
16286TIP3   OH270272   1.830   1.936  16.993 -0.0286  0.9839 -0.1755
16286TIP3    H170273   1.756   1.995  16.981 -0.0654  1.1517  0.8987
16286TIP3    H270274   1.895   1.988  17.040 -0.2799  0.0004  1.2625
16287TIP3   OH270275   0.055   0.502  12.379  0.1980 -0.6987  0.0207
16287TIP3    H170276   0.138   0.492  12.331 -0.2038 -1.9391 -0.4432
16287TIP3    H270277   0.046   0.420  12.428 -1.5034 -1.2429 -1.1409
16288TIP3   OH270278   4.359   6.065  14.352  0.3094 -0.6415  0.0088
16288TIP3    H170279   4.424   6.107  14.408 -0.4930  1.5223 -0.6376
16288TIP3    H270280   4.332   5.987  14.401 -0.9361  1.5984  3.0412
16289TIP3   OH270281   2.787   3.106   4.337 -0.1778 -0.7355 -0.3932
16289TIP3    H170282   2.781   3.106   4.432  2.3629  0.2162 -0.2139
16289TIP3    H270283   2.814   3.017   4.314  0.1874 -0.6783 -0.1711
16290TIP3   OH270284   5.753   4.290  11.783  0.3990 -0.7850 -0.5928
16290TIP3    H170285   5.833   4.328  11.746  0.3266 -0.8941 -0.8607
16290TIP3    H270286   5.781   4.253  11.867  0.5311 -0.4037 -0.4687
16291TIP3   OH270287   0.151   5.294  17.009  0.2190  0.0543  0.1936
16291TIP3    H170288   0.157   5.335  17.096 -0.9431  0.9461 -0.1296
16291TIP3    H270289   0.167   5.201  17.026  0.3034  0.2559  1.3201
16292TIP3   OH270290   2.329   2.303   1.760 -0.2663  0.1535 -0.4432
16292TIP3    H170291   2.413   2.262   1.783  0.7818  0.7018 -3.1018
16292TIP3    H270292   2.353   2.374   1.700 -2.6008  0.6017 -0.8835
16293TIP3   OH270293   6.290   6.453   4.356 -0.1852 -0.1510  0.2290
16293TIP3    H170294   6.268   6.486   4.443 -2.6147 -0.2378 -0.3147
16293TIP3    H270295   6.214   6.401   4.330  0.5422 -0.1886 -1.9064
16294TIP3   OH270296   0.609   1.807  13.412 -0.0435 -0.1323 -0.5024
16294TIP3    H170297   0.539   1.855  13.369 -0.9517 -2.8231 -2.1689
16294TIP3    H270298   0.668   1.782  13.341  0.3853 -1.4480  0.2953
16295TIP3   OH270299   3.793   0.475  15.122  0.4919 -0.3841  0.4982
16295TIP3    H170300   3.745   0.487  15.204  0.4714  0.4153  0.3780
16295TIP3    H270301   3.884   0.465  15.148  0.6050  0.7387  0.5789
16296TIP3   OH270302   5.946   2.806  15.682  0.3098  0.2003  0.2824
16296TIP3    H170303   6.013   2.757  15.730 -0.3503  0.3611  1.3809
16296TIP3    H270304   5.991   2.882  15.647  0.7186  0.2459  0.9173
16297TIP3   OH270305   1.050   2.897   2.318 -0.0754  0.0756 -0.2784
16297TIP3    H170306   1.016   2.837   2.251  0.0712 -0.4161  0.0817
16297TIP3    H270307   1.077   2.839   2.389  1.7364  0.4519 -0.6472
16298TIP3   OH270308   4.352   1.872  13.616  0.3479 -0.2470  0.0402
16298TIP3    H170309   4.443   1.846  13.601  1.0212  0.8389  2.0931
16298TIP3    H270310   4.343   1.955  13.571 -0.1806 -1.2532 -1.7422
16299TIP3   OH270311   3.612   0.500  14.558 -0.7699 -0.0017  0.4093
16299TIP3    H170312   3.605   0.422  14.504 -2.4910  0.9699 -0.8157
16299TIP3    H270313   3.528   0.506  14.604  0.2030 -0.1193  2.2384
16300TIP3   OH270314   5.271   0.425   0.772 -0.2377  0.4673  0.4023
16300TIP3    H170315   5.246   0.335   0.752 -0.4565  0.7937 -0.8474
16300TIP3    H270316   5.234   0.442   0.859 -0.1566 -0.6547  0.6563
16301TIP3   OH270317   5.200   4.660  17.078 -0.0118 -0.1821 -0.0363
16301TIP3    H170318   5.229   4.709  17.155  0.2452  0.2613 -0.4138
16301TIP3    H270319   5.232   4.710  17.004  0.3166 -0.9572 -0.4278
16302TIP3   OH270320   5.405   5.156   2.702  0.6086 -0.1914  0.2101
16302TIP3    H170321   5.412   5.159   2.607  1.2003  0.5208  0.2736
16302TIP3    H270322   5.385   5.246   2.728 -1.4844 -0.7459  0.6222
16303TIP3   OH270323   2.421   0.704  13.830 -0.0114  0.4921  0.5802
16303TIP3    H170324   2.422   0.619  13.875 -1.6053  0.4329  0.5311
16303TIP3    H270325   2.442   0.767  13.899 -1.6758  0.3256  1.2733
16304TIP3   OH270326   0.154   5.577   1.506  0.1816 -0.2734 -0.6215
16304TIP3    H170327   0.141   5.631   1.428 -0.9222  1.8338  0.9535
16304TIP3    H270328   0.067   5.543   1.527 -0.1010  1.4648  1.2490
16305TIP3   OH270329   5.632   3.438  13.697  0.0222 -0.3790  0.3718
16305TIP3    H170330   5.660   3.418  13.787  0.4842 -0.1712  0.2746
16305TIP3    H270331   5.649   3.358  13.648  2.0292  0.2896 -0.0548
16306TIP3   OH270332   0.596   2.874   1.153 -0.0612 -0.2502  0.1127
16306TIP3    H170333   0.572   2.814   1.223  0.6320 -1.1989 -0.4469
16306TIP3    H270334   0.691   2.863   1.143 -0.2511 -0.6633 -1.4362
16307TIP3   OH270335   2.557   2.627  14.703  0.3825 -0.1041 -0.4375
16307TIP3    H170336   2.467   2.654  14.687 -0.3077 -1.6592  0.6679
16307TIP3    H270337   2.587   2.681  14.776  0.9716  1.6710 -1.9606
16308TIP3   OH270338   2.286   1.643  12.890  0.7378 -0.3296 -0.3365
16308TIP3    H170339   2.196   1.653  12.860  1.0008 -0.2229 -1.0903
16308TIP3    H270340   2.309   1.554  12.864  0.2793 -0.9777  1.3874
16309TIP3   OH270341   0.489   1.991  13.196  0.5460  0.4312 -0.2651
16309TIP3    H170342   0.407   2.040  13.194 -1.0834 -2.2109 -0.1023
16309TIP3    H270343   0.513   1.980  13.104 -0.6542 -0.9623 -0.4309
16310TIP3   OH270344   0.277   2.475   0.442  0.5078 -0.4667  0.4003
16310TIP3    H170345   0.228   2.545   0.399  0.2149 -0.5060  0.6715
16310TIP3    H270346   0.301   2.416   0.370  2.1952  0.7671 -0.0692
16311TIP3   OH270347   5.194   2.227   5.381  0.6359 -0.1332 -0.4434
16311TIP3    H170348   5.144   2.151   5.351 -0.6362 -0.0088  1.3416
16311TIP3    H270349   5.156   2.301   5.334  1.3478 -0.4651 -1.5771
16312TIP3   OH270350   4.063   1.143  13.393 -0.3399  0.1461  0.5827
16312TIP3    H170351   3.969   1.140  13.409 -0.2173 -0.6323  1.1660
16312TIP3    H270352   4.085   1.236  13.395 -0.9808  0.2860  1.0835
16313TIP3   OH270353   6.264   4.287  13.689  0.3612 -0.0505 -0.0102
16313TIP3    H170354   6.173   4.272  13.716  0.6590 -0.0905  0.9730
16313TIP3    H270355   6.275   4.382  13.695 -0.2748  0.1931 -2.2613
16314TIP3   OH270356   5.230   6.667  12.323 -0.2990 -0.2074  0.0944
16314TIP3    H170357   5.309   6.694  12.276 -1.1238  1.7403 -0.2183
16314TIP3    H270358   5.242   6.702  12.412  0.1202 -1.7092  0.6397
16315TIP3   OH270359   1.120   2.235   4.468 -0.4040 -0.5838  0.7912
16315TIP3    H170360   1.195   2.232   4.409 -0.6536 -2.0448  0.5275
16315TIP3    H270361   1.110   2.327   4.490  1.8822 -0.4505  1.3503
16316TIP3   OH270362   3.008   3.640  15.108 -0.1584 -0.4017 -0.1767
16316TIP3    H170363   2.948   3.653  15.035  0.9167  0.2693 -0.9474
16316TIP3    H270364   2.961   3.582  15.168 -1.4649 -0.0890 -0.8944
16317TIP3   OH270365   6.467   2.578   2.747 -0.3548  0.0317  0.7888
16317TIP3    H170366   6.399   2.566   2.814 -0.4790  1.2334  0.8966
16317TIP3    H270367   6.421   2.621   2.675 -0.5637 -2.5376 -0.6916
16318TIP3   OH270368   2.972   4.014   4.163  0.1499 -0.8196 -0.3919
16318TIP3    H170369   2.891   3.991   4.118  1.7046 -0.9299 -3.2306
16318TIP3    H270370   3.000   3.933   4.205  1.2615 -2.1381 -3.4782
16319TIP3   OH270371   1.985   2.826  13.129  0.3071 -0.2812  0.7118
16319TIP3    H170372   2.049   2.859  13.192 -1.8005 -1.5074  3.5942
16319TIP3    H270373   1.931   2.903  13.107  1.5071  0.3106 -0.1872
16320TIP3   OH270374   2.476   6.231   0.868 -0.7559 -0.1415 -1.0521
16320TIP3    H170375   2.501   6.152   0.821  0.4109 -1.7342  2.1132
16320TIP3    H270376   2.544   6.295   0.845 -0.7226 -0.5884 -2.2252
16321TIP3   OH270377   6.532   2.976   1.116  0.0256 -0.1493  0.2358
16321TIP3    H170378   6.553   2.884   1.134 -1.1233 -0.2553  1.0897
16321TIP3    H270379   6.449   2.971   1.067  0.1358  0.4225 -0.0079
16322TIP3   OH270380   2.423   3.510   3.536 -0.3831  0.4365  1.1542
16322TIP3    H170381   2.517   3.521   3.551 -0.1261 -1.3465  0.9307
16322TIP3    H270382   2.406   3.557   3.455  0.5031 -0.0657  0.6739
16323TIP3   OH270383   0.589   3.030  12.006  0.3531 -0.1309 -0.1355
16323TIP3    H170384   0.498   3.046  11.980  0.6727  3.6894  0.7306
16323TIP3    H270385   0.585   3.019  12.101  0.8957  1.3706  0.0807
16324TIP3   OH270386   0.708   6.532   4.374 -0.5529  0.0222  0.0002
16324TIP3    H170387   0.740   6.452   4.416 -3.1715 -0.8114  0.4959
16324TIP3    H270388   0.716   6.515   4.280 -1.9271 -1.2157  0.0837
16325TIP3   OH270389   3.742   3.630   4.258  0.6146 -0.2844  0.5246
16325TIP3    H170390   3.805   3.702   4.259 -0.0160  0.2573  0.9589
16325TIP3    H270391   3.750   3.590   4.345  0.2743 -0.1395  0.6232
16326TIP3   OH270392   4.707   3.177   4.370  0.3153 -0.6166  0.8184
16326TIP3    H170393   4.726   3.243   4.437  0.6899 -0.4864  0.5850
16326TIP3    H270394   4.785   3.175   4.315 -0.3940  0.0601 -0.2514
16327TIP3   OH270395   5.133   2.972  10.508  0.0219 -0.9818  0.5805
16327TIP3    H170396   5.178   2.892  10.481 -0.8833 -1.6751  1.0812
16327TIP3    H270397   5.040   2.953  10.492 -0.0586  0.7027 -1.1705
16328TIP3   OH270398   2.208   6.071  16.309 -0.3803  0.5611 -0.0659
16328TIP3    H170399   2.153   5.997  16.283  0.5100 -0.2660  0.3380
16328TIP3    H270400   2.256   6.094  16.229  0.5156 -0.3513  0.1941
16329TIP3   OH270401   5.383   3.762   4.449 -0.1534 -0.2008  0.1240
16329TIP3    H170402   5.315   3.698   4.426  1.5314 -1.6461 -0.9632
16329TIP3    H270403   5.462   3.710   4.461  1.4929  1.7645 -1.7464
16330TIP3   OH270404   1.031   0.126   1.234 -0.0860  0.1639  0.1777
16330TIP3    H170405   0.959   0.071   1.202  0.2186 -0.0469 -0.1429
16330TIP3    H270406   1.110   0.074   1.218 -0.0313 -0.4892  2.4175
16331TIP3   OH270407   2.378   1.007   3.942  0.4499  0.4948 -0.1317
16331TIP3    H170408   2.461   0.964   3.964  0.3443  0.7804  0.8777
16331TIP3    H270409   2.354   0.971   3.857  1.4646  0.1907 -0.2978
16332TIP3   OH270410   4.363   3.667  12.838 -0.4105 -0.3248 -0.0301
16332TIP3    H170411   4.439   3.723  12.822  1.0736 -2.3835 -0.4414
16332TIP3    H270412   4.352   3.618  12.756  0.0248 -2.5478  1.1931
16333TIP3   OH270413   1.275   6.424  16.222  0.1206  0.3389  1.0330
16333TIP3    H170414   1.288   6.473  16.141  2.3799 -2.3714 -0.3341
16333TIP3    H270415   1.343   6.457  16.281  1.3800 -0.8361  0.2535
16334TIP3   OH270416   0.552   3.377   3.517 -0.4955  0.9811 -0.2314
16334TIP3    H170417   0.490   3.435   3.473  0.6112  1.3514 -1.3416
16334TIP3    H270418   0.603   3.339   3.445 -1.4648 -1.6872  0.4198
16335TIP3   OH270419   0.477   5.799  12.805  0.0120 -0.2404 -0.1188
16335TIP3    H170420   0.438   5.714  12.784 -1.1638  0.0419  0.8194
16335TIP3    H270421   0.555   5.777  12.856 -0.1729 -0.7748 -0.0519
16336TIP3   OH270422   0.177   1.015  12.628 -0.0517 -0.1567  0.0600
16336TIP3    H170423   0.254   0.986  12.580 -1.2351  1.1189 -2.7319
16336TIP3    H270424   0.212   1.069  12.699  1.6820 -1.0567 -0.0799
16337TIP3   OH270425   1.416   2.538  12.992  0.0852  0.2468  0.0880
16337TIP3    H170426   1.336   2.502  12.954  1.2592 -3.2617  0.7633
16337TIP3    H270427   1.478   2.540  12.919  0.3712 -0.3110  0.3059
16338TIP3   OH270428   4.547   3.727  12.440 -0.0213  0.2661 -0.5313
16338TIP3    H170429   4.599   3.808  12.435  2.0515 -1.0619 -1.1134
16338TIP3    H270430   4.583   3.672  12.371 -1.4457 -1.1630 -0.1452
16339TIP3   OH270431   4.758   1.636  14.077  0.3175 -0.1504  0.2702
16339TIP3    H170432   4.831   1.694  14.054 -0.1609  1.2237  2.0269
16339TIP3    H270433   4.689   1.658  14.014  0.1293  1.2639  0.9426
16340TIP3   OH270434   4.590   0.829  14.484  0.0014  0.7554  0.1730
16340TIP3    H170435   4.650   0.807  14.554  1.9705  2.2337 -0.9999
16340TIP3    H270436   4.622   0.779  14.408 -1.0047  0.5976 -0.1599
16341TIP3   OH270437   5.807   5.224  11.553  0.2195 -0.0946 -0.0825
16341TIP3    H170438   5.728   5.190  11.511  0.1981  0.0861 -0.1907
16341TIP3    H270439   5.878   5.201  11.492  0.4101 -1.2971  0.5766
16342TIP3   OH270440   0.153   3.020   3.365 -0.2250 -0.0965  0.0782
16342TIP3    H170441   0.221   3.002   3.431  0.2939 -0.3549 -0.5208
16342TIP3    H270442   0.100   2.940   3.363  0.3070 -0.4365 -0.4692
16343TIP3   OH270443   0.095   3.751  13.824  0.1512  0.4531  0.4774
16343TIP3    H170444   0.154   3.780  13.893  0.0444  1.0914  0.2959
16343TIP3    H270445   0.018   3.808  13.832 -0.7949 -0.8760  1.2226
16344TIP3   OH270446   1.331   3.091  16.840  0.5175  0.1388  0.4051
16344TIP3    H170447   1.425   3.080  16.824  0.7266  1.1831  0.9271
16344TIP3    H270448   1.323   3.096  16.935 -0.0698  0.0860  0.3612
16345TIP3   OH270449   1.024   6.115  12.478  0.5505  0.3930  0.2597
16345TIP3    H170450   0.979   6.084  12.399  1.7813 -0.3999 -0.1444
16345TIP3    H270451   1.001   6.208  12.484  0.0760  0.3471 -0.7805
16346TIP3   OH270452   5.786   0.661  12.953 -0.0515 -0.4056  0.6806
16346TIP3    H170453   5.715   0.656  13.018 -0.6521  1.2946  0.1767
16346TIP3    H270454   5.756   0.605  12.881 -1.4130  1.1316  0.0055
16347TIP3   OH270455   4.016   3.301  13.677  0.4102 -0.0411 -0.2938
16347TIP3    H170456   4.040   3.208  13.681  3.3232  0.6531 -0.2704
16347TIP3    H270457   3.991   3.315  13.585  0.6640 -0.6997 -0.4686
16348TIP3   OH270458   5.936   1.046  15.862  0.0173  0.0852  0.1811
16348TIP3    H170459   5.897   1.066  15.946  0.7772  0.8588  0.3581
16348TIP3    H270460   5.863   1.020  15.806 -0.7331  1.4661  0.5179
16349TIP3   OH270461   2.578   0.222  13.146  0.2776 -0.1619 -0.1203
16349TIP3    H170462   2.549   0.313  13.140  1.3450  0.1785 -0.1734
16349TIP3    H270463   2.603   0.210  13.237 -0.3331 -0.5494 -0.0003
16350TIP3   OH270464   0.750   3.087  13.553 -0.0754 -0.1576  0.3290
16350TIP3    H170465   0.791   3.083  13.466  0.7825  0.7742  0.6891
16350TIP3    H270466   0.687   3.159  13.546  0.0883  0.0033  0.5216
16351TIP3   OH270467   4.176   5.353   4.612  0.6000  0.4623  0.2037
16351TIP3    H170468   4.143   5.304   4.687  0.1593  0.4891  0.0273
16351TIP3    H270469   4.165   5.295   4.537  1.0647  0.4257  0.1610
16352TIP3   OH270470   2.203   1.375   4.565 -0.2660  0.4985 -0.0870
16352TIP3    H170471   2.222   1.463   4.599 -0.1288  0.6619 -0.5863
16352TIP3    H270472   2.148   1.390   4.489 -1.1688  0.0926  0.4823
16353TIP3   OH270473   4.504   6.761   2.377  0.2076  0.1401 -0.0619
16353TIP3    H170474   4.549   6.790   2.298 -1.3099  0.7671 -0.7242
16353TIP3    H270475   4.516   6.834   2.439  0.0741  0.3223 -0.2490
16354TIP3   OH270476   0.588   3.645   0.822 -0.4405  0.1385  0.6094
16354TIP3    H170477   0.556   3.565   0.863 -0.9321  0.0879  0.1377
16354TIP3    H270478   0.680   3.627   0.802 -0.7583 -0.5959 -0.1994
16355TIP3   OH270479   5.953   1.127   5.232  0.1107 -0.0467  0.3280
16355TIP3    H170480   6.048   1.111   5.230  0.2056  0.4711  0.6757
16355TIP3    H270481   5.929   1.141   5.140  0.3374 -0.3679  0.2182
16356TIP3   OH270482   6.377   6.317  14.551 -0.1323  0.2038  0.1278
16356TIP3    H170483   6.351   6.321  14.459 -0.2226  0.9040  0.1817
16356TIP3    H270484   6.313   6.257  14.591  0.5244 -0.9060 -0.4653
16357TIP3   OH270485   2.982   3.854   4.385  0.2639  0.0453  0.4656
16357TIP3    H170486   2.892   3.872   4.358  0.7124  0.9266 -0.4740
16357TIP3    H270487   2.974   3.810   4.469 -1.1219 -1.5459 -0.4702
16358TIP3   OH270488   5.906   5.041   6.475 -0.9752  0.1907  0.6763
16358TIP3    H170489   5.867   5.117   6.519 -2.9011  0.6794 -1.7568
16358TIP3    H270490   5.870   4.966   6.522 -1.7322  0.7308  0.9737
16359TIP3   OH270491   0.843   6.076  13.911 -0.6562  0.3737 -0.6719
16359TIP3    H170492   0.768   6.031  13.950  0.1625  0.3782  0.9690
16359TIP3    H270493   0.905   6.006  13.890  0.0462  0.6068  0.5975
16360TIP3   OH270494   5.522   1.977   5.227 -0.6382  0.4642  0.2212
16360TIP3    H170495   5.584   2.049   5.217 -0.9725  0.8170  0.6640
16360TIP3    H270496   5.444   2.006   5.179  1.2703 -2.1186 -4.7273
16361TIP3   OH270497   0.975   6.198   2.977 -0.2687 -0.6878  0.1533
16361TIP3    H170498   0.991   6.291   2.962 -1.8745 -0.2231  1.1544
16361TIP3    H270499   0.900   6.177   2.920 -2.4553 -0.3795  2.7876
16362TIP3   OH270500   5.730   5.010  12.823  0.7329  0.0467  0.4238
16362TIP3    H170501   5.668   4.985  12.892  2.7322 -1.1011  1.8547
16362TIP3    H270502   5.710   4.951  12.750  1.0593 -1.3016  1.3988
16363TIP3   OH270503   1.994   2.476   4.587 -0.6752 -0.1392  0.6018
16363TIP3    H170504   1.926   2.493   4.523  0.2353  0.2441 -0.2628
16363TIP3    H270505   2.022   2.386   4.569 -0.2177  0.0707  0.2888
16364TIP3   OH270506   5.613   3.889  16.071 -0.2033 -0.2737  0.5379
16364TIP3    H170507   5.666   3.906  16.149  0.5625 -0.6660  0.1106
16364TIP3    H270508   5.585   3.798  16.081  1.3111 -0.8749 -0.4558
16365TIP3   OH270509   1.919   6.397   5.315 -0.1896  0.5062  0.1512
16365TIP3    H170510   1.831   6.433   5.309  0.1606  1.3598  0.1601
16365TIP3    H270511   1.972   6.452   5.258  0.5502  0.6526  0.9568
16366TIP3   OH270512   3.340   0.687   5.809 -0.2362  0.1236 -0.1623
16366TIP3    H170513   3.361   0.723   5.895 -2.2136  0.3467  0.2487
16366TIP3    H270514   3.388   0.744   5.747 -0.7412  1.4572  0.6539
16367TIP3   OH270515   4.256   2.712  12.506 -0.1793 -0.6053  0.5455
16367TIP3    H170516   4.207   2.632  12.487  0.3898 -0.7075 -0.5213
16367TIP3    H270517   4.346   2.691  12.483  0.1023  0.1071  0.9822
16368TIP3   OH270518   3.455   4.761   4.234  0.5082  1.0455 -0.3490
16368TIP3    H170519   3.412   4.708   4.167  0.5152 -0.2063  0.6132
16368TIP3    H270520   3.490   4.836   4.187 -0.8670  0.9795 -1.4892
16369TIP3   OH270521   2.498   0.381  16.604  0.5082  0.1114  0.4975
16369TIP3    H170522   2.524   0.290  16.589  1.9828  0.1834  2.3649
16369TIP3    H270523   2.439   0.402  16.532  2.1446 -1.5179 -1.3606
16370TIP3   OH270524   1.305   1.794   0.708 -0.4330 -0.3241 -0.0587
16370TIP3    H170525   1.270   1.881   0.732  1.7298 -0.1704  2.8404
16370TIP3    H270526   1.369   1.812   0.640  1.2529  0.6433  1.7094
16371TIP3   OH270527   0.721   0.436   1.678  0.0529  0.3467  0.1146
16371TIP3    H170528   0.704   0.456   1.586 -0.1174  0.1093  0.0938
16371TIP3    H270529   0.702   0.517   1.725  3.8126  1.6674 -0.4815
16372TIP3   OH270530   4.191   3.375  15.652  0.1310  0.0517  0.4463
16372TIP3    H170531   4.211   3.365  15.745 -0.4414 -1.8727  0.3886
16372TIP3    H270532   4.255   3.319  15.608 -0.3889 -0.0081 -0.2388
16373TIP3   OH270533   1.498   0.287   0.998  0.4569  0.4037  0.1767
16373TIP3    H170534   1.542   0.239   1.068  1.3146 -1.1670 -1.3785
16373TIP3    H270535   1.433   0.225   0.964 -0.2724  1.3225 -0.1090
16374TIP3   OH270536   3.650   5.786   2.052  0.3160  0.4458  0.5149
16374TIP3    H170537   3.713   5.721   2.022  0.3395  0.8264 -0.2725
16374TIP3    H270538   3.700   5.868   2.056 -0.6565  1.2412 -2.3782
16375TIP3   OH270539   4.567   6.080   4.407 -0.0997 -0.2789  0.2241
16375TIP3    H170540   4.549   6.174   4.406  1.8187  0.1036  0.3251
16375TIP3    H270541   4.504   6.044   4.469 -0.1090  1.1084  1.0372
16376TIP3   OH270542   3.679   3.510   3.273  0.0962  0.3280 -0.4208
16376TIP3    H170543   3.633   3.473   3.198  1.0164 -1.5844 -0.0732
16376TIP3    H270544   3.622   3.581   3.303 -1.2768 -0.2135 -1.6672
16377TIP3   OH270545   2.139   2.616   0.453 -0.6327  0.1160 -0.0092
16377TIP3    H170546   2.169   2.664   0.531 -0.2104  1.1960 -0.8188
16377TIP3    H270547   2.046   2.637   0.446 -1.1437 -1.6513  1.3843
16378TIP3   OH270548   1.468   6.627  13.164  0.1229  0.2098  0.9408
16378TIP3    H170549   1.514   6.572  13.227 -0.1698  0.8428  1.7121
16378TIP3    H270550   1.537   6.671  13.115  0.3765 -1.4499 -0.2469
16379TIP3   OH270551   0.369   5.148  14.275 -0.0444  0.0574 -0.1147
16379TIP3    H170552   0.372   5.243  14.261  0.3754  0.1522  0.5904
16379TIP3    H270553   0.283   5.132  14.313 -0.5311  0.0181 -1.2477
16380TIP3   OH270554   1.197   6.733  13.123  0.1623  0.0584 -0.1098
16380TIP3    H170555   1.262   6.663  13.132  1.0831  0.7840 -1.0343
16380TIP3    H270556   1.245   6.813  13.145 -0.2181  0.6779 -1.4860
16381TIP3   OH270557   4.546   3.468  13.414  0.5653  0.2876  0.2663
16381TIP3    H170558   4.630   3.499  13.447  0.8377 -0.9182  0.7202
16381TIP3    H270559   4.556   3.374  13.405 -0.3395  0.2757 -0.8631
16382TIP3   OH270560   5.500   4.154   2.613 -0.1574 -0.3344 -0.3498
16382TIP3    H170561   5.508   4.238   2.656 -0.6443 -1.1527  1.3639
16382TIP3    H270562   5.591   4.124   2.603 -0.0021  0.2372 -0.6737
16383TIP3   OH270563   6.231   1.417  11.375  0.8463  0.3381  0.0480
16383TIP3    H170564   6.172   1.491  11.365 -0.0323 -0.3703 -0.0826
16383TIP3    H270565   6.245   1.384  11.286  0.4017 -0.2792  0.1984
16384TIP3   OH270566   1.917   4.220   4.559  0.4700 -0.1160 -0.2359
16384TIP3    H170567   1.915   4.126   4.540  0.8128  0.1046 -1.4645
16384TIP3    H270568   1.878   4.228   4.645  1.6274 -1.5241  0.4442
16385TIP3   OH270569   3.712   0.628  12.720 -0.0526 -0.4782  0.0193
16385TIP3    H170570   3.625   0.651  12.688  0.1215 -0.9485 -0.8020
16385TIP3    H270571   3.702   0.623  12.815 -0.0759  3.1025  0.2610
16386TIP3   OH270572   4.311   1.523  11.640  0.2670 -0.5775 -0.1638
16386TIP3    H170573   4.239   1.478  11.596  0.6480 -2.0693  0.7222
16386TIP3    H270574   4.348   1.581  11.573 -0.5749 -1.1765 -1.1524
16387TIP3   OH270575   6.502   6.762  14.084 -0.8856  0.0130 -0.1325
16387TIP3    H170576   6.474   6.729  13.998  0.1037  0.7237 -0.7375
16387TIP3    H270577   6.487   6.856  14.079  1.4831  0.3997 -0.4358
16388TIP3   OH270578   5.748   3.684   3.245  0.4130 -0.3329 -0.1544
16388TIP3    H170579   5.825   3.732   3.276  0.2681 -0.6680  0.7359
16388TIP3    H270580   5.740   3.610   3.305  0.3569 -1.2203 -1.2423
16389TIP3   OH270581   5.008   5.449   2.803  0.4645 -0.5217  0.4699
16389TIP3    H170582   5.077   5.442   2.868  0.8560  0.1588  0.1391
16389TIP3    H270583   5.041   5.514   2.740 -0.7057  0.2222  0.6072
16390TIP3   OH270584   6.504   3.451  14.234  0.2849 -0.1103  0.3566
16390TIP3    H170585   6.499   3.506  14.312 -1.9087 -0.8850  0.7776
16390TIP3    H270586   6.517   3.512  14.162  0.9254  0.7150  1.1649
16391TIP3   OH270587   1.152   5.399   5.373 -0.1367 -0.0779 -0.1191
16391TIP3    H170588   1.110   5.336   5.314 -1.6096  0.3657  0.4433
16391TIP3    H270589   1.128   5.369   5.461 -0.9562  1.3339  0.1529
16392TIP3   OH270590   3.009   4.497   2.416 -0.2770 -0.6185  0.5242
16392TIP3    H170591   3.036   4.570   2.360  1.5833 -0.7707  1.1758
16392TIP3    H270592   3.090   4.471   2.460 -1.6877 -0.4844  3.2841
16393TIP3   OH270593   0.692   2.622  15.861  0.1162  0.0613  0.3256
16393TIP3    H170594   0.627   2.666  15.806  0.7957  2.0244  1.0430
16393TIP3    H270595   0.775   2.662  15.836  1.1184 -2.6090 -0.7633
16394TIP3   OH270596   4.075   4.207  12.884  0.0143  0.1773  0.1183
16394TIP3    H170597   4.108   4.288  12.845  0.9776 -0.0302  0.4964
16394TIP3    H270598   4.142   4.183  12.948 -1.0537 -0.0388  1.1602
16395TIP3   OH270599   4.565   4.421   2.785  0.5628 -0.1114 -0.3972
16395TIP3    H170600   4.646   4.432   2.834  0.8208 -1.9965 -0.3516
16395TIP3    H270601   4.528   4.340   2.819 -1.1519  0.5304 -0.6930
16396TIP3   OH270602   6.406   2.636   4.466  0.1333  0.6848  0.2967
16396TIP3    H170603   6.395   2.639   4.562  1.4121 -3.0227  0.6291
16396TIP3    H270604   6.345   2.569   4.437  2.5091 -1.0011 -0.9930
16397TIP3   OH270605   6.561   4.173   2.769 -0.2387  0.3134  0.8050
16397TIP3    H170606   6.478   4.129   2.787 -0.0676 -0.0037  0.8247
16397TIP3    H270607   6.540   4.238   2.702  0.0016 -1.5157 -1.0928
16398TIP3   OH270608   1.636   0.548   3.506 -0.1865 -0.8966 -0.3424
16398TIP3    H170609   1.643   0.607   3.581  1.1755  0.5037 -1.5166
16398TIP3    H270610   1.645   0.460   3.543  2.0708 -0.1534  0.9470
16399TIP3   OH270611   4.397   3.636  15.646 -0.0532 -0.0516  0.2001
16399TIP3    H170612   4.418   3.725  15.673 -0.6844 -0.1153  0.9284
16399TIP3    H270613   4.439   3.581  15.712 -0.2376 -0.2715  0.1323
16400TIP3   OH270614   1.973   4.464   5.498 -0.0270 -0.2635 -0.4995
16400TIP3    H170615   1.941   4.513   5.422  2.0146  0.7324 -0.7613
16400TIP3    H270616   2.039   4.405   5.462  1.0951  0.3518  0.4968
16401TIP3   OH270617   3.301   1.398   2.461  0.0136  0.1876  0.1392
16401TIP3    H170618   3.372   1.430   2.405  0.6992  1.3527  1.6361
16401TIP3    H270619   3.305   1.303   2.452  2.7625  0.1412  1.3518
16402TIP3   OH270620   5.514   0.501   2.077 -0.5050 -0.0492  0.1057
16402TIP3    H170621   5.559   0.576   2.038  0.5921 -0.1343  1.1907
16402TIP3    H270622   5.516   0.434   2.009  0.7404  0.0488  0.0505
16403TIP3   OH270623   6.458   2.802   2.310  0.0071 -0.2399  0.7283
16403TIP3    H170624   6.438   2.763   2.396  1.2502 -1.5837  0.4412
16403TIP3    H270625   6.389   2.768   2.252 -1.6289  1.7602  1.4600
16404TIP3   OH270626   1.547   5.964  16.285 -0.1387  0.3890  0.2039
16404TIP3    H170627   1.502   6.048  16.282 -3.9513 -1.6089 -1.6059
16404TIP3    H270628   1.605   5.966  16.209  2.2878  2.6041  2.0163
16405TIP3   OH270629   3.091   0.340  12.499 -0.3606  0.0671 -0.4420
16405TIP3    H170630   3.130   0.301  12.578 -1.5027  0.2218  0.2191
16405TIP3    H270631   3.090   0.270  12.435  1.0242  0.0704 -0.4871
16406TIP3   OH270632   3.443   1.621   1.845 -0.0848  0.3038 -0.4801
16406TIP3    H170633   3.396   1.628   1.762 -0.9440 -2.1963 -0.2511
16406TIP3    H270634   3.468   1.711   1.866 -2.3934  1.3580 -1.9961
16407TIP3   OH270635   5.548   4.385   4.610 -0.0118  0.2653  0.1038
16407TIP3    H170636   5.473   4.382   4.669 -1.1768  2.8947 -1.1683
16407TIP3    H270637   5.549   4.298   4.569 -3.4377  0.6786 -1.0680
16408TIP3   OH270638   5.788   4.820  16.824 -0.2648 -0.3235 -0.2630
16408TIP3    H170639   5.795   4.902  16.773 -0.0802  0.0790  0.4053
16408TIP3    H270640   5.712   4.834  16.881 -1.0252 -1.1294 -1.0564
16409TIP3   OH270641   4.779   1.972   0.895 -0.8585 -0.1322 -0.5173
16409TIP3    H170642   4.867   2.003   0.917 -1.9282  1.8101  1.1879
16409TIP3    H270643   4.764   1.897   0.953 -0.4541 -0.2368 -0.5515
16410TIP3   OH270644   5.723   4.114  12.007 -0.3457 -0.3198  0.2718
16410TIP3    H170645   5.735   4.180  12.075  2.4774  0.3853 -0.8000
16410TIP3    H270646   5.773   4.038  12.038  3.0856  0.8463 -1.9746
16411TIP3   OH270647   3.038   0.803   4.644  0.4132  0.0770  0.4950
16411TIP3    H170648   3.093   0.743   4.594 -0.0014  0.8214 -0.8835
16411TIP3    H270649   3.003   0.750   4.716  1.4366 -0.8674  0.3040
16412TIP3   OH270650   2.310   6.051   4.642 -0.0913 -0.5819  0.4580
16412TIP3    H170651   2.276   6.091   4.561  0.9168 -1.5098 -0.4347
16412TIP3    H270652   2.232   6.026   4.691 -0.7200  0.4253 -0.0041
16413TIP3   OH270653   5.117   3.563   4.467  0.1504 -0.5489  0.4435
16413TIP3    H170654   5.087   3.545   4.556  1.1885 -0.3562  0.8477
16413TIP3    H270655   5.042   3.605   4.424 -0.1357 -0.0407  1.4297
16414TIP3   OH270656   0.101   1.688  14.389  0.4683 -0.1230  0.5223
16414TIP3    H170657   0.089   1.720  14.300  1.1716 -0.6485  0.2250
16414TIP3    H270658   0.069   1.759  14.445 -3.3577 -1.2336 -0.1672
16415TIP3   OH270659   2.068   5.413  14.181 -0.0629 -0.1582 -0.5498
16415TIP3    H170660   2.086   5.320  14.195  1.3089 -0.2170 -2.5063
16415TIP3    H270661   1.973   5.421  14.188 -0.0665 -1.4104  1.1842
16416TIP3   OH270662   5.189   5.691   2.379 -0.3952 -0.8219  0.3538
16416TIP3    H170663   5.153   5.751   2.314 -0.8975 -1.9838 -0.4401
16416TIP3    H270664   5.282   5.686   2.357 -0.3740 -0.4363  0.3454
16417TIP3   OH270665   5.273   2.325   2.559 -0.2865 -0.2312  0.1491
16417TIP3    H170666   5.321   2.308   2.477 -2.8912  1.5678 -1.8383
16417TIP3    H270667   5.324   2.394   2.602  1.2759 -1.4068  0.2042
16418TIP3   OH270668   1.546   2.829   3.688  0.2106 -0.0366 -0.1373
16418TIP3    H170669   1.508   2.915   3.707 -1.4461 -0.6877 -0.3841
16418TIP3    H270670   1.537   2.780   3.770 -1.0592 -0.7473 -0.6874
16419TIP3   OH270671   6.132   0.734   1.633 -0.0475 -0.0336  0.0338
16419TIP3    H170672   6.133   0.830   1.635 -0.8805 -0.0342  0.3441
16419TIP3    H270673   6.174   0.708   1.715  0.6928  0.0636 -0.3093
16420TIP3   OH270674   0.924   0.319  15.295 -0.1707  0.1469 -0.1341
16420TIP3    H170675   0.867   0.395  15.288  0.7138  1.1012  2.2652
16420TIP3    H270676   0.959   0.324  15.384  1.8852 -1.6546 -0.7913
16421TIP3   OH270677   4.532   6.630   4.770 -0.1711  0.1969 -0.0222
16421TIP3    H170678   4.469   6.697   4.744  0.0836  0.6481  0.4977
16421TIP3    H270679   4.618   6.670   4.754 -0.0176 -0.0923  0.0641
16422TIP3   OH270680   0.972   1.113  16.514  0.3906 -0.3692 -0.2079
16422TIP3    H170681   1.027   1.190  16.504 -1.4002  1.1665  1.3434
16422TIP3    H270682   0.884   1.143  16.490 -0.4238 -1.7736  0.9380
16423TIP3   OH270683   2.394   6.042  12.106 -0.0454 -0.1056  0.5097
16423TIP3    H170684   2.421   6.133  12.112 -1.9131  0.5723 -0.9103
16423TIP3    H270685   2.430   6.001  12.184  0.4147  1.9497  1.4005
16424TIP3   OH270686   2.436   0.734  11.691 -0.1473 -0.6269  0.1765
16424TIP3    H170687   2.439   0.639  11.700 -1.3029 -0.6502  0.3769
16424TIP3    H270688   2.405   0.748  11.602  1.0739 -0.4212 -0.2309
16425TIP3   OH270689   4.246   5.702   2.587  0.3212  0.1295 -0.5019
16425TIP3    H170690   4.206   5.616   2.597  1.8950 -0.5706 -0.1465
16425TIP3    H270691   4.334   5.685   2.554  1.5231  1.4275  1.8942
16426TIP3   OH270692   0.435   5.306  10.763 -0.1268 -0.0450  0.0392
16426TIP3    H170693   0.406   5.230  10.814  0.5257 -1.0835 -1.1186
16426TIP3    H270694   0.514   5.336  10.807  0.2758 -0.7626 -0.1921
16427TIP3   OH270695   1.764   1.517  16.741 -0.1786  0.0365 -0.4043
16427TIP3    H170696   1.770   1.468  16.659 -0.7642 -0.0495 -0.3919
16427TIP3    H270697   1.845   1.568  16.744 -0.9631  1.4236 -1.9212
16428TIP3   OH270698   2.969   1.682   5.130  0.1194  0.3805 -0.8109
16428TIP3    H170699   3.058   1.652   5.112  0.2984  0.7447 -0.5196
16428TIP3    H270700   2.925   1.605   5.166  0.1705  0.0534 -1.4323
16429TIP3   OH270701   0.085   0.162   0.374 -0.3733  0.4585 -0.3608
16429TIP3    H170702   0.095   0.213   0.454 -0.1806 -0.5153  0.2366
16429TIP3    H270703   0.009   0.200   0.331 -1.6275 -0.2407  1.2013
16430TIP3   OH270704   5.561   2.414  11.001 -0.0298  0.2332 -0.4301
16430TIP3    H170705   5.490   2.475  11.020 -1.3359 -1.0810 -1.0859
16430TIP3    H270706   5.640   2.469  11.004 -0.9106  1.4761  1.4990
16431TIP3   OH270707   2.270   0.459   5.049  0.4650 -0.4641 -0.1763
16431TIP3    H170708   2.298   0.383   5.101  0.2662  0.7377  1.7440
16431TIP3    H270709   2.348   0.482   4.998  1.3850 -0.3539  1.2241
16432TIP3   OH270710   0.991   3.541   5.644 -0.4336 -0.7160 -0.1554
16432TIP3    H170711   0.975   3.447   5.634 -2.3277 -0.3286 -1.0804
16432TIP3    H270712   1.000   3.573   5.555  0.8809 -0.1197  0.1889
16433TIP3   OH270713   1.651   1.796   6.399 -0.1042  0.1467 -0.3668
16433TIP3    H170714   1.584   1.864   6.393 -0.2058 -0.0921 -2.2855
16433TIP3    H270715   1.732   1.840   6.371 -0.0482 -0.3436 -0.9951
16434TIP3   OH270716   5.408   2.493  14.983  0.2653 -0.1604 -0.1548
16434TIP3    H170717   5.396   2.559  15.051  0.0018 -1.7366  1.3795
16434TIP3    H270718   5.463   2.535  14.917 -2.7815  2.7897 -0.9566
16435TIP3   OH270719   2.130   0.335  11.827  0.0809  0.2401 -0.2823
16435TIP3    H170720   2.193   0.284  11.775  1.9046  0.2310  1.8423
16435TIP3    H270721   2.087   0.271  11.883 -0.7121  0.4636 -0.6331
16436TIP3   OH270722   1.508   0.477   3.883 -0.1752  0.2464 -0.4063
16436TIP3    H170723   1.592   0.433   3.869  0.5390  0.8503  1.7959
16436TIP3    H270724   1.454   0.450   3.809  1.4087 -1.4991 -0.9580
16437TIP3   OH270725   3.348   6.518  14.691  0.5854 -0.6877  0.3657
16437TIP3    H170726   3.261   6.523  14.730  0.3125 -1.8897 -0.0760
16437TIP3    H270727   3.381   6.608  14.694 -0.2509 -0.4017  1.4795
16438TIP3   OH270728   3.689   4.025  16.767  0.4823 -0.5723 -1.2865
16438TIP3    H170729   3.750   4.097  16.781  1.8904 -1.5419 -2.3080
16438TIP3    H270730   3.732   3.968  16.703 -0.1856 -2.8102  0.1881
16439TIP3   OH270731   2.906   3.835  13.028  0.2999  0.5138 -0.4832
16439TIP3    H170732   2.829   3.858  13.079  0.0913  1.1832 -1.0968
16439TIP3    H270733   2.975   3.821  13.093  0.0468  1.3975 -0.0249
16440TIP3   OH270734   3.412   4.554  16.651 -0.5964  0.1314  0.4468
16440TIP3    H170735   3.433   4.648  16.648 -1.1900  0.3363  1.9188
16440TIP3    H270736   3.497   4.511  16.662 -0.1762  0.3862 -1.7009
16441TIP3   OH270737   6.163   6.513   3.519 -0.4017  0.6530  0.5399
16441TIP3    H170738   6.248   6.521   3.475 -0.4591 -0.9872  0.0898
16441TIP3    H270739   6.127   6.431   3.486 -2.2822  1.4552  0.5415
16442TIP3   OH270740   6.689   3.232   2.551  0.3226 -0.7816 -0.3393
16442TIP3    H170741   6.625   3.201   2.486  2.1347 -1.3845 -1.8600
16442TIP3    H270742   6.663   3.190   2.633 -1.7108 -0.3834 -0.7431
16443TIP3   OH270743   4.300   2.888  13.762 -0.2287  0.6586  0.0352
16443TIP3    H170744   4.357   2.811  13.760 -1.4265 -0.2367 -1.9114
16443TIP3    H270745   4.359   2.961  13.778  1.3534 -0.3682 -0.9163
16444TIP3   OH270746   5.729   4.524   5.841 -0.2730  0.2944  0.1529
16444TIP3    H170747   5.699   4.537   5.931  0.3366  2.0800  0.1119
16444TIP3    H270748   5.824   4.518   5.847 -0.3186 -1.0001 -0.2253
16445TIP3   OH270749   5.227   5.341   2.359  0.3753  0.6157  0.4119
16445TIP3    H170750   5.152   5.330   2.301  0.9023 -0.1398 -0.1397
16445TIP3    H270751   5.225   5.433   2.385  0.2894  1.0118 -1.0110
16446TIP3   OH270752   3.776   1.639   6.129  0.3065  0.4825 -0.2468
16446TIP3    H170753   3.804   1.548   6.142  0.5613  0.5778 -0.1318
16446TIP3    H270754   3.845   1.691   6.169 -1.0477  0.6532  1.9481
16447TIP3   OH270755   2.782   5.731   0.375  0.2958  0.2481  0.2043
16447TIP3    H170756   2.874   5.712   0.394 -0.2586 -0.8556  1.9628
16447TIP3    H270757   2.743   5.750   0.461 -1.0725  0.8756 -0.5368
16448TIP3   OH270758   1.429   6.245  13.735  0.3450  0.2118 -0.0473
16448TIP3    H170759   1.400   6.243  13.644  0.3376  1.2620 -0.0696
16448TIP3    H270760   1.379   6.317  13.774 -0.2928 -0.7852  1.0043
16449TIP3   OH270761   3.626   6.193   2.235 -0.3161  0.2456  0.1128
16449TIP3    H170762   3.650   6.101   2.248  0.1370  0.6374  2.1955
16449TIP3    H270763   3.702   6.232   2.192 -0.7352 -0.4545 -1.3085
16450TIP3   OH270764   5.757   2.556  10.796  0.1556 -0.6368  0.5713
16450TIP3    H170765   5.742   2.638  10.845  1.3492 -0.4169  0.5736
16450TIP3    H270766   5.754   2.583  10.704 -1.0057 -0.8688  0.5258
16451TIP3   OH270767   5.666   5.793  16.926 -0.3204  0.2074 -0.2934
16451TIP3    H170768   5.682   5.700  16.938 -0.3399 -0.0182 -1.8967
16451TIP3    H270769   5.753   5.833  16.924 -0.3339  0.3548  1.2281
16452TIP3   OH270770   4.061   5.328  13.913  0.2353 -0.0368 -0.2172
16452TIP3    H170771   4.013   5.252  13.946 -0.1658  0.2642 -0.0882
16452TIP3    H270772   4.147   5.295  13.889 -0.0524 -0.6011 -0.4915
16453TIP3   OH270773   2.354   0.073  14.473  0.1129  0.0130 -0.6960
16453TIP3    H170774   2.446   0.088  14.495 -0.0420  0.7084 -0.5275
16453TIP3    H270775   2.306   0.104  14.549 -0.3575  1.2976 -1.5141
16454TIP3   OH270776   3.666   5.768   2.557  0.6128 -0.3831 -0.4705
16454TIP3    H170777   3.593   5.729   2.509 -0.3070 -0.4876  0.9509
16454TIP3    H270778   3.654   5.735   2.647  1.8410  0.3899 -0.0205
16455TIP3   OH270779   0.128   4.818  16.608  0.0499  0.2167  0.3338
16455TIP3    H170780   0.084   4.902  16.625 -0.3317  0.5381 -2.1419
16455TIP3    H270781   0.202   4.817  16.670 -0.9916  1.5393  1.6436
16456TIP3   OH270782   2.526   4.992   0.858 -0.0113 -0.6191 -0.5742
16456TIP3    H170783   2.480   4.937   0.921  0.4339 -1.1508 -0.7078
16456TIP3    H270784   2.457   5.038   0.810 -0.4214 -1.8690 -1.1886
16457TIP3   OH270785   3.613   5.659   0.543 -0.6886 -0.6045  0.3044
16457TIP3    H170786   3.613   5.563   0.542  0.0266 -0.6181 -1.4522
16457TIP3    H270787   3.569   5.683   0.461  1.0642  0.5390 -0.3372
16458TIP3   OH270788   3.022   0.639   2.928  0.1962  0.6115  0.8600
16458TIP3    H170789   3.095   0.690   2.892  0.0270  1.7397  2.0791
16458TIP3    H270790   2.956   0.705   2.949 -1.3392 -0.4342 -0.5735
16459TIP3   OH270791   0.294   1.298   5.318 -0.4038 -0.4549 -0.6410
16459TIP3    H170792   0.347   1.298   5.238  0.3620  2.5159 -0.2172
16459TIP3    H270793   0.306   1.386   5.354 -1.3870 -1.4691  2.3263
16460TIP3   OH270794   6.605   0.462   1.006  0.4392 -0.0312 -0.3183
16460TIP3    H170795   6.510   0.458   1.017  0.5213 -1.2685 -0.0617
16460TIP3    H270796   6.632   0.537   1.059 -0.3121 -0.0879  0.1538
16461TIP3   OH270797   0.167   5.352   1.845 -0.1166  0.2452 -0.4106
16461TIP3    H170798   0.195   5.339   1.754  0.0479 -0.6073 -0.2464
16461TIP3    H270799   0.240   5.318   1.897 -0.8270 -0.6301  0.0333
16462TIP3   OH270800   4.256   0.336   0.904  0.1034 -0.1433  0.4142
16462TIP3    H170801   4.236   0.250   0.941  0.0417 -0.6900 -0.8766
16462TIP3    H270802   4.347   0.331   0.878  0.0310  0.1013  0.1040
16463TIP3   OH270803   0.852   5.137  11.804 -0.0580 -0.3075  0.6983
16463TIP3    H170804   0.765   5.097  11.805 -0.1550 -0.1105  0.1627
16463TIP3    H270805   0.864   5.170  11.894 -0.3457 -0.7315  0.8934
16464TIP3   OH270806   6.609   3.061   5.475 -0.1996 -0.9973  0.2920
16464TIP3    H170807   6.542   3.009   5.429  0.9208 -0.7406 -1.6725
16464TIP3    H270808   6.559   3.113   5.538 -1.8462 -1.0146 -0.9425
16465TIP3   OH270809   5.233   3.696   0.185  0.1041 -0.5965  0.0765
16465TIP3    H170810   5.235   3.788   0.160  0.2618 -0.9080 -1.0912
16465TIP3    H270811   5.147   3.684   0.225 -0.3346 -0.1914 -0.7346
16466TIP3   OH270812   4.229   2.637   0.981  0.1197  0.1004 -0.2002
16466TIP3    H170813   4.262   2.726   0.991  0.0867 -0.1025  1.8206
16466TIP3    H270814   4.227   2.602   1.070 -0.6326 -1.6467 -0.8911
16467TIP3   OH270815   6.010   6.568  11.151  0.1081 -0.1260  0.4788
16467TIP3    H170816   6.000   6.629  11.078  2.2738  0.1284  0.3591
16467TIP3    H270817   6.041   6.487  11.111  1.7185  0.1491  1.1407
16468TIP3   OH270818   2.046   0.788  13.774  0.2378  0.4274 -0.0584
16468TIP3    H170819   2.071   0.702  13.808  2.1366  0.3062 -1.6629
16468TIP3    H270820   1.952   0.782  13.761  0.3757 -1.4867 -0.3223
16469TIP3   OH270821   0.267   0.887  14.148 -0.1873 -0.1350  0.3934
16469TIP3    H170822   0.183   0.853  14.178 -0.2149 -0.9876 -0.6465
16469TIP3    H270823   0.245   0.973  14.111 -1.0814 -1.5295 -2.4663
16470TIP3   OH270824   3.331   0.972   1.185 -0.3737 -0.9748 -0.1277
16470TIP3    H170825   3.410   0.995   1.135 -0.0124 -1.3644  0.2623
16470TIP3    H270826   3.275   0.927   1.122 -0.6445  0.0527 -0.6275
16471TIP3   OH270827   6.143   6.317  16.345 -0.2184 -0.2775  0.6925
16471TIP3    H170828   6.134   6.264  16.424  2.0147 -0.7775  0.6443
16471TIP3    H270829   6.215   6.377  16.364 -0.6096  0.5786 -0.4432
16472TIP3   OH270830   3.728   6.199  12.690  0.2923  0.1107 -0.1983
16472TIP3    H170831   3.739   6.110  12.724  0.7728  0.2051 -0.0977
16472TIP3    H270832   3.649   6.195  12.636 -1.3646  0.3040  2.1203
16473TIP3   OH270833   6.117   5.117   1.770  0.6284 -0.6223 -0.2497
16473TIP3    H170834   6.074   5.032   1.760  1.3605 -1.3693  2.5336
16473TIP3    H270835   6.046   5.176   1.794  0.4496 -0.9127 -0.0499
16474TIP3   OH270836   5.465   6.297  13.063 -0.3686  0.1600 -0.5667
16474TIP3    H170837   5.452   6.335  12.976  0.9137  1.0236 -0.3898
16474TIP3    H270838   5.558   6.309  13.081 -0.4844 -0.6629  0.6311
16475TIP3   OH270839   4.053   5.775  16.943  0.1085  0.6213  0.0953
16475TIP3    H170840   4.141   5.739  16.932 -0.3310 -0.7100  0.7827
16475TIP3    H270841   4.028   5.806  16.856  1.3268  1.1688 -0.0588
16476TIP3   OH270842   2.669   1.789  11.481 -0.4698  0.2853 -0.8661
16476TIP3    H170843   2.649   1.764  11.572 -3.1768 -1.0301 -1.7491
16476TIP3    H270844   2.725   1.719  11.449 -0.1637  0.3410 -0.4670
16477TIP3   OH270845   0.827   1.211  13.737 -0.0450 -0.2986 -0.1503
16477TIP3    H170846   0.886   1.269  13.688 -2.2059  1.8734 -0.2663
16477TIP3    H270847   0.744   1.259  13.740 -1.5615 -2.9143  0.7531
16478TIP3   OH270848   2.866   2.506  16.245  0.4268  0.3958  0.2338
16478TIP3    H170849   2.933   2.557  16.199 -0.2446  0.1037 -1.0857
16478TIP3    H270850   2.903   2.492  16.332  1.0656  2.2317  0.2687
16479TIP3   OH270851   5.120   2.548  11.658  0.2113 -0.3621  0.0533
16479TIP3    H170852   5.192   2.485  11.654  0.0220 -0.5918  0.3421
16479TIP3    H270853   5.122   2.591  11.572 -0.2567 -1.4138 -0.4861
16480TIP3   OH270854   5.568   4.692  13.333 -0.5267  0.1110 -0.3129
16480TIP3    H170855   5.531   4.758  13.391  0.0088 -0.3215  0.5314
16480TIP3    H270856   5.599   4.623  13.391 -1.4524 -1.0839 -1.2112
16481TIP3   OH270857   6.516   0.040  12.412 -0.0374 -0.2496  0.8722
16481TIP3    H170858   6.498  -0.046  12.375  0.0439  0.3604 -0.6293
16481TIP3    H270859   6.478   0.037  12.500 -3.2466 -0.6107 -0.4620
16482TIP3   OH270860   6.636   5.503   0.098 -0.2011  0.2351 -0.0173
16482TIP3    H170861   6.695   5.445   0.048  1.6171  0.4426  1.8286
16482TIP3    H270862   6.560   5.449   0.116  0.6742 -1.0047  0.0680
16483TIP3   OH270863   3.305   5.928  14.685  0.4810 -0.1604 -0.0663
16483TIP3    H170864   3.380   5.984  14.705 -0.3843  0.9574  0.1257
16483TIP3    H270865   3.232   5.989  14.673 -0.6549 -1.2816  0.9072
16484TIP3   OH270866   6.704   0.989  17.180 -0.5013 -0.8643  0.2490
16484TIP3    H170867   6.716   1.037  17.098 -0.2563 -0.8624  0.2865
16484TIP3    H270868   6.790   0.951  17.198 -0.1393  0.4347  1.3374
16485TIP3   OH270869   1.678   2.158  15.222 -0.0382  0.3917  0.4090
16485TIP3    H170870   1.611   2.206  15.173  0.3936  0.1596 -0.4176
16485TIP3    H270871   1.744   2.225  15.244 -0.5073  0.6081  1.1720
16486TIP3   OH270872   4.938   2.070   4.155 -0.2556 -0.1953  0.0475
16486TIP3    H170873   4.948   1.987   4.109 -0.1838  0.6848 -1.5778
16486TIP3    H270874   4.851   2.101   4.130 -0.6738 -0.2455  1.4302
16487TIP3   OH270875   2.096   4.043   2.094  0.0665  0.0116  0.4726
16487TIP3    H170876   2.111   4.008   2.182 -1.5751 -2.3241 -0.1444
16487TIP3    H270877   2.180   4.036   2.050  0.2724 -1.1663  1.0470
16488TIP3   OH270878   2.501   1.263  16.554  0.3398 -0.3506  0.5288
16488TIP3    H170879   2.596   1.273  16.548  0.3836 -0.2726  1.2701
16488TIP3    H270880   2.486   1.169  16.544  0.5855 -0.4895  1.4112
16489TIP3   OH270881   0.027   2.865   1.827  0.4725 -0.1122 -0.3882
16489TIP3    H170882   0.108   2.894   1.785  0.0045  1.6523 -0.0992
16489TIP3    H270883   0.004   2.784   1.780  1.5251  0.2436 -1.5511
16490TIP3   OH270884   2.099   0.117   6.675  0.2913 -0.6743 -0.5638
16490TIP3    H170885   2.144   0.037   6.649  1.3583 -0.0032 -0.8039
16490TIP3    H270886   2.063   0.151   6.593 -0.4227 -1.0636 -0.4146
16491TIP3   OH270887   6.648   3.750  15.206  0.5743 -0.5275  0.2004
16491TIP3    H170888   6.578   3.779  15.147  1.0723  0.7465  0.2185
16491TIP3    H270889   6.628   3.791  15.290  0.4962 -1.4148  0.6174
16492TIP3   OH270890   0.853   2.983  15.394 -0.2363  0.0355  0.0761
16492TIP3    H170891   0.789   2.941  15.451 -0.4775  1.0130  0.5237
16492TIP3    H270892   0.894   2.910  15.346  0.1094 -0.7924  1.6201
16493TIP3   OH270893   3.719   5.974   3.889  0.3797  0.3535 -0.2493
16493TIP3    H170894   3.755   5.886   3.902  0.3985  0.2120 -1.2644
16493TIP3    H270895   3.713   5.985   3.794  0.3329  1.4307 -0.1365
16494TIP3   OH270896   3.901   3.863   2.028 -0.2546  0.3575  0.2040
16494TIP3    H170897   3.882   3.954   2.006 -0.2786  0.4192  0.4862
16494TIP3    H270898   3.979   3.867   2.083 -0.4171  0.2241  0.4416
16495TIP3   OH270899   3.042   4.153   1.213 -0.2734  0.3914 -0.3521
16495TIP3    H170900   2.961   4.145   1.161 -0.3813  0.0976 -0.1401
16495TIP3    H270901   3.063   4.246   1.210 -0.7240  0.4980 -0.2544
16496TIP3   OH270902   0.546   4.707   6.084  0.3431 -0.2447  0.4188
16496TIP3    H170903   0.543   4.619   6.121  0.8711 -0.5891 -0.3376
16496TIP3    H270904   0.611   4.754   6.136 -1.3904  0.3211  2.1250
16497TIP3   OH270905   0.267   6.514  15.965  0.3663 -0.3195  0.3010
16497TIP3    H170906   0.323   6.563  15.905 -2.4307  3.8406  0.8805
16497TIP3    H270907   0.297   6.540  16.053 -0.2140 -0.7289  0.6256
16498TIP3   OH270908   1.776   4.711   0.642 -0.6683  0.0776 -0.3758
16498TIP3    H170909   1.715   4.751   0.703 -0.0354  0.7686 -0.1976
16498TIP3    H270910   1.761   4.756   0.559 -0.9471 -0.2929 -0.5298
16499TIP3   OH270911   2.118   4.051   4.139  0.0903 -0.0603 -0.3970
16499TIP3    H170912   2.112   4.098   4.056  0.6434 -1.3365 -1.1729
16499TIP3    H270913   2.163   4.111   4.198 -0.5745  0.9679 -0.9318
16500TIP3   OH270914   0.159   4.406   2.134 -0.0717 -0.6258  0.0545
16500TIP3    H170915   0.238   4.356   2.113 -0.4037 -0.7557 -0.8880
16500TIP3    H270916   0.170   4.430   2.226  0.4745 -1.7410  0.2929
16501TIP3   OH270917   2.548   3.364  10.725  0.0705  0.0414  0.0114
16501TIP3    H170918   2.624   3.421  10.716  0.1106 -0.1171 -0.7277
16501TIP3    H270919   2.585   3.277  10.739  0.0079  0.2341  1.4084
16502TIP3   OH270920   4.821   4.821   6.197  0.1772 -0.1885  0.1338
16502TIP3    H170921   4.833   4.740   6.248 -1.9536  0.4147  1.6592
16502TIP3    H270922   4.852   4.890   6.255  2.5123  0.0709 -1.3839
16503TIP3   OH270923   3.427   0.590  11.629  0.0132 -0.2879  0.2321
16503TIP3    H170924   3.336   0.615  11.613 -0.0276 -0.3631  0.3437
16503TIP3    H270925   3.464   0.574  11.542  0.1939  0.6869  0.1278
16504TIP3   OH270926   6.735   2.264   0.567 -0.2140 -0.5726 -0.1168
16504TIP3    H170927   6.686   2.221   0.638  0.6360 -0.5467  0.4959
16504TIP3    H270928   6.761   2.348   0.604  0.9957 -0.9263 -0.1451
16505TIP3   OH270929   5.726   0.447   0.573 -0.1425 -0.2982 -0.1201
16505TIP3    H170930   5.769   0.509   0.514  0.4040 -2.9089 -2.5633
16505TIP3    H270931   5.633   0.457   0.555 -0.1839  0.9047  0.6645
16506TIP3   OH270932   5.290   3.577   5.525  0.4582  0.9123 -0.2828
16506TIP3    H170933   5.273   3.559   5.433 -2.1879 -0.7176  0.4386
16506TIP3    H270934   5.365   3.636   5.526  0.8929  0.4652 -3.4320
16507TIP3   OH270935   2.726   1.713   0.680 -0.2384 -0.5784 -0.0537
16507TIP3    H170936   2.700   1.737   0.591 -4.5119 -1.9471  0.7152
16507TIP3    H270937   2.725   1.796   0.728  2.1951  0.1845 -1.2231
16508TIP3   OH270938   0.776   2.769   4.953  0.2905  0.4749 -0.0382
16508TIP3    H170939   0.729   2.735   4.877  0.2446  1.6506 -0.5412
16508TIP3    H270940   0.747   2.860   4.960  1.0562  0.6531  0.7797
16509TIP3   OH270941   0.065   2.874  14.173 -0.5248  0.2701 -0.0628
16509TIP3    H170942   0.102   2.960  14.153  0.3626 -0.4250 -1.6054
16509TIP3    H270943  -0.018   2.872  14.126 -0.5903  0.3238  0.0513
16510TIP3   OH270944   5.430   2.887   1.318 -0.1697 -0.5354  0.3345
16510TIP3    H170945   5.364   2.820   1.302  0.1579 -0.7895  0.0389
16510TIP3    H270946   5.502   2.865   1.259  0.3679 -0.5239  0.9794
16511TIP3   OH270947   1.034   6.173   5.517 -0.3961  0.1091 -0.5687
16511TIP3    H170948   1.072   6.086   5.513 -1.1901 -0.1875 -1.7952
16511TIP3    H270949   1.064   6.217   5.438 -0.5136  0.7426 -0.2697
16512TIP3   OH270950   2.241   0.002  10.450  0.0775 -0.1943 -0.3451
16512TIP3    H170951   2.184   0.065  10.494  0.5930  0.0926 -0.0777
16512TIP3    H270952   2.196  -0.019  10.369  0.8212  2.0040 -1.3522
16513TIP3   OH270953   5.243   6.720   4.370 -0.1087  0.0771  0.3457
16513TIP3    H170954   5.196   6.747   4.291  0.4438  2.0597  0.6575
16513TIP3    H270955   5.328   6.691   4.338  0.9886  3.0856  0.3557
16514TIP3   OH270956   5.145   6.064  14.129 -0.0590 -0.2017  0.1060
16514TIP3    H170957   5.051   6.047  14.139  0.1148 -1.1926  0.0964
16514TIP3    H270958   5.149   6.148  14.084 -0.9456 -0.2196 -0.0246
16515TIP3   OH270959   6.369   0.614   1.530  0.0273  0.3600 -0.4181
16515TIP3    H170960   6.450   0.665   1.540 -0.4853  1.5266 -2.0638
16515TIP3    H270961   6.300   0.672   1.563 -0.4916  0.5125 -1.7486
16516TIP3   OH270962   4.830   0.345  16.857 -0.9659 -0.2446  0.2101
16516TIP3    H170963   4.813   0.401  16.781 -1.1496 -0.7435 -0.1237
16516TIP3    H270964   4.755   0.286  16.860 -1.0388 -0.1174  0.8814
16517TIP3   OH270965   2.937   4.952   4.341 -0.0257  0.3576 -0.0892
16517TIP3    H170966   3.026   4.987   4.339  0.7560 -1.3671  2.0689
16517TIP3    H270967   2.945   4.862   4.311 -1.1082  0.2854 -0.2088
16518TIP3   OH270968   0.203   4.448  14.603  0.0463  0.0406  0.1674
16518TIP3    H170969   0.238   4.418  14.687  0.9135  1.6542  0.4021
16518TIP3    H270970   0.121   4.492  14.625 -1.0136 -1.7169 -0.1337
16519TIP3   OH270971   1.983   1.870   3.705  0.7280 -0.4695 -0.1006
16519TIP3    H170972   1.895   1.872   3.667  0.5998  0.1152  0.2095
16519TIP3    H270973   2.030   1.942   3.662  0.4805  0.4099  1.0453
16520TIP3   OH270974   2.062   5.387   1.257  0.1413 -0.1240  0.2290
16520TIP3    H170975   1.982   5.357   1.300 -0.6620 -0.1615 -1.2674
16520TIP3    H270976   2.070   5.479   1.283  0.1546 -0.3942  1.1838
16521TIP3   OH270977   5.062   0.700   5.436 -0.1013 -0.2080  0.5054
16521TIP3    H170978   5.116   0.712   5.514 -0.5355  1.4980  0.5729
16521TIP3    H270979   5.120   0.659   5.372  1.0837  0.9925  0.7907
16522TIP3   OH270980   1.282   4.407   1.616  0.7134 -0.0750 -0.0038
16522TIP3    H170981   1.308   4.448   1.534  0.5156 -0.4128 -0.2403
16522TIP3    H270982   1.312   4.316   1.608 -0.4576 -0.4450 -0.2400
16523TIP3   OH270983   6.661   0.590   5.394 -0.3822 -0.0420 -0.0975
16523TIP3    H170984   6.683   0.678   5.426  0.6128 -0.4323  0.3342
16523TIP3    H270985   6.625   0.545   5.471 -1.7455  0.2730 -0.5499
16524TIP3   OH270986   0.200   1.645   3.482  0.0900  0.8264  0.0869
16524TIP3    H170987   0.244   1.613   3.560  0.3117 -0.1737 -0.4357
16524TIP3    H270988   0.250   1.722   3.455 -0.1610  1.3423  1.0865
16525TIP3   OH270989   5.289   1.486   1.487  0.1534 -0.2874 -0.2584
16525TIP3    H170990   5.328   1.398   1.482 -0.1188 -0.3971 -0.5161
16525TIP3    H270991   5.231   1.482   1.562  0.3887 -0.2261 -0.0723
16526TIP3   OH270992   0.850   0.104   4.250 -0.3188 -0.1386 -0.2668
16526TIP3    H170993   0.926   0.073   4.299 -0.0661  0.8059 -0.0376
16526TIP3    H270994   0.831   0.190   4.289 -0.0270  0.6875 -1.8867
16527TIP3   OH270995   0.374   3.080   1.812 -0.1592  0.4542  0.0952
16527TIP3    H170996   0.333   3.003   1.770 -0.5004 -0.1050  1.4423
16527TIP3    H270997   0.300   3.129   1.847  0.3310 -0.9387  3.1942
16528TIP3   OH270998   1.422   5.333   2.373  0.1437 -0.2087  0.0579
16528TIP3    H170999   1.359   5.261   2.371 -0.8740  0.6328  0.9919
16528TIP3    H271000   1.389   5.396   2.309  0.6763 -0.2740 -0.2853
16529TIP3   OH271001   4.401   0.417  16.744 -0.2590  1.3279  0.1798
16529TIP3    H171002   4.311   0.394  16.766  0.3308 -0.7608  0.4588
16529TIP3    H271003   4.392   0.475  16.668 -1.8831  2.1429  0.9639
16530TIP3   OH271004   1.208   6.327   5.686  0.0664 -0.4341  0.5383
16530TIP3    H171005   1.134   6.287   5.641 -2.7744 -0.0359  4.5771
16530TIP3    H271006   1.236   6.261   5.750  1.0156  0.6840  1.2983
16531TIP3   OH271007   6.641   5.450  14.083  0.0469 -0.0616 -0.2839
16531TIP3    H171008   6.704   5.474  14.015  0.7362 -2.8418 -0.6815
16531TIP3    H271009   6.556   5.453  14.040  0.0701  1.7222 -0.2682
16532TIP3   OH271010   5.697   2.987  15.470  0.1654  0.3329  0.0687
16532TIP3    H171011   5.706   3.040  15.548 -0.8836 -0.6414  0.8652
16532TIP3    H271012   5.696   3.050  15.398  0.5687  1.2642  0.8699
16533TIP3   OH271013   3.169   5.191   3.809  0.1852 -0.7643  0.4724
16533TIP3    H171014   3.199   5.248   3.880  0.2469  0.5550 -0.5810
16533TIP3    H271015   3.074   5.202   3.808  0.0797 -1.5879  1.0116
16534TIP3   OH271016   4.074   4.320   6.027 -0.4963 -0.4622  0.2567
16534TIP3    H171017   4.075   4.276   6.112 -0.8965  1.6803  1.3924
16534TIP3    H271018   4.159   4.363   6.021 -0.5578 -0.4113 -0.3321
16535TIP3   OH271019   5.596   0.084   5.777  0.1206  0.5762 -0.4008
16535TIP3    H171020   5.582  -0.002   5.818  0.3161  0.8931  0.3285
16535TIP3    H271021   5.620   0.142   5.849  1.1156  0.9893 -1.0500
16536TIP3   OH271022   2.086   5.539  13.943 -0.2075  0.1334 -0.4014
16536TIP3    H171023   2.144   5.489  13.886  1.7913  1.6991  0.2056
16536TIP3    H271024   2.071   5.481  14.018 -0.2266 -0.6524 -0.9984
16537TIP3   OH271025   0.390   6.455   2.172 -0.1531  0.5697  0.5017
16537TIP3    H171026   0.351   6.454   2.259  1.6575 -0.0916  1.3257
16537TIP3    H271027   0.414   6.364   2.155  2.0073  1.1093  0.4832
16538TIP3   OH271028   0.714   3.061   4.711 -0.5605 -0.2917  0.5411
16538TIP3    H171029   0.677   3.042   4.797 -2.7798 -0.8543 -0.4852
16538TIP3    H271030   0.642   3.044   4.650  1.7870 -2.6100 -1.6920
16539TIP3   OH271031   3.033   1.363   5.725 -0.0532  0.2027  0.9972
16539TIP3    H171032   3.034   1.390   5.817 -1.7469  0.4165  0.9537
16539TIP3    H271033   3.102   1.297   5.720  0.3678  0.5183  2.3176
16540TIP3   OH271034   1.261   3.514   0.903  0.1191  0.1254 -0.5811
16540TIP3    H171035   1.224   3.561   0.977  0.3451  0.8353 -0.9124
16540TIP3    H271036   1.351   3.494   0.930 -0.3855 -1.2695  0.0754
16541TIP3   OH271037   5.037   2.354   4.409 -0.1573 -0.3041  0.0959
16541TIP3    H171038   5.093   2.431   4.416 -0.4174  0.0759 -1.7161
16541TIP3    H271039   5.056   2.303   4.487  0.0373  1.5863  1.3026
16542TIP3   OH271040   5.120   4.661  12.646 -0.1937  0.0697 -0.7920
16542TIP3    H171041   5.121   4.588  12.708 -0.9093  0.3087 -0.4880
16542TIP3    H271042   5.194   4.716  12.673 -0.0734 -0.1896 -0.5929
16543TIP3   OH271043   1.415   1.919   5.919 -0.6432  0.2089  0.1207
16543TIP3    H171044   1.475   1.994   5.920 -0.1751 -0.1701  2.0902
16543TIP3    H271045   1.328   1.958   5.914 -0.4142  0.9259  1.3333
16544TIP3   OH271046   0.504   1.309  15.083  0.6660  0.5244  0.2162
16544TIP3    H171047   0.473   1.310  14.993  1.9669 -0.0605 -0.2517
16544TIP3    H271048   0.530   1.400  15.100  1.7505  0.3569 -0.4883
16545TIP3   OH271049   5.812   4.958   0.277  0.2270  0.6225  0.2069
16545TIP3    H171050   5.734   4.907   0.255  0.3101 -0.1278  1.6155
16545TIP3    H271051   5.861   4.963   0.195  0.2953 -1.7143  0.0803
16546TIP3   OH271052   3.245   4.662   4.414  0.1266 -0.5863 -0.1209
16546TIP3    H171053   3.298   4.714   4.353 -0.0556 -1.5063 -1.0682
16546TIP3    H271054   3.285   4.575   4.412  0.1153 -0.6294  1.0766
16547TIP3   OH271055   5.106   4.188  15.007 -0.6322  0.0780  0.5697
16547TIP3    H171056   5.194   4.161  15.033 -0.8868 -0.1705  1.1790
16547TIP3    H271057   5.078   4.120  14.945  0.3480  1.1820 -1.1298
16548TIP3   OH271058   3.785   1.495  14.380 -0.6860  0.3295 -0.0306
16548TIP3    H171059   3.722   1.541  14.436 -1.1772 -1.3165  0.8162
16548TIP3    H271060   3.811   1.419  14.432 -0.3415 -0.6501 -1.6199
16549TIP3   OH271061   6.491   6.732  11.320  0.7093 -0.2488  0.7252
16549TIP3    H171062   6.553   6.662  11.300 -0.3719 -1.0402  0.0558
16549TIP3    H271063   6.405   6.691  11.312  0.0945  0.7882  1.7839
16550TIP3   OH271064   5.327   5.786   1.317  0.0514  0.0948 -0.3143
16550TIP3    H171065   5.304   5.712   1.260 -1.3205 -0.4016  0.8526
16550TIP3    H271066   5.344   5.746   1.402 -0.3876  1.1062  0.2507
16551TIP3   OH271067   4.695   1.322   4.006  0.6741 -0.3687  0.1565
16551TIP3    H171068   4.720   1.229   4.012 -0.1224 -0.5850  0.1607
16551TIP3    H271069   4.779   1.368   3.996  1.0589 -1.1112 -0.1477
16552TIP3   OH271070   6.777   0.999  12.428  0.2169  0.2503  0.2314
16552TIP3    H171071   6.844   0.995  12.496  0.7156 -0.9833 -0.3232
16552TIP3    H271072   6.706   1.050  12.468  1.2693  1.1478  0.9919
16553TIP3   OH271073   6.403   3.174   3.052 -0.1724  0.7295 -0.1856
16553TIP3    H171074   6.412   3.228   2.973  1.4351  0.9787  0.1411
16553TIP3    H271075   6.490   3.176   3.092 -0.4334 -1.0523  0.5184
16554TIP3   OH271076   6.379   4.075  16.426  0.5637  0.0458 -0.2010
16554TIP3    H171077   6.365   4.170  16.422 -0.8081 -0.1199  0.4591
16554TIP3    H271078   6.367   4.053  16.518 -0.6354 -1.0048 -0.6057
16555TIP3   OH271079   5.302   0.833  12.114 -0.3677 -0.3182  0.0879
16555TIP3    H171080   5.253   0.914  12.119  0.0559 -0.1695  2.4375
16555TIP3    H271081   5.394   0.861  12.111 -0.2886 -0.6688 -0.7900
16556TIP3   OH271082   6.767   1.789   3.330  0.2848  0.6294  0.2064
16556TIP3    H171083   6.797   1.722   3.391 -0.3318  0.9581  0.8672
16556TIP3    H271084   6.788   1.753   3.243  0.5700 -0.1160  0.5790
16557TIP3   OH271085   6.586   1.451   3.797  0.1065 -0.5177 -0.7031
16557TIP3    H171086   6.543   1.466   3.881  1.7462  0.1237  0.0337
16557TIP3    H271087   6.528   1.390   3.751 -0.0912 -1.9838  1.4523
16558TIP3   OH271088   5.897   6.414  16.225  0.4356  0.5212 -0.2294
16558TIP3    H171089   5.986   6.387  16.247 -0.2562 -1.3871  0.3497
16558TIP3    H271090   5.854   6.333  16.196 -1.4461  1.1654  0.6810
16559TIP3   OH271091   5.672   5.845   4.400 -0.6726 -0.8940 -0.8173
16559TIP3    H171092   5.637   5.784   4.335  0.3067 -1.1103 -1.1512
16559TIP3    H271093   5.698   5.789   4.474 -0.1097 -0.8504 -0.9777
16560TIP3   OH271094   4.018   6.373   1.821  0.2854 -0.4902  0.3795
16560TIP3    H171095   3.980   6.460   1.827  3.3362  0.8946  0.3734
16560TIP3    H271096   4.049   6.353   1.909  2.8450  0.0159 -0.3580
16561TIP3   OH271097   2.909   4.602  15.195 -0.2055 -0.4727  0.1404
16561TIP3    H171098   2.934   4.596  15.103  2.8635 -1.2985  0.9857
16561TIP3    H271099   2.896   4.696  15.210  1.2841 -0.1404 -0.6141
16562TIP3   OH271100   2.448   6.027  10.580 -0.5115  0.0974 -0.3636
16562TIP3    H171101   2.357   6.027  10.608 -0.9464  1.0300 -1.7213
16562TIP3    H271102   2.479   6.116  10.597  0.3781 -0.4095  0.7777
16563TIP3   OH271103   0.470   4.185  12.160 -0.2626 -0.0133  0.2150
16563TIP3    H171104   0.530   4.182  12.234  0.2046 -1.0712 -0.1935
16563TIP3    H271105   0.518   4.231  12.092 -0.8470  1.3277  0.6958
16564TIP3   OH271106   0.793   1.444   0.611  0.2437 -0.0199  0.6512
16564TIP3    H171107   0.846   1.495   0.672 -0.0910 -0.8302  1.6299
16564TIP3    H271108   0.802   1.354   0.640 -0.2238 -0.3697 -0.2724
16565TIP3   OH271109   1.110   6.626   5.477 -0.1818 -0.0192 -0.0311
16565TIP3    H171110   1.201   6.626   5.448 -0.3307 -0.3491 -0.5028
16565TIP3    H271111   1.059   6.621   5.396 -0.6235  0.4966  0.2116
16566TIP3   OH271112   6.704   5.869   0.926  0.3127 -0.0768 -0.9116
16566TIP3    H171113   6.646   5.914   0.865  1.9022  3.7294  0.1977
16566TIP3    H271114   6.647   5.839   0.996 -0.8260  0.1533 -1.7287
16567TIP3   OH271115   5.810   2.371  16.931 -0.3291 -0.7540  0.3311
16567TIP3    H171116   5.761   2.342  16.854 -1.3229  0.5931  0.4266
16567TIP3    H271117   5.863   2.444  16.900 -0.4931 -0.4086  0.8384
16568TIP3   OH271118   4.374   5.307  15.014 -0.0671  0.0401  0.1716
16568TIP3    H171119   4.364   5.212  15.016  2.5604 -0.2632  1.1416
16568TIP3    H271120   4.317   5.338  15.085  0.7151 -0.9953  1.2772
16569TIP3   OH271121   4.484   4.918   3.425 -0.0904  0.1306  0.3628
16569TIP3    H171122   4.555   4.982   3.415 -0.5989  0.7688  0.7504
16569TIP3    H271123   4.436   4.923   3.342 -1.4930  1.9503  1.2488
16570TIP3   OH271124   6.194   5.202   3.659  0.2859  0.6487 -0.3913
16570TIP3    H171125   6.166   5.155   3.581  3.1836 -0.7625 -0.6251
16570TIP3    H271126   6.198   5.136   3.728  0.4071  1.3432  0.2771
16571TIP3   OH271127   4.834   4.044  12.747 -0.2168 -0.5247 -0.3379
16571TIP3    H171128   4.860   3.959  12.782  0.4360 -0.1917 -0.0037
16571TIP3    H271129   4.764   4.024  12.685 -0.9571 -1.1914  0.6813
16572TIP3   OH271130   1.403   3.840  13.829  0.3278  0.2908  0.6281
16572TIP3    H171131   1.393   3.922  13.878  0.9336  0.8859 -0.2239
16572TIP3    H271132   1.474   3.858  13.767 -0.8901 -0.2296 -0.9389
16573TIP3   OH271133   5.763   1.517   1.340  0.1540  0.3564 -0.1736
16573TIP3    H171134   5.731   1.445   1.285  0.0567  2.4906 -2.9823
16573TIP3    H271135   5.696   1.584   1.334  0.7047  1.1089  1.6495
16574TIP3   OH271136   3.473   6.132  14.474 -0.7909  0.0864 -0.3001
16574TIP3    H171137   3.543   6.070  14.455 -1.7727 -1.4103  0.8451
16574TIP3    H271138   3.435   6.152  14.388  0.3886  0.1448 -0.8206
16575TIP3   OH271139   2.237   5.519  12.756  0.1262 -0.3620 -0.7459
16575TIP3    H171140   2.213   5.608  12.731  0.2344 -0.2364 -0.4096
16575TIP3    H271141   2.296   5.530  12.830 -0.7101 -0.7384 -0.0049
16576TIP3   OH271142   4.250   3.586  14.287  0.3538  0.5128  0.4704
16576TIP3    H171143   4.160   3.558  14.269  0.2041  2.1811 -1.5862
16576TIP3    H271144   4.241   3.657  14.351 -0.0810  2.5349 -1.7261
16577TIP3   OH271145   3.827   5.265  12.547  0.6992  0.1738  0.5492
16577TIP3    H171146   3.838   5.260  12.452 -1.2392 -0.0528  0.3174
16577TIP3    H271147   3.817   5.359  12.565  0.2271  0.1550  0.4091
16578TIP3   OH271148   0.740   4.286   1.289 -0.1693  0.2795 -0.0808
16578TIP3    H171149   0.655   4.243   1.275  0.1746 -0.9021  1.3499
16578TIP3    H271150   0.802   4.214   1.300  0.8837  1.1402 -0.2895
16579TIP3   OH271151   3.825   5.696   3.672  0.8354  0.3281 -0.7242
16579TIP3    H171152   3.740   5.662   3.645  0.7692 -0.8773  0.9364
16579TIP3    H271153   3.825   5.687   3.767  2.7228  0.5456 -0.6939
16580TIP3   OH271154   3.350   2.785  12.106 -0.1884 -0.3642 -0.3348
16580TIP3    H171155   3.433   2.795  12.153  0.9596 -0.8315 -2.1968
16580TIP3    H271156   3.328   2.873  12.076 -0.0693 -0.3392 -0.3463
16581TIP3   OH271157   1.718   1.922   0.717 -0.5472 -0.0472 -0.1782
16581TIP3    H171158   1.721   1.947   0.809  0.7644  1.4735 -0.6183
16581TIP3    H271159   1.789   1.858   0.707 -0.3367  0.1957 -0.2456
16582TIP3   OH271160   5.784   6.038  11.563 -0.1066 -0.0764  0.4775
16582TIP3    H171161   5.800   6.010  11.474 -1.5339 -0.1935  0.2513
16582TIP3    H271162   5.689   6.043  11.571  0.0339  1.7102  1.4288
16583TIP3   OH271163   2.607   4.557  11.677  0.0951  0.6161  0.5819
16583TIP3    H171164   2.530   4.550  11.622  1.5715 -0.8838 -1.3369
16583TIP3    H271165   2.585   4.507  11.756 -1.1237  0.7854  0.3607
16584TIP3   OH271166   3.945   2.225  14.049  0.4330  0.2239 -0.3938
16584TIP3    H171167   3.907   2.176  14.122  0.1705 -0.7080 -1.1415
16584TIP3    H271168   3.924   2.317  14.068 -0.6736 -0.1187  0.0970
16585TIP3   OH271169   2.914   3.921  13.780  0.1449 -0.1704  0.0884
16585TIP3    H171170   2.837   3.873  13.750 -0.3570  1.0475 -0.6154
16585TIP3    H271171   2.972   3.854  13.817 -2.1002 -0.8618  2.4645
16586TIP3   OH271172   5.786   5.147   2.782 -0.3055 -1.1126  0.5440
16586TIP3    H171173   5.780   5.195   2.699 -1.0979 -1.3428  0.4620
16586TIP3    H271174   5.863   5.184   2.825 -1.1390  0.5473  0.6644
16587TIP3   OH271175   3.008   2.817  13.418 -0.0839  0.1058  0.0647
16587TIP3    H171176   2.919   2.839  13.444 -0.3738 -2.4634  1.3603
16587TIP3    H271177   3.046   2.901  13.391 -1.8070  1.8381  2.7466
16588TIP3   OH271178   2.104   5.943  12.842  0.0086  0.3718  0.2938
16588TIP3    H171179   2.020   5.903  12.863 -0.2913  1.1092  0.5064
16588TIP3    H271180   2.153   5.942  12.925  1.1343 -2.2350 -0.3563
16589TIP3   OH271181   0.519   2.691   3.595 -0.2559  0.1401  0.3550
16589TIP3    H171182   0.530   2.676   3.689  5.2266 -0.0727 -0.1752
16589TIP3    H271183   0.569   2.771   3.577 -2.6216  1.1455 -2.1455
16590TIP3   OH271184   5.559   3.126   0.771  0.4343  0.3511 -0.0695
16590TIP3    H171185   5.538   3.219   0.775 -1.0777  0.0037  0.4522
16590TIP3    H271186   5.497   3.090   0.707  0.2639 -0.4781  0.5465
16591TIP3   OH271187   3.252   3.411  10.828 -0.0029  0.6054  0.1062
16591TIP3    H171188   3.283   3.466  10.756  0.0526 -0.5076 -0.7397
16591TIP3    H271189   3.303   3.331  10.820 -0.5292  0.1878  0.9416
16592TIP3   OH271190   5.906   1.394  15.802  0.5959  0.6287 -0.0140
16592TIP3    H171191   5.957   1.467  15.836 -0.3322  0.5302  1.6242
16592TIP3    H271192   5.872   1.426  15.718  1.2425  1.6026  0.0878
16593TIP3   OH271193   6.679   1.804  16.296 -0.0808 -0.3175 -0.4673
16593TIP3    H171194   6.667   1.757  16.379 -1.6917 -1.7964 -1.5156
16593TIP3    H271195   6.762   1.772  16.262  1.3586  1.4323  1.2877
16594TIP3   OH271196   3.567   5.275  11.270 -0.0150 -0.2139 -0.2196
16594TIP3    H171197   3.539   5.314  11.353  0.7706  0.3823 -0.2338
16594TIP3    H271198   3.581   5.182  11.290 -0.1361 -0.1359  0.2304
16595TIP3   OH271199   2.957   3.207   2.259  0.8840 -0.3159  0.2107
16595TIP3    H171200   2.915   3.193   2.175  2.2100  0.0931 -0.5334
16595TIP3    H271201   2.888   3.194   2.324 -0.3250  0.1465 -0.9792
16596TIP3   OH271202   2.460   3.499   4.843 -0.3893 -0.0190 -0.7123
16596TIP3    H171203   2.395   3.428   4.846 -0.5855  0.2189  1.2343
16596TIP3    H271204   2.415   3.575   4.880  1.1129  0.0321  1.0833
16597TIP3   OH271205   6.505   3.795  11.721 -0.6147  0.0273 -0.0480
16597TIP3    H171206   6.467   3.754  11.799 -1.6468  1.2212  0.1107
16597TIP3    H271207   6.563   3.729  11.684 -1.3479 -1.1352  0.8401
16598TIP3   OH271208   2.223   4.309  11.991  0.2209  0.3501  0.4281
16598TIP3    H171209   2.291   4.375  12.004 -0.3533  1.0696 -0.2376
16598TIP3    H271210   2.202   4.279  12.079  2.3512 -0.8553  0.5876
16599TIP3   OH271211   0.047   1.016  16.920  0.3278  0.1296  0.1305
16599TIP3    H171212   0.068   0.933  16.963  1.6544  0.1890 -0.3643
16599TIP3    H271213   0.133   1.052  16.896 -0.1644  2.0813  1.1848
16600TIP3   OH271214   3.141   5.335  14.342  0.4216  0.5979 -0.3929
16600TIP3    H171215   3.102   5.248  14.351 -0.4009  1.0113  0.1499
16600TIP3    H271216   3.072   5.389  14.303  1.1565  0.8522 -1.3578
16601TIP3   OH271217   1.090   2.417   6.269  0.0877  0.3040 -0.1043
16601TIP3    H171218   1.145   2.466   6.208  0.3454 -1.1032 -1.0086
16601TIP3    H271219   1.152   2.374   6.327 -0.1373  0.8104  0.5211
16602TIP3   OH271220   2.446   4.755  12.990  0.0567  0.1453 -0.5462
16602TIP3    H171221   2.414   4.763  12.900 -4.6636  1.9037  1.1537
16602TIP3    H271222   2.440   4.662  13.010  3.1185 -0.5721 -2.6238
16603TIP3   OH271223   2.633   4.909  13.141  0.6917  0.0609  0.0291
16603TIP3    H171224   2.611   5.001  13.158  0.5489  0.0945 -0.3386
16603TIP3    H271225   2.551   4.869  13.112  0.8339 -0.0986 -0.1600
16604TIP3   OH271226   5.960   0.817   4.354  0.4217  0.3297  0.3512
16604TIP3    H171227   6.039   0.827   4.301 -0.1567 -0.6954 -0.7427
16604TIP3    H271228   5.896   0.875   4.313  0.9161  2.0108  1.9083
16605TIP3   OH271229   2.383   1.584  16.177 -0.0227  0.0369 -0.0656
16605TIP3    H171230   2.381   1.589  16.273 -1.4688  0.6271 -0.1243
16605TIP3    H271231   2.291   1.584  16.151  0.3875  1.1123 -1.5348
16606TIP3   OH271232   6.523   3.219   5.947 -0.1960 -0.9362 -0.1674
16606TIP3    H171233   6.554   3.299   5.989 -0.8049 -0.5061 -0.5352
16606TIP3    H271234   6.428   3.231   5.937 -0.1878 -1.3945 -0.8815
16607TIP3   OH271235   4.021   6.127   3.414 -0.3577 -0.0374  0.2184
16607TIP3    H171236   4.000   6.038   3.441  0.5649 -0.0878  0.7702
16607TIP3    H271237   4.103   6.119   3.364 -0.0696  0.5494  0.5891
16608TIP3   OH271238   3.831   3.973  12.531 -0.0725 -0.0144  0.0471
16608TIP3    H171239   3.754   4.028  12.545  2.7146  4.7222 -1.6571
16608TIP3    H271240   3.875   3.972  12.616 -1.2279 -1.4912  0.6407
16609TIP3   OH271241   0.045   1.069  15.061 -0.4598  0.1601 -0.1865
16609TIP3    H171242   0.089   0.984  15.059 -0.4542  0.1131  1.1222
16609TIP3    H271243   0.102   1.124  15.115 -1.5158  0.3679  0.7549
16610TIP3   OH271244   3.912   3.961   3.781  0.2632 -0.5081  0.1938
16610TIP3    H171245   3.892   3.878   3.823  0.1526 -0.2821  0.5916
16610TIP3    H271246   3.954   4.013   3.850 -0.6080  0.1364  0.2433
16611TIP3   OH271247   0.737   0.903   0.026  0.3309 -0.1879 -0.1277
16611TIP3    H171248   0.785   0.939  -0.048  1.7225 -0.0030  0.8532
16611TIP3    H271249   0.672   0.970   0.047  1.7840  1.0206  0.6024
16612TIP3   OH271250   4.831   1.966  11.908  0.4724  0.3750  0.7608
16612TIP3    H171251   4.773   2.004  11.974  0.3938 -0.8868  1.4406
16612TIP3    H271252   4.824   1.871  11.922 -0.2329  0.0324 -1.6477
16613TIP3   OH271253   4.539   2.514  12.198 -0.1187 -0.2159  0.5546
16613TIP3    H171254   4.632   2.515  12.176 -0.1900  1.8768  0.2165
16613TIP3    H271255   4.505   2.435  12.156  1.4272 -0.8066  0.3837
16614TIP3   OH271256   3.762   2.499  16.474 -0.0375 -0.1897 -0.1040
16614TIP3    H171257   3.672   2.529  16.464  0.2740  1.1575  0.9843
16614TIP3    H271258   3.792   2.483  16.385 -0.7880  1.0788 -0.6058
16615TIP3   OH271259   0.696   1.187  16.515 -1.2856 -0.4734  0.4216
16615TIP3    H171260   0.640   1.127  16.466 -0.0052 -0.7095 -0.7702
16615TIP3    H271261   0.645   1.208  16.594 -2.9003 -0.9376 -0.4702
16616TIP3   OH271262   3.723   3.895  13.867 -0.0287  0.3772 -0.4339
16616TIP3    H171263   3.662   3.823  13.855  0.7882 -0.4487  0.3025
16616TIP3    H271264   3.738   3.899  13.962  1.5149  0.1612 -0.6426
16617TIP3   OH271265   4.258   3.221   3.843 -0.3197 -0.0724 -0.4634
16617TIP3    H171266   4.291   3.170   3.917  0.2934 -0.3649 -0.9382
16617TIP3    H271267   4.163   3.217   3.853 -0.2771 -1.2039 -0.4156
16618TIP3   OH271268   5.330   1.139  15.485  0.0725 -0.1312 -0.1689
16618TIP3    H171269   5.338   1.231  15.460  0.1834 -0.0461  0.1684
16618TIP3    H271270   5.275   1.100  15.417 -1.1067  0.4875  0.4050
16619TIP3   OH271271   4.254   5.130   2.418 -0.0219  0.4767 -0.1780
16619TIP3    H171272   4.261   5.036   2.431  0.5504  0.4008 -1.0150
16619TIP3    H271273   4.195   5.160   2.488 -0.4820 -0.5431 -0.1279
16620TIP3   OH271274   1.449   5.974   1.341  0.5977  0.0155 -0.6909
16620TIP3    H171275   1.441   5.882   1.315  0.3522 -0.0463 -0.3958
16620TIP3    H271276   1.537   5.999   1.312  0.8672 -0.4666 -0.3023
16621TIP3   OH271277   0.335   1.519   1.675 -0.3115 -0.2083  0.5252
16621TIP3    H171278   0.407   1.504   1.736  0.4197  0.5019 -0.1526
16621TIP3    H271279   0.368   1.492   1.590 -0.4039  1.2421  0.0017
16622TIP3   OH271280   2.030   5.865   5.700  0.0371 -0.1159 -0.0322
16622TIP3    H171281   2.032   5.904   5.613  1.1416  1.8188  0.8404
16622TIP3    H271282   2.118   5.827   5.711  0.3628  0.8609  0.7718
16623TIP3   OH271283   3.306   1.675   2.705  0.0997 -0.0310 -0.0865
16623TIP3    H171284   3.368   1.725   2.653  1.3173 -0.9066  0.4807
16623TIP3    H271285   3.242   1.642   2.642 -0.3076  1.6130 -0.5567
16624TIP3   OH271286   3.517   6.327  16.381  0.3572 -0.0043 -0.1524
16624TIP3    H171287   3.603   6.369  16.381  0.4732 -0.2342 -1.1427
16624TIP3    H271288   3.464   6.380  16.441  1.0995  0.3173  0.2153
16625TIP3   OH271289   3.159   5.523   3.480  0.1907 -0.2017  0.3708
16625TIP3    H171290   3.092   5.580   3.442  1.1138  0.2909 -0.5168
16625TIP3    H271291   3.153   5.540   3.574  0.3467  1.2609  0.1329
16626TIP3   OH271292   4.795   3.930   5.496 -0.2333  0.4148  0.0415
16626TIP3    H171293   4.777   3.883   5.578 -2.1187 -0.3035 -0.7726
16626TIP3    H271294   4.775   4.021   5.517  1.7662  0.6401  1.1156
16627TIP3   OH271295   3.285   2.708  16.922  0.1542 -0.8519  0.0638
16627TIP3    H171296   3.212   2.759  16.957  2.6964  1.1188  2.6890
16627TIP3    H271297   3.330   2.769  16.863  1.0223 -1.2534  0.3065
16628TIP3   OH271298   1.076   2.509   5.534 -0.2122  0.0227 -0.2074
16628TIP3    H171299   1.146   2.490   5.595  0.1035  0.2944 -0.4830
16628TIP3    H271300   1.015   2.565   5.583  0.5819  1.1505 -0.4698
16629TIP3   OH271301   0.340   6.461   4.451 -0.3785 -0.0343  0.0741
16629TIP3    H171302   0.426   6.473   4.493  0.0284  0.2346 -0.8166
16629TIP3    H271303   0.361   6.434   4.361 -1.1918  1.5531 -0.6249
16630TIP3   OH271304   4.939   5.391  12.046 -0.6078 -0.6660  0.1421
16630TIP3    H171305   4.937   5.471  12.099  1.8707 -0.2360 -0.3790
16630TIP3    H271306   4.865   5.339  12.079  0.7009 -0.3126  3.8615
16631TIP3   OH271307   0.554   6.365  16.963 -0.7345 -0.3589  0.3928
16631TIP3    H171308   0.598   6.284  16.939  1.1653  0.6405  0.3744
16631TIP3    H271309   0.605   6.433  16.918 -4.7452  0.5661 -3.0829
16632TIP3   OH271310   5.685   3.104   1.244 -0.0125 -0.0895 -0.1650
16632TIP3    H171311   5.747   3.076   1.177  1.4051  0.1995  1.0057
16632TIP3    H271312   5.642   3.023   1.273 -0.9665 -0.1587 -1.7272
16633TIP3   OH271313   0.472   0.724  17.186 -0.0312  0.5117 -0.6892
16633TIP3    H171314   0.511   0.688  17.266  2.1486 -0.0279 -1.9666
16633TIP3    H271315   0.394   0.771  17.217  0.8004  0.3685  1.7530
16634TIP3   OH271316   2.860   1.137  14.196  0.3424  0.5880 -0.2595
16634TIP3    H171317   2.906   1.053  14.196 -1.0127 -0.1644 -0.2954
16634TIP3    H271318   2.775   1.117  14.158 -0.2602  1.8338  0.4489
16635TIP3   OH271319   3.006   3.544  11.905 -0.1647  0.3200 -0.1993
16635TIP3    H171320   3.031   3.529  11.996 -0.8979  0.8338  0.0909
16635TIP3    H271321   2.971   3.633  11.903 -0.5964  0.1442 -0.8879
16636TIP3   OH271322   4.094   2.334  11.642 -0.9064  0.3878 -0.4387
16636TIP3    H171323   4.032   2.334  11.716  0.1032  1.1436  0.4186
16636TIP3    H271324   4.098   2.242  11.615 -1.1683  0.0678  0.5608
16637TIP3   OH271325   2.822   6.284  10.710  0.1536  0.2002  0.6978
16637TIP3    H171326   2.799   6.272  10.618 -0.4486 -1.7334  1.0684
16637TIP3    H271327   2.857   6.199  10.737 -1.6785  0.0683  2.8070
16638TIP3   OH271328   2.126   5.840   0.540 -0.6699  0.2007 -0.4353
16638TIP3    H171329   2.211   5.832   0.583 -0.5909 -0.1566 -0.6574
16638TIP3    H271330   2.108   5.934   0.541  0.8289  0.5420 -2.5264
16639TIP3   OH271331   2.036   1.248   0.115 -0.4805 -0.3386  0.1176
16639TIP3    H171332   2.113   1.219   0.164 -0.2377 -0.1913 -0.1701
16639TIP3    H271333   2.068   1.260   0.026 -0.9876 -0.9054 -0.1452
16640TIP3   OH271334   6.184   6.323  14.061  0.4511  0.2171 -0.3212
16640TIP3    H171335   6.231   6.268  13.998 -1.8568  0.0680 -1.9617
16640TIP3    H271336   6.142   6.390  14.009  0.3965  1.5044  1.3275
16641TIP3   OH271337   2.662   6.285   6.353 -0.5894  0.6533 -0.4294
16641TIP3    H171338   2.630   6.361   6.304  0.0298  0.7303 -0.7228
16641TIP3    H271339   2.732   6.319   6.408  0.6590  0.0612 -1.5976
16642TIP3   OH271340   6.425   6.095   2.111 -0.0931  0.9744 -0.2972
16642TIP3    H171341   6.480   6.046   2.173 -1.4856  1.3637  1.2917
16642TIP3    H271342   6.484   6.159   2.072  0.3175  2.3724  2.4761
16643TIP3   OH271343   4.441   3.815  16.916  0.1384 -0.0500 -0.3226
16643TIP3    H171344   4.422   3.798  16.824 -0.1979 -2.4843  0.1712
16643TIP3    H271345   4.397   3.898  16.935  0.1718  0.4360 -2.3388
16644TIP3   OH271346   0.761   2.713   5.949 -0.1836  0.7526 -0.0844
16644TIP3    H171347   0.809   2.670   6.020 -0.4443  1.2006  0.3631
16644TIP3    H271348   0.816   2.699   5.872 -1.0812 -1.8613 -0.3144
16645TIP3   OH271349   1.170   1.751   4.578 -0.0788 -0.4111 -0.5374
16645TIP3    H171350   1.103   1.731   4.513  0.9803 -0.0041 -1.7538
16645TIP3    H271351   1.244   1.694   4.555  0.6869  0.4896 -0.3122
16646TIP3   OH271352   3.040   6.564  16.915  0.2317  0.4099  0.7568
16646TIP3    H171353   3.079   6.504  16.851  0.0036 -0.0689  1.0652
16646TIP3    H271354   3.065   6.528  17.000 -4.1887 -2.2113  1.0827
16647TIP3   OH271355   0.771   3.342   1.332 -0.4418  0.4770  0.1553
16647TIP3    H171356   0.737   3.302   1.412  1.4840 -2.1246 -0.2497
16647TIP3    H271357   0.806   3.426   1.360  0.8339 -0.6893  2.2414
16648TIP3   OH271358   0.521   6.121   5.218 -0.2629  0.1105  0.1836
16648TIP3    H171359   0.446   6.092   5.269  0.6849 -1.9323  0.4882
16648TIP3    H271360   0.597   6.099   5.272  0.6207  0.6677 -0.8057
16649TIP3   OH271361   0.394   3.727  13.032  0.6514  0.3194  0.4905
16649TIP3    H171362   0.421   3.760  13.118  1.3685 -0.0161  0.4012
16649TIP3    H271363   0.438   3.784  12.970 -0.0108  0.6717  0.3488
16650TIP3   OH271364   0.578   0.046   0.243 -0.3836 -0.8678 -0.1874
16650TIP3    H171365   0.512   0.115   0.251 -0.1730 -0.3813 -2.3576
16650TIP3    H271366   0.529  -0.036   0.250 -0.9018 -0.5109  0.4007
16651TIP3   OH271367   6.403   5.361   0.172  0.2445  0.4171 -0.2858
16651TIP3    H171368   6.370   5.451   0.172  1.3783  0.8437 -0.8639
16651TIP3    H271369   6.355   5.318   0.243 -1.0908  1.1823 -0.7049
16652TIP3   OH271370   6.268   6.114  14.782 -0.3943 -0.3172  0.1089
16652TIP3    H171371   6.228   6.027  14.785 -0.1789 -0.4529 -0.7307
16652TIP3    H271372   6.197   6.172  14.752  0.0578 -0.5760 -1.4856
16653TIP3   OH271373   0.043   0.336  13.081 -0.0422  0.2003  0.4950
16653TIP3    H171374   0.067   0.244  13.091 -1.9721 -0.4204 -0.3177
16653TIP3    H271375   0.103   0.383  13.139 -0.3543 -1.7463  2.4632
16654TIP3   OH271376   5.894   1.299   5.643 -0.5113 -0.4109 -0.0960
16654TIP3    H171377   5.906   1.299   5.548  0.2427 -1.6904 -0.0171
16654TIP3    H271378   5.847   1.380   5.661 -0.7345 -0.1903 -1.5702
16655TIP3   OH271379   1.068   1.732  16.941 -0.0949 -0.3210 -0.5475
16655TIP3    H171380   1.111   1.794  16.883  1.8464 -2.7936 -1.8531
16655TIP3    H271381   1.139   1.694  16.994 -1.5271  0.2005  1.8487
16656TIP3   OH271382   5.744   6.176  16.174 -0.4888 -0.1408 -0.3263
16656TIP3    H171383   5.753   6.181  16.269 -1.1405 -0.5933 -0.2423
16656TIP3    H271384   5.651   6.191  16.157 -0.1245  1.5344 -0.9963
16657TIP3   OH271385   5.129   4.201  14.218 -0.1118 -0.0486 -1.2603
16657TIP3    H171386   5.049   4.219  14.168 -1.0987  1.2420  0.6977
16657TIP3    H271387   5.097   4.179  14.306  1.6282 -1.3357 -0.9197
16658TIP3   OH271388   2.562   5.872  15.738 -0.5461  0.1597 -0.0664
16658TIP3    H171389   2.537   5.948  15.685 -2.0381 -0.7127 -0.6571
16658TIP3    H271390   2.570   5.801  15.675  2.0389  0.0760  0.3242
16659TIP3   OH271391   1.976   0.136  13.787  0.5822 -0.6271  0.2935
16659TIP3    H171392   1.917   0.161  13.858  0.8835 -0.0522  0.3390
16659TIP3    H271393   2.044   0.084  13.830 -0.2347 -1.8423  0.1427
16660TIP3   OH271394   0.135   5.580  14.339  0.3489 -0.0686  0.1351
16660TIP3    H171395   0.134   5.676  14.336  1.7586 -0.0374  0.4478
16660TIP3    H271396   0.055   5.554  14.292  0.0346  1.2517 -0.0819
16661TIP3   OH271397   6.105   4.422   2.357 -0.3028  0.1235  0.5113
16661TIP3    H171398   6.174   4.366   2.393 -0.5139  0.2097  1.0560
16661TIP3    H271399   6.073   4.374   2.281  1.7912  1.0548 -1.0104
16662TIP3   OH271400   4.708   1.496  17.217  0.6365  0.2717  0.5181
16662TIP3    H171401   4.752   1.580  17.232 -0.0571  0.8102 -0.3703
16662TIP3    H271402   4.768   1.430  17.251  2.0029  1.0070 -0.4059
16663TIP3   OH271403   2.357   3.181  16.236  0.0365  0.5385  0.8891
16663TIP3    H171404   2.428   3.245  16.234  1.4659 -1.0433 -0.3846
16663TIP3    H271405   2.347   3.153  16.145  2.0239 -3.7747  1.8561
16664TIP3   OH271406   1.364   0.528  16.046  0.8646 -0.1129  0.1230
16664TIP3    H171407   1.386   0.613  16.084 -0.0262 -0.2745  1.0410
16664TIP3    H271408   1.448   0.490  16.021  1.1961  1.6403 -1.6552
16665TIP3   OH271409   0.746   4.826  13.251 -0.1404 -0.1167  0.0139
16665TIP3    H171410   0.710   4.740  13.274  0.1783 -0.6921 -1.5451
16665TIP3    H271411   0.820   4.838  13.311 -0.6172 -0.6064  0.7126
16666TIP3   OH271412   5.263   0.747  14.306 -0.2470  0.2160  0.0793
16666TIP3    H171413   5.175   0.762  14.270 -0.2889  0.4381  0.2720
16666TIP3    H271414   5.260   0.659  14.342 -0.3894  0.2223  0.0813
16667TIP3   OH271415   2.442   0.581  15.383 -0.1271  0.0167 -0.1983
16667TIP3    H171416   2.387   0.510  15.351  1.8023 -1.7381  0.2560
16667TIP3    H271417   2.432   0.651  15.318 -2.5696 -0.3834 -0.2991
16668TIP3   OH271418   2.217   2.718   5.197  0.2315  0.1284 -0.2454
16668TIP3    H171419   2.208   2.626   5.220  0.1267  0.3601  0.6627
16668TIP3    H271420   2.150   2.763   5.248 -0.5081  0.5748 -1.5852
16669TIP3   OH271421   2.241   0.276  16.024 -0.5834  0.0291 -0.3654
16669TIP3    H171422   2.334   0.251  16.018 -0.9498 -1.3191 -0.7117
16669TIP3    H271423   2.242   0.371  16.032  0.8152  0.0754 -0.8971
16670TIP3   OH271424   0.133   2.877  13.401 -0.0385 -0.5153  0.2353
16670TIP3    H171425   0.222   2.845  13.385 -0.4594 -0.2093 -2.9289
16670TIP3    H271426   0.085   2.800  13.433  0.9965 -1.0284  0.5607
16671TIP3   OH271427   0.027   5.411  13.887  0.0732 -0.1034  0.6020
16671TIP3    H171428   0.010   5.481  13.824 -0.2168  0.0239  0.8222
16671TIP3    H271429   0.120   5.392  13.877  1.1405  3.1333  3.4030
16672TIP3   OH271430   2.713   5.668  14.317 -0.0837  0.1619 -0.4012
16672TIP3    H171431   2.645   5.657  14.251  1.0904 -1.9592 -1.3498
16672TIP3    H271432   2.757   5.749  14.293 -0.4812  0.0721 -1.4840
16673TIP3   OH271433   2.238   3.999   6.405  0.5737 -0.7762 -0.0118
16673TIP3    H171434   2.216   4.006   6.497 -0.0240  1.1304 -0.2574
16673TIP3    H271435   2.248   3.906   6.388 -0.6438 -1.2218  1.6726
16674TIP3   OH271436   0.021   6.368  14.270  0.1590 -0.0466 -0.6044
16674TIP3    H171437   0.011   6.380  14.176 -1.1679  0.3495 -0.4222
16674TIP3    H271438   0.063   6.449  14.300  0.9402 -0.3325 -0.8929
16675TIP3   OH271439   3.684   2.064   6.055  0.2010 -0.0800 -0.3419
16675TIP3    H171440   3.757   2.099   6.106  1.0473 -3.4600  0.8900
16675TIP3    H271441   3.605   2.096   6.100  0.8734  1.9427 -0.5340
16676TIP3   OH271442   3.728   5.316   1.379  0.0981  0.0083 -0.3726
16676TIP3    H171443   3.689   5.305   1.466 -0.4416 -0.5918 -0.6819
16676TIP3    H271444   3.738   5.410   1.368 -0.3237  0.1118  0.1344
16677TIP3   OH271445   1.807   0.833   0.616  0.6059 -0.0675 -0.1795
16677TIP3    H171446   1.901   0.820   0.630  0.5232 -0.9452 -0.4354
16677TIP3    H271447   1.766   0.800   0.697  0.6096  1.8317  0.6356
16678TIP3   OH271448   3.703   0.203  16.288 -0.8303 -0.3042  0.8191
16678TIP3    H171449   3.714   0.125  16.234 -1.4186 -0.8366  1.4722
16678TIP3    H271450   3.711   0.172  16.378 -0.7081  0.4430  1.0709
16679TIP3   OH271451   4.111   1.607   4.730  0.5516  0.0364 -0.2028
16679TIP3    H171452   4.107   1.669   4.803 -0.2279  0.3504 -0.5096
16679TIP3    H271453   4.045   1.639   4.668  1.4633 -0.0179 -1.2118
16680TIP3   OH271454   2.110   5.292  12.637  0.4806 -0.2676  0.4126
16680TIP3    H171455   2.063   5.356  12.583 -0.2046 -2.1977 -1.3325
16680TIP3    H271456   2.162   5.346  12.697 -0.0149  1.9296 -1.0453
16681TIP3   OH271457   5.692   1.226  16.881  0.0291 -0.1724  0.0967
16681TIP3    H171458   5.605   1.265  16.889 -0.5111 -1.5379  1.1086
16681TIP3    H271459   5.736   1.250  16.962 -0.6012 -2.3093  1.1203
16682TIP3   OH271460   6.119   0.723  16.443 -0.1742 -0.0037  0.7011
16682TIP3    H171461   6.039   0.702  16.395 -0.1335 -0.4356  0.8220
16682TIP3    H271462   6.186   0.733  16.375 -0.4137  0.7565  0.5669
16683TIP3   OH271463   0.425   0.576  15.265  0.3017  0.3231 -0.3901
16683TIP3    H171464   0.467   0.660  15.245  0.4916  0.6249  1.2173
16683TIP3    H271465   0.462   0.549  15.349 -1.2956 -0.3488  0.1328
16684TIP3   OH271466   5.946   2.665  12.920  0.4710 -0.4349 -0.2319
16684TIP3    H171467   6.020   2.725  12.924  1.7030 -1.9391  0.1631
16684TIP3    H271468   5.969   2.603  12.851 -0.9131 -0.3077 -0.8233
16685TIP3   OH271469   2.655   2.657  12.210 -0.2383  0.0036  0.3600
16685TIP3    H171470   2.672   2.746  12.241  1.3178 -0.0508 -0.3349
16685TIP3    H271471   2.619   2.668  12.122 -0.8260 -0.0292  0.5906
16686TIP3   OH271472   2.843   0.555   1.042 -0.1668 -0.2067  0.2500
16686TIP3    H171473   2.932   0.521   1.051 -0.7134 -1.4861  0.8853
16686TIP3    H271474   2.813   0.522   0.957  0.2577  0.9359 -0.3583
16687TIP3   OH271475   1.027   0.715  16.304  0.5863  0.4651  0.3101
16687TIP3    H171476   1.005   0.747  16.216  1.3800 -0.6640 -0.3019
16687TIP3    H271477   1.083   0.639  16.289 -1.1271 -1.1438  1.7463
16688TIP3   OH271478   4.118   2.211   2.971  0.2012  0.1992  0.2573
16688TIP3    H171479   4.057   2.149   2.931 -0.2246  0.5398  0.3656
16688TIP3    H271480   4.203   2.187   2.936 -0.1668  0.4955 -0.8506
16689TIP3   OH271481   4.136   3.332   0.444  0.1969  0.1771 -0.5812
16689TIP3    H171482   4.131   3.351   0.351  0.3576 -1.8652 -1.0268
16689TIP3    H271483   4.049   3.298   0.466 -0.2590  1.8577  0.3121
16690TIP3   OH271484   6.652   6.390  14.530  0.2194 -0.3706  0.0323
16690TIP3    H171485   6.566   6.349  14.517  0.8097 -1.4142 -0.7135
16690TIP3    H271486   6.671   6.433  14.447  1.5472 -2.3591 -0.7545
16691TIP3   OH271487   1.098   4.288  13.175 -0.1854  0.2100  0.0762
16691TIP3    H171488   1.149   4.286  13.094  0.1052 -0.5249  0.2701
16691TIP3    H271489   1.056   4.374  13.176  0.2128  0.4087 -0.6051
16692TIP3   OH271490   4.898   6.441   4.043 -0.1050 -0.8885  0.5608
16692TIP3    H171491   4.943   6.367   4.082 -1.4712 -2.4274 -0.7067
16692TIP3    H271492   4.892   6.420   3.950  0.2312  1.2062  0.0311
16693TIP3   OH271493   2.888   5.405   5.054  0.3622  0.5869  0.1020
16693TIP3    H171494   2.828   5.464   5.009 -0.5835  1.5367  2.5128
16693TIP3    H271495   2.834   5.332   5.084  0.8592  0.2662  0.2362
16694TIP3   OH271496   0.924   2.349  12.198  0.6200 -0.2899 -0.6064
16694TIP3    H171497   0.834   2.316  12.190  0.9033 -0.9577 -1.0929
16694TIP3    H271498   0.979   2.274  12.174  1.3413 -0.2452  0.8791
16695TIP3   OH271499   3.387   4.494  10.708 -0.0519 -0.1245 -0.5320
16695TIP3    H171500   3.419   4.579  10.678  1.9184 -0.7772 -0.3496
16695TIP3    H271501   3.441   4.474  10.785 -2.9043  0.0814  1.6261
16696TIP3   OH271502   0.091   4.035   4.961  0.2219  0.6934 -0.5127
16696TIP3    H171503   0.113   4.127   4.947  0.7606  0.7481  0.5871
16696TIP3    H271504   0.173   3.996   4.993 -0.6043  0.3402  1.2275
16697TIP3   OH271505   0.321   4.405  14.849  0.6536  0.7717 -0.0654
16697TIP3    H171506   0.406   4.374  14.880  0.4971  1.3152  0.9002
16697TIP3    H271507   0.274   4.430  14.928 -1.4704 -2.1373 -0.3038
16698TIP3   OH271508   1.530   2.112  15.794  0.3715  0.7079  0.9572
16698TIP3    H171509   1.482   2.029  15.791  0.7502  0.5435 -0.9055
16698TIP3    H271510   1.461   2.178  15.802  0.0125  0.2938  1.3839
16699TIP3   OH271511   0.810   1.713  16.338  0.1413 -0.4059 -0.2878
16699TIP3    H171512   0.829   1.781  16.403  0.4912 -0.2210 -0.5870
16699TIP3    H271513   0.771   1.642  16.390 -2.7423  1.0709 -0.3279
16700TIP3   OH271514   4.086   3.848  16.847 -0.2269 -0.3113  0.2235
16700TIP3    H171515   4.148   3.781  16.819 -0.6946 -0.8092  0.3691
16700TIP3    H271516   4.083   3.910  16.775 -0.6841 -1.0649 -0.4101
16701TIP3   OH271517   3.781   5.024  15.876  0.1188 -0.1781 -0.5062
16701TIP3    H171518   3.861   5.046  15.924 -0.9797 -1.8524  2.2388
16701TIP3    H271519   3.717   5.089  15.904 -1.3273 -2.8083  2.6723
16702TIP3   OH271520   5.596   6.269   1.683 -0.1187 -0.3615 -0.4233
16702TIP3    H171521   5.660   6.258   1.753  1.5139  0.7466 -1.7090
16702TIP3    H271522   5.546   6.346   1.708 -2.9551 -2.8795  2.0470
16703TIP3   OH271523   3.885   4.298  14.818 -0.0430  0.3346  0.0403
16703TIP3    H171524   3.792   4.276  14.812  0.6586 -2.4867 -1.0944
16703TIP3    H271525   3.903   4.348  14.738 -0.3412 -0.0497 -0.2693
16704TIP3   OH271526   1.678   5.989   1.171  0.3525  0.1196 -0.1583
16704TIP3    H171527   1.715   6.025   1.090  1.4864 -0.4388  0.0956
16704TIP3    H271528   1.755   5.961   1.221 -0.4462 -1.4376  0.2129
16705TIP3   OH271529   0.280   2.719  11.773  0.0410 -0.1651  0.2820
16705TIP3    H171530   0.287   2.641  11.719  0.3469  0.2442 -0.2705
16705TIP3    H271531   0.218   2.775  11.727  0.4903  0.2863  0.2202
16706TIP3   OH271532   5.932   0.836  13.370  0.1763 -0.2583 -0.5942
16706TIP3    H171533   5.936   0.850  13.275  2.1857  1.2514 -0.3309
16706TIP3    H271534   5.865   0.897  13.401  1.2108  1.0006 -0.7783
16707TIP3   OH271535   5.449   1.047  12.356 -0.2326 -0.1058 -0.3163
16707TIP3    H171536   5.442   1.115  12.289  1.2727  0.6476  0.2736
16707TIP3    H271537   5.487   0.972  12.311  2.9042  1.1324  0.1622
16708TIP3   OH271538   3.607   3.575  10.816 -0.2030  0.4037 -0.2401
16708TIP3    H171539   3.665   3.646  10.787 -0.9876  1.2941  0.3343
16708TIP3    H271540   3.546   3.563  10.743  0.4703 -0.2877 -0.6988
16709TIP3   OH271541   5.132   2.521  11.399 -0.1821  0.1122 -0.2460
16709TIP3    H171542   5.053   2.501  11.348  1.1399 -2.0405 -1.5150
16709TIP3    H271543   5.152   2.439  11.444  0.2038  1.2392  1.6532
16710TIP3   OH271544   1.172   3.582   2.094 -0.2020  0.1274  0.2526
16710TIP3    H171545   1.131   3.514   2.147  0.1278 -1.5997 -1.6055
16710TIP3    H271546   1.106   3.605   2.029 -0.4380  1.8771  1.0854
16711TIP3   OH271547   5.849   0.753  16.373 -0.0556  0.3725 -0.1158
16711TIP3    H171548   5.793   0.774  16.448  1.7784  0.5833  1.2526
16711TIP3    H271549   5.874   0.838  16.336  0.2415  0.3245 -0.0311
16712TIP3   OH271550   3.123   0.053  12.411 -0.4573  0.4847 -0.1191
16712TIP3    H171551   3.121   0.006  12.495  1.2779  1.1363  0.3074
16712TIP3    H271552   3.216   0.069  12.395 -0.9098  2.1067 -1.2099
16713TIP3   OH271553   4.404   5.077  15.621  0.0287 -0.0081 -0.1936
16713TIP3    H171554   4.416   5.013  15.551  0.6356 -2.3596  2.0003
16713TIP3    H271555   4.492   5.111  15.637  0.1525 -0.6821  0.5504
16714TIP3   OH271556   1.372   5.262   2.645 -0.5093  0.6571 -0.1054
16714TIP3    H171557   1.359   5.172   2.615 -1.1722  0.4372  0.8162
16714TIP3    H271558   1.416   5.306   2.572 -0.5571 -0.3041 -0.7189
16715TIP3   OH271559   2.039   4.720  13.846  0.3210 -0.3082 -0.0695
16715TIP3    H171560   2.077   4.801  13.879 -0.7458  1.0490 -2.0918
16715TIP3    H271561   2.057   4.720  13.753 -1.3752 -1.4475 -0.4349
16716TIP3   OH271562   3.640   6.187  15.504 -0.2313  0.1854 -0.1142
16716TIP3    H171563   3.734   6.205  15.498 -0.3103  0.5484 -0.2831
16716TIP3    H271564   3.607   6.204  15.416 -1.1162  3.9037  0.8553
16717TIP3   OH271565   6.118   2.029  14.461 -0.2236  0.1884 -0.1512
16717TIP3    H171566   6.121   1.939  14.430  0.1489  0.1064  0.1199
16717TIP3    H271567   6.197   2.039  14.514 -0.1050  0.7612 -0.4244
16718TIP3   OH271568   4.253   3.779  16.001  0.1879  0.3758 -0.3003
16718TIP3    H171569   4.207   3.701  15.973 -2.0032  1.3088  0.5599
16718TIP3    H271570   4.337   3.747  16.035 -1.4336 -1.8371  1.8108
16719TIP3   OH271571   0.302   2.094  16.018  0.0090 -0.1108 -0.2276
16719TIP3    H171572   0.221   2.051  15.989  0.4064  0.4256 -2.2141
16719TIP3    H271573   0.274   2.148  16.092 -1.7916  1.1843 -1.7778
16720TIP3   OH271574   5.999   3.516  13.461  0.0125 -0.3719  0.5306
16720TIP3    H171575   6.079   3.558  13.494  0.7608 -0.6195 -0.9172
16720TIP3    H271576   5.966   3.466  13.535  1.9920 -1.3980  0.7769
16721TIP3   OH271577   6.621   6.418  13.409  0.4837  0.1148 -0.2688
16721TIP3    H171578   6.636   6.329  13.439  1.0105  0.5910  0.9286
16721TIP3    H271579   6.708   6.452  13.389  0.4012  0.7101  0.3429
16722TIP3   OH271580   4.653   5.015   5.848 -0.1262  0.5127 -0.4260
16722TIP3    H171581   4.613   4.963   5.918  0.3524 -0.4527 -0.8734
16722TIP3    H271582   4.675   4.952   5.780  1.5639  1.1237 -0.4720
16723TIP3   OH271583   2.093   5.847  16.693  0.7049 -0.4310 -0.1156
16723TIP3    H171584   2.124   5.855  16.783  1.6958  0.0477 -0.4818
16723TIP3    H271585   2.173   5.830  16.642  0.3481  0.7297 -1.0835
16724TIP3   OH271586   5.131   4.111  13.206 -0.3672 -0.5428  0.2258
16724TIP3    H171587   5.089   4.190  13.173  0.6024 -0.4772 -0.8768
16724TIP3    H271588   5.100   4.042  13.147 -0.1035 -0.7497  0.3275
16725TIP3   OH271589   0.303   3.915  14.507 -0.3161  0.4615 -0.2396
16725TIP3    H171590   0.231   3.958  14.461 -1.3258 -0.0856  0.8034
16725TIP3    H271591   0.296   3.823  14.482 -0.9731  0.1329  1.1195
16726TIP3   OH271592   6.216   3.866  12.351 -0.2499 -0.2638  0.0853
16726TIP3    H171593   6.218   3.772  12.366  1.8013 -0.2243  0.1634
16726TIP3    H271594   6.221   3.875  12.255  1.5307 -0.2161  0.1642
16727TIP3   OH271595   6.175   5.606  12.580  0.3084 -0.0565  0.2359
16727TIP3    H171596   6.090   5.588  12.539  1.3076 -1.3226 -1.2805
16727TIP3    H271597   6.188   5.700  12.567 -0.3817 -0.0448 -0.4010
16728TIP3   OH271598   0.520   1.241  14.009 -0.5130 -0.0814  0.3587
16728TIP3    H171599   0.446   1.302  14.012 -0.5032 -0.0301 -0.3443
16728TIP3    H271600   0.597   1.298  14.003 -0.4319 -0.1400  0.8348
16729TIP3   OH271601   2.127   6.230  12.934  0.4546 -0.3318 -0.2779
16729TIP3    H171602   2.109   6.137  12.950 -1.1311  0.2368  1.4914
16729TIP3    H271603   2.083   6.275  13.006  1.2217  1.7955 -1.1107
16730TIP3   OH271604   0.403   1.418  15.838 -0.4419 -0.3371 -0.6722
16730TIP3    H171605   0.414   1.328  15.806 -0.7728 -0.7218  0.2580
16730TIP3    H271606   0.309   1.427  15.851 -0.6478  0.8510 -2.7073
16731TIP3   OH271607   4.248   3.528   4.244  0.6747  0.0191  0.4236
16731TIP3    H171608   4.176   3.465   4.255 -0.7158  1.5378  0.2475
16731TIP3    H271609   4.318   3.478   4.202 -0.2602 -1.5012  0.6398
16732TIP3   OH271610   6.047   4.249   6.286 -0.1398  0.2554 -0.0342
16732TIP3    H171611   6.142   4.247   6.298  0.0998  0.4851 -1.7761
16732TIP3    H271612   6.020   4.335   6.318  0.4231  0.7037 -0.7577
16733TIP3   OH271613   1.713   4.800  14.601 -0.2399 -0.2492 -0.1071
16733TIP3    H171614   1.660   4.769  14.527 -0.2012 -0.2857 -0.1195
16733TIP3    H271615   1.736   4.721  14.649  0.5671 -0.3241 -0.6111
16734TIP3   OH271616   0.688   2.954   1.731  0.5775  0.2053  0.5036
16734TIP3    H171617   0.597   2.945   1.705  0.4598 -0.8304  1.2196
16734TIP3    H271618   0.738   2.927   1.654  0.2670  0.2817  0.2766
16735TIP3   OH271619   4.173   6.321   2.141  0.2316  0.0134  0.0953
16735TIP3    H171620   4.255   6.349   2.101  0.5210 -0.1174  0.6007
16735TIP3    H271621   4.155   6.388   2.207 -0.3932  0.3814 -0.4335
16736TIP3   OH271622   0.523   0.688   3.116 -0.3322 -0.0480 -0.4715
16736TIP3    H171623   0.584   0.615   3.101 -0.4940 -0.1152 -0.8146
16736TIP3    H271624   0.534   0.710   3.208  1.4792  1.0755 -0.9234
16737TIP3   OH271625   4.855   0.938   2.749  0.1382  0.2214 -0.1381
16737TIP3    H171626   4.840   1.025   2.785  2.2885  0.5568  0.0311
16737TIP3    H271627   4.905   0.893   2.817 -2.2321 -1.6689  0.4142
16738TIP3   OH271628   5.829   5.970  14.171  0.4688  0.6612 -0.0957
16738TIP3    H171629   5.892   5.991  14.102  0.7017 -0.4813 -0.2344
16738TIP3    H271630   5.881   5.934  14.242 -0.0732 -0.7446 -0.3968
16739TIP3   OH271631   6.691   4.696   6.600 -0.0267 -0.1444 -0.0213
16739TIP3    H171632   6.765   4.712   6.541 -0.4515 -2.1973 -1.1585
16739TIP3    H271633   6.716   4.618   6.650 -0.7045  0.1439  0.7759
16740TIP3   OH271634   2.668   1.170   6.498  0.1669 -0.1624 -0.4865
16740TIP3    H171635   2.575   1.158   6.482 -0.0600  0.1112  0.6264
16740TIP3    H271636   2.708   1.085   6.479 -0.0202  0.2519 -2.9643
16741TIP3   OH271637   5.502   5.122   5.955 -0.1430 -0.3984  0.1413
16741TIP3    H171638   5.553   5.200   5.932 -1.3076  0.2737 -0.1957
16741TIP3    H271639   5.499   5.122   6.050 -0.6264  0.2810  0.1228
16742TIP3   OH271640   0.454   0.128  10.852  0.0473  0.6894  0.6802
16742TIP3    H171641   0.397   0.063  10.894  1.5797  0.3611  2.3164
16742TIP3    H271642   0.502   0.078  10.785  0.1940  0.4214  0.9809
16743TIP3   OH271643   2.674   3.773  16.290 -0.4845 -0.4352 -0.5396
16743TIP3    H171644   2.685   3.855  16.338 -1.4320 -0.0801 -0.9127
16743TIP3    H271645   2.731   3.781  16.213 -1.1412  0.1775 -0.9611
16744TIP3   OH271646   5.257   4.135  15.358 -0.7057 -0.3262  0.3737
16744TIP3    H171647   5.244   4.086  15.439 -1.9093  1.2877  1.1803
16744TIP3    H271648   5.351   4.128  15.341 -0.5288 -1.1568  1.5825
16745TIP3   OH271649   4.129   3.799  11.721 -0.1398 -0.2035 -0.3795
16745TIP3    H171650   4.214   3.836  11.695  0.3457 -0.8699  0.2462
16745TIP3    H271651   4.081   3.789  11.639 -0.2292  1.6729 -0.5790
16746TIP3   OH271652   1.744   0.188   0.591  0.6991  0.4149 -0.4225
16746TIP3    H171653   1.741   0.260   0.655 -1.0986  1.4880 -1.6499
16746TIP3    H271654   1.693   0.118   0.631  0.2801  0.7813 -0.3101
16747TIP3   OH271655   4.742   0.648  14.667  0.0344 -0.5390 -0.1856
16747TIP3    H171656   4.799   0.689  14.732 -2.6828 -0.5970  2.3107
16747TIP3    H271657   4.787   0.566  14.645  1.5735  0.0343  0.7096
16748TIP3   OH271658   1.917   6.480  16.975 -0.2150  0.2105 -0.1532
16748TIP3    H171659   1.859   6.455  16.902 -0.8596 -1.4365  0.9025
16748TIP3    H271660   1.887   6.567  17.000 -1.2551 -0.0005 -0.6207
16749TIP3   OH271661   1.875   2.307   5.263  0.0281 -0.1799  0.2544
16749TIP3    H171662   1.954   2.341   5.220 -0.8631  1.1951 -0.3301
16749TIP3    H271663   1.867   2.360   5.342 -1.2483  0.8301 -0.5453
16750TIP3   OH271664   0.113   1.767  15.761 -0.1057  0.3916  0.0723
16750TIP3    H171665   0.134   1.700  15.826 -0.0736  0.1850 -0.1511
16750TIP3    H271666   0.104   1.847  15.812  1.3985  0.5149  0.1508
16751TIP3   OH271667   0.326   3.783  16.447 -0.3258  0.1759  0.1839
16751TIP3    H171668   0.309   3.793  16.541  0.4119  0.1339  0.3239
16751TIP3    H271669   0.285   3.699  16.425 -1.6261  0.7986  0.1928
16752TIP3   OH271670   1.408   6.373  10.337 -0.5492 -0.1365 -0.1995
16752TIP3    H171671   1.482   6.316  10.356  0.4550  1.2676  0.1467
16752TIP3    H271672   1.446   6.450  10.296 -1.6010  1.3569  1.5163
16753TIP3   OH271673   2.565   4.133   1.582  0.1065 -0.0897  0.4311
16753TIP3    H171674   2.568   4.043   1.550 -0.0245  1.0010 -2.8273
16753TIP3    H271675   2.481   4.166   1.551  0.9211  1.6899  0.0838
16754TIP3   OH271676   0.270   1.060   3.100  0.1446 -0.3810 -0.9762
16754TIP3    H171677   0.361   1.066   3.130  0.1613 -0.1512 -1.0659
16754TIP3    H271678   0.274   1.000   3.025  0.3795  0.3610 -1.5672
16755TIP3   OH271679   3.554   2.915   5.181  0.6623  0.1337 -0.4511
16755TIP3    H171680   3.548   2.975   5.255  0.4595 -2.0818  1.3558
16755TIP3    H271681   3.569   2.972   5.105 -2.7717  2.7239  0.7195
16756TIP3   OH271682   5.450   5.242   1.427 -0.0280 -0.1791 -0.6457
16756TIP3    H171683   5.362   5.227   1.463 -0.0868  1.8216  0.1155
16756TIP3    H271684   5.452   5.191   1.347 -2.7439  1.4945 -1.8589
16757TIP3   OH271685   1.053   1.542  12.243 -1.3188 -0.3014  0.8254
16757TIP3    H171686   1.092   1.628  12.258 -3.5331  0.7056  1.0161
16757TIP3    H271687   0.997   1.527  12.320 -0.8874 -1.9485  0.8365
16758TIP3   OH271688   6.713   1.099  14.241  0.0255  0.1668  0.6292
16758TIP3    H171689   6.713   1.055  14.155 -1.3517 -0.2715  0.8398
16758TIP3    H271690   6.703   1.192  14.220  0.0993  0.1041  0.3049
16759TIP3   OH271691   2.846   4.332  15.544 -0.4878 -0.0304  0.2264
16759TIP3    H171692   2.855   4.267  15.475 -2.5898 -0.3557  0.2298
16759TIP3    H271693   2.837   4.281  15.624 -2.1425  0.2609  0.2288
16760TIP3   OH271694   4.577   4.355  10.776  0.2626  0.3641  0.6482
16760TIP3    H171695   4.642   4.418  10.746  0.3549 -0.0855 -0.0876
16760TIP3    H271696   4.576   4.286  10.710 -1.8590  0.9689  0.0114
16761TIP3   OH271697   0.652   5.836   0.526 -0.0180  0.0210  0.6334
16761TIP3    H171698   0.589   5.812   0.458 -0.9277  0.8872  1.1559
16761TIP3    H271699   0.733   5.854   0.478 -0.7394  0.9595 -0.2663
16762TIP3   OH271700   6.428   6.493   2.490 -1.0082  0.3719  0.0572
16762TIP3    H171701   6.512   6.453   2.470  0.2513  2.4901  0.9331
16762TIP3    H271702   6.386   6.431   2.550  0.0656 -0.5456 -0.1119
16763TIP3   OH271703   4.409   5.204   5.742  0.6449 -1.0287  0.4874
16763TIP3    H171704   4.352   5.234   5.671 -0.3774  0.1415  1.7625
16763TIP3    H271705   4.498   5.211   5.706  0.2570  1.1076 -0.1462
16764TIP3   OH271706   5.268   2.503  10.589  0.0259  0.6345  0.0195
16764TIP3    H171707   5.207   2.431  10.582  2.4445 -1.2301 -3.0211
16764TIP3    H271708   5.341   2.468  10.640  0.0056  1.8247  0.8960
16765TIP3   OH271709   4.194   5.384  11.125 -0.1427  0.1988 -0.0141
16765TIP3    H171710   4.123   5.325  11.150  0.6438 -0.0409  1.7572
16765TIP3    H271711   4.230   5.345  11.044 -0.3396 -1.1488  0.5314
16766TIP3   OH271712   1.502   1.048   0.456 -0.4724 -0.4756  0.0379
16766TIP3    H171713   1.505   1.096   0.373 -0.4204 -2.1555 -0.9673
16766TIP3    H271714   1.408   1.033   0.471 -0.4608 -0.5213  0.0653
16767TIP3   OH271715   1.384   4.053   1.935  0.8746 -0.7738  0.4369
16767TIP3    H171716   1.328   4.074   2.010  1.3615 -0.2263  0.6535
16767TIP3    H271717   1.340   3.979   1.892 -0.4285  0.1396  0.1472
16768TIP3   OH271718   6.591   5.048  12.913 -0.1890  0.2999 -0.1005
16768TIP3    H171719   6.679   5.059  12.949 -0.1624  2.0432 -0.6345
16768TIP3    H271720   6.533   5.083  12.981 -0.3565  0.5610 -0.3734
16769TIP3   OH271721   2.712   5.848  16.731  0.1693  0.4641  0.3858
16769TIP3    H171722   2.784   5.903  16.701  0.8628  0.1087  1.3898
16769TIP3    H271723   2.752   5.784  16.790 -0.6488 -1.0003 -0.5804
16770TIP3   OH271724   0.524   3.078   2.284  0.1403 -0.1251  0.1159
16770TIP3    H171725   0.550   3.157   2.331  1.2543 -1.0544  1.1162
16770TIP3    H271726   0.432   3.066   2.306  0.0829  0.6413  0.3140
16771TIP3   OH271727   2.153   3.617  15.020 -0.0168  0.5823 -0.3992
16771TIP3    H171728   2.182   3.708  15.030  0.1601  0.3718  1.0986
16771TIP3    H271729   2.225   3.565  15.053 -0.1501 -0.1157 -1.1920
16772TIP3   OH271730   3.853   2.366   4.516 -1.1290 -0.3198  0.3232
16772TIP3    H171731   3.869   2.420   4.593 -1.1826 -0.3128  0.3297
16772TIP3    H271732   3.933   2.315   4.505 -0.4847  0.8687 -0.5793
16773TIP3   OH271733   2.436   2.478   4.956  0.9577 -0.1020 -0.0584
16773TIP3    H171734   2.460   2.386   4.969 -0.0204 -0.6421 -1.7525
16773TIP3    H271735   2.345   2.474   4.924 -0.0872  1.6327  2.5324
16774TIP3   OH271736   4.013   0.688  12.779  0.4195  0.1637  0.1720
16774TIP3    H171737   4.024   0.598  12.748 -0.6680  0.4001 -0.9414
16774TIP3    H271738   3.941   0.683  12.842 -1.5587  0.6814 -1.9691
16775TIP3   OH271739   3.729   0.091   4.654  0.5625 -0.0141 -0.3687
16775TIP3    H171740   3.686   0.018   4.699 -0.0549  0.2762 -0.4967
16775TIP3    H271741   3.793   0.124   4.718 -0.8533  0.9033  0.5911
16776TIP3   OH271742   0.868   5.081   4.322 -0.4790  0.0473 -0.7021
16776TIP3    H171743   0.868   4.986   4.307 -2.6426 -0.0296 -0.3605
16776TIP3    H271744   0.880   5.090   4.417 -1.6028  0.0582 -0.5531
16777TIP3   OH271745   0.632   2.598  13.125  0.4868  0.5251 -0.0216
16777TIP3    H171746   0.614   2.511  13.160  1.7418 -0.4974 -1.8344
16777TIP3    H271747   0.592   2.598  13.038  1.2112  1.4572 -0.3681
16778TIP3   OH271748   4.083   0.987   2.528 -0.0057 -0.2998 -0.1927
16778TIP3    H171749   4.143   0.930   2.479 -1.1394 -1.4426 -0.2788
16778TIP3    H271750   4.016   1.013   2.465  0.2188  0.7314 -0.0188
16779TIP3   OH271751   6.632   3.339   1.447 -0.2371 -0.1374 -0.4821
16779TIP3    H171752   6.684   3.287   1.508 -2.1888 -0.7498  0.6926
16779TIP3    H271753   6.643   3.295   1.362  1.3272 -0.1127 -0.3046
16780TIP3   OH271754   6.023   0.194  13.848  0.1095 -0.1193 -0.2572
16780TIP3    H171755   5.993   0.212  13.759 -0.2286 -0.4150 -0.2021
16780TIP3    H271756   6.093   0.130  13.837  0.6765  0.5070 -0.3770
16781TIP3   OH271757   5.800   4.438  15.441  0.6843  0.0974 -0.5241
16781TIP3    H171758   5.776   4.397  15.358 -0.5536 -4.5198  1.9635
16781TIP3    H271759   5.889   4.407  15.458  0.2580 -0.4417  0.7369
16782TIP3   OH271760   1.099   2.928  13.179 -0.1018  0.1727  0.2243
16782TIP3    H171761   1.028   2.879  13.139  0.8232 -0.4873 -0.6259
16782TIP3    H271762   1.166   2.934  13.111  0.3990  1.3409  0.8001
16783TIP3   OH271763   3.494   4.997  14.662 -0.2265  0.4256  0.0513
16783TIP3    H171764   3.558   4.931  14.635  0.0638  0.9937 -0.6768
16783TIP3    H271765   3.529   5.079  14.627 -1.0192  0.8396  0.2199
16784TIP3   OH271766   0.309   1.698   5.677  0.2596 -0.3906  0.1750
16784TIP3    H171767   0.377   1.765   5.683 -0.2102  0.3587 -2.3331
16784TIP3    H271768   0.240   1.730   5.735 -0.0422  1.4396 -1.1515
16785TIP3   OH271769   1.546   0.346  17.015  0.0518 -0.1978 -0.0885
16785TIP3    H171770   1.537   0.267  16.962 -0.4048  0.4408 -0.9676
16785TIP3    H271771   1.485   0.332  17.088 -2.1607  0.5605 -1.7336
16786TIP3   OH271772   6.194   2.861   6.802 -0.2992 -0.1101 -0.3051
16786TIP3    H171773   6.278   2.826   6.773 -0.1472  0.5076 -0.6037
16786TIP3    H271774   6.174   2.932   6.741 -0.0186  1.1360  1.0285
16787TIP3   OH271775   5.689   2.187  12.239  0.0159  0.4326  0.2526
16787TIP3    H171776   5.639   2.266  12.260 -0.5467  0.0674  0.3042
16787TIP3    H271777   5.625   2.128  12.199  0.7230  0.5086 -1.0133
16788TIP3   OH271778   4.692   3.955  11.145 -0.1121 -0.1237  0.0526
16788TIP3    H171779   4.629   3.905  11.197  0.1067  0.4731  0.9097
16788TIP3    H271780   4.717   3.897  11.073  0.3850 -1.3506  1.2104
16789TIP3   OH271781   4.933   5.792  11.575  0.1677 -0.1434 -0.2820
16789TIP3    H171782   4.958   5.747  11.656 -0.3603  1.1050  0.5843
16789TIP3    H271783   4.999   5.763  11.511  0.2603 -1.5777  0.4320
16790TIP3   OH271784   1.160   5.129   3.424  0.1260 -0.1067 -0.2457
16790TIP3    H171785   1.252   5.117   3.446  0.2661  0.0581 -0.7356
16790TIP3    H271786   1.161   5.170   3.337 -0.4096 -0.5125 -0.4481
16791TIP3   OH271787   1.786   1.145  13.874  0.4312 -0.1226 -0.4754
16791TIP3    H171788   1.768   1.227  13.919  1.1044 -1.0554  1.5217
16791TIP3    H271789   1.830   1.172  13.793 -3.2578  1.7380 -1.9883
16792TIP3   OH271790   6.685   0.508  14.700  0.3480 -0.4912 -0.1257
16792TIP3    H171791   6.623   0.575  14.729  1.7724  0.5351  0.6314
16792TIP3    H271792   6.644   0.425  14.724 -0.3592  0.2000  1.0876
16793TIP3   OH271793   5.764   5.946   2.840  0.4074  0.1555  0.1149
16793TIP3    H171794   5.675   5.969   2.867  0.2125  0.0682 -0.4448
16793TIP3    H271795   5.821   5.991   2.902  0.0121  1.5249 -0.5087
16794TIP3   OH271796   3.397   0.648   0.972  0.4779  0.2142  0.3813
16794TIP3    H171797   3.362   0.599   0.897  2.0113  0.8167 -0.7458
16794TIP3    H271798   3.327   0.710   0.994  0.2785  0.4942 -0.9975
16795TIP3   OH271799   4.195   1.117  11.258  0.3084  0.2363 -0.3199
16795TIP3    H171800   4.111   1.130  11.214  0.4498  0.5049 -0.5122
16795TIP3    H271801   4.261   1.143  11.193  0.5553 -0.3392 -0.3057
16796TIP3   OH271802   2.734   4.756   0.155 -0.1256  0.4829  0.5918
16796TIP3    H171803   2.767   4.671   0.125  1.0325  0.4602  1.8837
16796TIP3    H271804   2.664   4.734   0.217  0.9602  0.4409  1.8151
16797TIP3   OH271805   5.255   4.094  11.758 -0.3895 -0.2708 -0.1587
16797TIP3    H171806   5.247   4.168  11.698 -1.6472  0.6027  1.0639
16797TIP3    H271807   5.336   4.111  11.806 -1.1135  0.7762  0.7159
16798TIP3   OH271808   3.371   2.545  13.960 -0.2900  0.4350  0.5406
16798TIP3    H171809   3.279   2.522  13.974  0.0845 -2.2252 -0.9595
16798TIP3    H271810   3.420   2.480  14.011  0.7574  0.2236 -0.7071
16799TIP3   OH271811   6.318   4.879   1.956  0.1139 -0.9069  0.3679
16799TIP3    H171812   6.330   4.908   2.047 -0.8700 -0.5664  0.3945
16799TIP3    H271813   6.225   4.894   1.938 -0.2613 -3.2432  0.1039
16800TIP3   OH271814   3.885   3.555  13.689 -0.2548  1.0182 -0.4589
16800TIP3    H171815   3.892   3.459  13.694 -2.9649  0.8645  1.3257
16800TIP3    H271816   3.939   3.587  13.761  1.6446  0.9209 -1.8044
16801TIP3   OH271817   6.729   0.063  15.109  0.5901 -0.8202  0.1014
16801TIP3    H171818   6.757  -0.028  15.098 -0.7850 -1.3619  0.9233
16801TIP3    H271819   6.685   0.084  15.027  0.0062 -1.2579  0.2896
16802TIP3   OH271820   3.671   5.079   3.775  0.4134  0.1644 -0.7214
16802TIP3    H171821   3.579   5.087   3.801 -0.5027  0.2368 -3.7982
16802TIP3    H271822   3.719   5.121   3.846 -1.9385  0.4632  0.7652
16803TIP3   OH271823   2.197   2.047  12.795  1.0817  0.0285  0.5661
16803TIP3    H171824   2.152   2.132  12.791  0.7089 -0.1198  1.5099
16803TIP3    H271825   2.290   2.069  12.802  0.9703  0.3556  1.0049
16804TIP3   OH271826   2.857   1.065   2.174  0.1559 -0.1803  0.3833
16804TIP3    H171827   2.848   1.139   2.235  0.2312  0.1970 -0.0564
16804TIP3    H271828   2.952   1.049   2.172  0.2313  0.3011 -0.2055
16805TIP3   OH271829   2.239   4.066  15.646 -0.5258  0.6180 -0.0829
16805TIP3    H171830   2.269   4.081  15.557  0.4138  1.4802  0.3846
16805TIP3    H271831   2.203   3.977  15.644  0.2367  0.3263 -1.1180
16806TIP3   OH271832   4.803   0.947   0.026  0.0732  0.1311 -0.1082
16806TIP3    H171833   4.772   0.993  -0.052  0.1697  1.0627  0.3916
16806TIP3    H271834   4.762   0.994   0.099 -0.6002 -1.1715  0.3815
16807TIP3   OH271835   2.843   0.640  11.945 -0.2375  0.4196  0.1393
16807TIP3    H171836   2.868   0.566  11.889  0.7383 -0.2037  1.3660
16807TIP3    H271837   2.808   0.705  11.885  0.7516 -0.2592 -1.2059
16808TIP3   OH271838   3.820   0.688   4.925 -0.4701  0.1609  0.4737
16808TIP3    H171839   3.780   0.603   4.910 -2.4594  1.2202 -0.4843
16808TIP3    H271840   3.908   0.669   4.958 -0.8485 -2.2318  0.1359
16809TIP3   OH271841   4.921   1.937   2.305 -0.0258  0.0700 -0.5011
16809TIP3    H171842   5.006   1.963   2.271 -0.9458  0.3757 -2.6348
16809TIP3    H271843   4.941   1.869   2.370  1.9355  1.4812  0.4073
16810TIP3   OH271844   2.389   0.546   2.119 -0.3265 -0.2537 -0.5604
16810TIP3    H171845   2.483   0.537   2.107  0.1092  3.5039 -0.4615
16810TIP3    H271846   2.356   0.570   2.032 -0.8261  0.9455 -0.0512
16811TIP3   OH271847   1.051   2.553   2.425  0.1060 -0.1262 -0.2316
16811TIP3    H171848   1.049   2.577   2.332 -0.9475 -0.7237 -0.3654
16811TIP3    H271849   0.999   2.474   2.430 -0.1270  0.1023  0.9336
16812TIP3   OH271850   2.392   2.227   4.955 -0.7539 -0.5593 -0.6505
16812TIP3    H171851   2.311   2.203   5.001 -0.9139  0.6677 -0.2917
16812TIP3    H271852   2.461   2.182   5.003 -0.4915  3.5460  3.0767
16813TIP3   OH271853   6.300   5.711   2.322  0.6355 -0.1166 -0.3521
16813TIP3    H171854   6.249   5.632   2.308  1.3193 -0.9698  1.7425
16813TIP3    H271855   6.392   5.683   2.318  0.8827  0.3970  1.0881
16814TIP3   OH271856   6.196   6.482   4.625 -0.0482 -0.3625  0.1046
16814TIP3    H171857   6.205   6.402   4.677 -2.0333 -0.5861  0.1388
16814TIP3    H271858   6.106   6.511   4.640 -0.1763  0.4155 -2.0036
16815TIP3   OH271859   3.346   3.436   2.703  0.3132  0.1101 -0.1560
16815TIP3    H171860   3.276   3.389   2.658 -1.6821  2.9498 -0.1171
16815TIP3    H271861   3.422   3.426   2.646 -1.0384 -0.0422 -1.9572
16816TIP3   OH271862   2.069   0.416  13.261  0.1434  0.2775 -0.5874
16816TIP3    H171863   1.998   0.470  13.297  0.5811  2.0092 -2.2384
16816TIP3    H271864   2.148   0.468  13.274  0.6432 -0.1576 -1.8098
16817TIP3   OH271865   1.441   1.694   5.754 -0.3756  0.2412 -0.0954
16817TIP3    H171866   1.404   1.626   5.810  1.4237 -1.2320 -0.6519
16817TIP3    H271867   1.450   1.770   5.811  2.4071 -1.5395  1.9530
16818TIP3   OH271868   2.513   0.992  13.490  0.4933 -0.2605 -0.0931
16818TIP3    H171869   2.591   1.045  13.471 -0.7278  2.1341  1.2834
16818TIP3    H271870   2.541   0.932  13.559  2.4955 -2.9896 -3.1523
16819TIP3   OH271871   5.076   5.149  16.584 -0.0137 -0.4882 -0.4888
16819TIP3    H171872   4.998   5.095  16.568 -0.7469 -0.0639  1.4616
16819TIP3    H271873   5.060   5.229  16.533 -0.1297 -1.0384 -1.3257
16820TIP3   OH271874   0.681   3.505  15.019  0.1509 -0.1079 -0.2457
16820TIP3    H171875   0.726   3.590  15.023 -0.8503  0.4224  0.1838
16820TIP3    H271876   0.736   3.451  14.964  0.8056  0.8371 -0.5328
16821TIP3   OH271877   1.856   0.550   4.635  0.0427  0.6737 -0.3878
16821TIP3    H171878   1.932   0.523   4.687  0.4788 -1.0333 -1.8379
16821TIP3    H271879   1.838   0.639   4.664  1.1011  0.2568  1.6983
16822TIP3   OH271880   5.088   0.301  12.187 -0.1673 -0.2183  0.3032
16822TIP3    H171881   5.023   0.308  12.117  0.2756 -2.0339 -0.3059
16822TIP3    H271882   5.155   0.242  12.152 -0.0581 -1.3429  2.3322
16823TIP3   OH271883   1.141   5.105  11.768  0.3966 -0.0164  0.0355
16823TIP3    H171884   1.046   5.099  11.775  0.6250 -1.1397  2.6145
16823TIP3    H271885   1.171   5.015  11.779  1.7157  0.0610 -2.4632
16824TIP3   OH271886   1.067   3.671   4.701 -0.8971 -0.0408  0.6098
16824TIP3    H171887   1.023   3.727   4.766 -1.0114 -1.4616  1.7923
16824TIP3    H271888   0.995   3.627   4.655 -0.8427  1.5401 -1.0465
16825TIP3   OH271889   1.383   1.327  12.246 -0.4569 -0.2441  0.2415
16825TIP3    H171890   1.428   1.389  12.303  0.0291 -0.7449  0.4059
16825TIP3    H271891   1.436   1.322  12.167 -1.5552  1.0604 -0.6074
16826TIP3   OH271892   3.387   4.657  13.196 -0.1909 -0.3756  0.1484
16826TIP3    H171893   3.442   4.631  13.270  1.9339 -0.2709 -1.3330
16826TIP3    H271894   3.368   4.750  13.211 -0.2707 -0.5054  0.8581
16827TIP3   OH271895   6.210   3.915  14.442 -0.5524  0.5368  0.6870
16827TIP3    H171896   6.163   3.998  14.451 -2.7994 -0.4649 -1.1959
16827TIP3    H271897   6.154   3.850  14.485 -0.6973 -0.6041 -1.1545
16828TIP3   OH271898   5.742   1.371   3.992  0.0857 -0.3708 -0.3693
16828TIP3    H171899   5.648   1.357   3.979 -0.6235  3.1186  0.3997
16828TIP3    H271900   5.760   1.337   4.080 -0.5759 -0.5698 -0.3116
16829TIP3   OH271901   2.837   0.531   0.366 -0.4023  0.2167 -0.4720
16829TIP3    H171902   2.902   0.525   0.297  0.0814  0.2032 -0.0142
16829TIP3    H271903   2.812   0.440   0.384 -0.7561  0.2369 -0.8372
16830TIP3   OH271904   6.514   1.941   4.292 -0.3610 -0.0331 -0.1055
16830TIP3    H171905   6.434   1.925   4.242  0.1395  0.0915 -0.9468
16830TIP3    H271906   6.584   1.940   4.227  0.4589 -1.2565  0.7549
16831TIP3   OH271907   5.792   2.305  13.279 -0.2296  0.3725 -0.2170
16831TIP3    H171908   5.815   2.217  13.250  1.5910  0.5130  0.6815
16831TIP3    H271909   5.793   2.358  13.200  1.4605  0.1113 -0.4001
16832TIP3   OH271910   4.890   3.989   4.695 -0.4513 -0.4743  0.0856
16832TIP3    H171911   4.896   3.895   4.712  0.1518 -0.6966 -1.2950
16832TIP3    H271912   4.856   4.026   4.776  0.1857 -1.7777  0.9664
16833TIP3   OH271913   5.992   4.584  13.481 -0.2738  0.8245 -0.3979
16833TIP3    H171914   5.896   4.588  13.475 -0.3802 -1.4081 -0.9739
16833TIP3    H271915   6.022   4.611  13.394 -0.4824  0.0064 -0.7395
16834TIP3   OH271916   4.925   2.763   5.239 -0.3553  0.6759 -0.5490
16834TIP3    H171917   4.856   2.822   5.268 -0.5058  0.5919 -0.7259
16834TIP3    H271918   4.984   2.818   5.188 -0.2705  0.7568 -0.3612
16835TIP3   OH271919   0.584   1.227  10.970  0.2761  0.6055 -0.8142
16835TIP3    H171920   0.504   1.179  10.949  0.6653 -0.1723 -0.5194
16835TIP3    H271921   0.570   1.259  11.059 -1.5966  4.3544 -2.3675
16836TIP3   OH271922   6.459   5.527  15.324  0.0021  0.0319  0.1337
16836TIP3    H171923   6.451   5.504  15.232  0.3293  1.0701 -0.1604
16836TIP3    H271924   6.492   5.448  15.366  1.4268  0.0650 -0.9076
16837TIP3   OH271925   3.141   5.760   2.694  0.3249  0.9845  0.1775
16837TIP3    H171926   3.208   5.701   2.659 -0.1792  0.4583  0.0956
16837TIP3    H271927   3.099   5.711   2.764  0.5428  1.6044  0.7418
16838TIP3   OH271928   1.669   2.273   4.383  0.2386  0.3416  0.4608
16838TIP3    H171929   1.704   2.205   4.440 -1.2740 -1.4169 -0.6826
16838TIP3    H271930   1.581   2.289   4.415  0.1951  1.0013  0.0315
16839TIP3   OH271931   6.119   6.343  13.434 -0.0409  0.4738  0.3893
16839TIP3    H171932   6.146   6.287  13.362 -1.1156  1.7221 -1.0197
16839TIP3    H271933   6.186   6.411  13.439 -1.1393  1.7072 -0.9840
16840TIP3   OH271934   2.678   6.697  14.615  0.6173  0.2222 -0.3991
16840TIP3    H171935   2.595   6.674  14.656  2.0375  1.0246  3.0904
16840TIP3    H271936   2.677   6.793  14.608  0.4225  0.1109 -2.2728
16841TIP3   OH271937   0.037   3.412   2.853 -0.2524 -0.1742  0.5093
16841TIP3    H171938   0.107   3.470   2.882 -1.1240 -0.3124  3.0314
16841TIP3    H271939  -0.015   3.464   2.792  1.7324  0.0885 -0.9919
16842TIP3   OH271940   0.756   0.296  15.511 -0.0624 -0.5617  0.7276
16842TIP3    H171941   0.821   0.293  15.581  1.3561 -0.3398 -0.5461
16842TIP3    H271942   0.773   0.380  15.467 -1.6066 -0.2294  0.7485
16843TIP3   OH271943   0.324   3.445   2.212  0.1808  0.2395 -1.0717
16843TIP3    H171944   0.310   3.494   2.131  0.3257 -1.6365 -2.2781
16843TIP3    H271945   0.317   3.353   2.185  2.5585 -0.4634  0.6127
16844TIP3   OH271946   6.469   6.577   4.806  0.8159  0.1029 -0.0347
16844TIP3    H171947   6.527   6.601   4.878 -1.0731  3.8015  0.3930
16844TIP3    H271948   6.520   6.597   4.727  0.9741  1.1447  0.3245
16845TIP3   OH271949   5.372   5.138  13.557  0.4441  0.1101 -0.1983
16845TIP3    H171950   5.354   5.193  13.480  2.4805  1.8110  0.5003
16845TIP3    H271951   5.387   5.201  13.628 -0.6379 -1.4299  1.4314
16846TIP3   OH271952   5.091   6.289  12.893 -0.0863 -0.0948 -0.2221
16846TIP3    H171953   5.143   6.243  12.828  1.1531  1.1805 -0.1468
16846TIP3    H271954   5.148   6.295  12.970 -0.3031  1.4080 -0.1725
16847TIP3   OH271955   2.359   1.140   1.474  0.0911 -0.6104  0.2047
16847TIP3    H171956   2.354   1.056   1.427  0.2533  0.0297 -0.9696
16847TIP3    H271957   2.409   1.120   1.553 -1.4178 -2.0279  0.8435
16848TIP3   OH271958   2.323   2.604   3.041 -0.4163 -0.0171  0.4223
16848TIP3    H171959   2.355   2.547   2.971  0.4850 -0.0157  0.8107
16848TIP3    H271960   2.236   2.570   3.062 -1.7224  1.5197 -2.3548
16849TIP3   OH271961   0.125   6.321   4.628 -0.1875 -0.3972  0.7743
16849TIP3    H171962   0.193   6.350   4.689 -1.7544  1.3345  1.7539
16849TIP3    H271963   0.114   6.394   4.567 -1.2905 -0.5803  0.7372
16850TIP3   OH271964   0.147   2.610   4.668  0.0231 -0.6567  0.1915
16850TIP3    H171965   0.190   2.562   4.599 -0.4757  1.0180 -1.3304
16850TIP3    H271966   0.210   2.611   4.740  1.2807 -0.8753 -0.8918
16851TIP3   OH271967   3.415   2.901  13.611  0.5229  0.0185 -0.0633
16851TIP3    H171968   3.399   2.986  13.569  0.4398 -0.0890 -0.2497
16851TIP3    H271969   3.397   2.917  13.704  0.5244  0.2091 -0.0962
16852TIP3   OH271970   0.240   4.248   4.844  0.7658  0.0581  0.0336
16852TIP3    H171971   0.179   4.279   4.777 -0.0535  1.9767  1.6013
16852TIP3    H271972   0.285   4.328   4.873  2.6831 -1.0703  0.2087
16853TIP3   OH271973   4.148   1.567   1.361  0.0388 -0.1654  0.1060
16853TIP3    H171974   4.076   1.589   1.302 -1.8014  0.0742  2.3593
16853TIP3    H271975   4.218   1.628   1.338 -1.0075  0.5992 -1.1193
16854TIP3   OH271976   4.120   6.445   4.162 -0.2869  0.3299 -0.5134
16854TIP3    H171977   4.153   6.360   4.189 -1.8827 -0.2867 -0.4647
16854TIP3    H271978   4.176   6.508   4.207 -0.2809 -0.6859  0.9316
16855TIP3   OH271979   0.298   2.969  11.058  0.0256 -0.0378  0.4047
16855TIP3    H171980   0.343   3.010  10.984 -0.5027  0.0862  0.1501
16855TIP3    H271981   0.292   2.876  11.035 -0.0757 -0.0112  0.3276
16856TIP3   OH271982   4.866   5.974  14.029 -0.5101 -0.7150 -0.1184
16856TIP3    H171983   4.845   5.990  13.937 -0.1731 -0.2345 -0.1163
16856TIP3    H271984   4.864   5.879  14.038 -1.4551 -0.7245 -0.3990
16857TIP3   OH271985   4.825   2.152  15.432 -0.1592  0.2170  0.0472
16857TIP3    H171986   4.842   2.058  15.441 -1.5148  0.1756  2.7911
16857TIP3    H271987   4.772   2.159  15.352 -2.6320 -1.7669  1.4334
16858TIP3   OH271988   3.713   2.939  11.778 -0.2655  0.4339  0.6656
16858TIP3    H171989   3.778   2.959  11.846  1.2566 -1.6441 -0.1046
16858TIP3    H271990   3.766   2.919  11.700 -1.9741  2.6580 -1.1274
16859TIP3   OH271991   3.337   0.274   0.483  0.7405  0.4240 -0.4484
16859TIP3    H171992   3.254   0.227   0.473  0.7455  0.4015 -0.3864
16859TIP3    H271993   3.312   0.360   0.518  0.8525 -0.0686  0.8861
16860TIP3   OH271994   6.780   3.600  11.370 -0.1652  0.6807  0.1598
16860TIP3    H171995   6.827   3.657  11.308 -0.0332  0.3722 -0.0258
16860TIP3    H271996   6.734   3.537  11.314 -0.3619  0.6445  0.3624
16861TIP3   OH271997   6.204   0.042  13.100  0.3768  0.1021 -0.5964
16861TIP3    H171998   6.200  -0.028  13.034  0.6080 -0.0899 -0.4054
16861TIP3    H271999   6.141   0.016  13.166 -1.0038  1.0792 -1.4973
16862TIP3   OH272000   3.511   2.481  12.138 -0.3634  0.1509 -0.0900
16862TIP3    H172001   3.433   2.518  12.180 -1.1150 -1.7530  0.2458
16862TIP3    H272002   3.569   2.460  12.211  0.1819  0.8930 -0.2996
16863TIP3   OH272003   1.223   1.177   2.661  0.0986  0.0640  0.1057
16863TIP3    H172004   1.300   1.228   2.636  1.5139 -1.3781  1.4225
16863TIP3    H272005   1.205   1.123   2.584 -0.6667  1.6186 -0.8376
16864TIP3   OH272006   1.750   0.947   0.881 -0.4297 -0.2383  0.5186
16864TIP3    H172007   1.791   0.943   0.967 -1.1132 -0.5792  0.8306
16864TIP3    H272008   1.823   0.959   0.820  0.2104 -1.5614  1.0000
16865TIP3   OH272009   5.820   5.484   0.722  0.4174  0.2922  0.3400
16865TIP3    H172010   5.816   5.502   0.816  1.8452 -0.8002  0.6284
16865TIP3    H272011   5.874   5.554   0.686 -1.9038  1.9718 -0.0455
16866TIP3   OH272012   1.818   2.142  15.559  0.4745  0.1214 -0.7500
16866TIP3    H172013   1.744   2.180  15.513  2.8743  1.1321 -3.9304
16866TIP3    H272014   1.849   2.213  15.616 -1.3220 -0.5156  1.0921
16867TIP3   OH272015   4.521   0.581  16.218  0.0266 -0.1016  0.1412
16867TIP3    H172016   4.532   0.667  16.176 -1.3510 -0.4562 -0.9909
16867TIP3    H272017   4.592   0.576  16.282  0.4843  1.6314 -0.2070
16868TIP3   OH272018   3.888   0.482  15.504  0.0653 -0.8447  0.1062
16868TIP3    H172019   3.958   0.519  15.558 -0.2331  0.5085 -0.4140
16868TIP3    H272020   3.842   0.558  15.469  0.2695 -1.6726 -2.0869
16869TIP3   OH272021   6.246   2.415   5.169 -0.2000  0.2821 -0.0797
16869TIP3    H172022   6.337   2.441   5.157 -0.0807 -0.6218 -1.2366
16869TIP3    H272023   6.243   2.378   5.257  0.1459  1.9576  0.6580
16870TIP3   OH272024   3.249   2.483   4.485 -0.1843  0.0117  0.5391
16870TIP3    H172025   3.242   2.415   4.418  1.4757  1.2500 -0.9369
16870TIP3    H272026   3.175   2.541   4.467 -0.4336 -0.3013  0.5374
16871TIP3   OH272027   6.097   3.476  14.398 -0.3275 -0.0030  0.2763
16871TIP3    H172028   6.089   3.548  14.461  0.0961 -0.9001  1.3624
16871TIP3    H272029   6.124   3.519  14.316 -1.2086  1.2049  0.6067
16872TIP3   OH272030   6.075   2.612   6.428  0.1961 -0.8054 -0.4975
16872TIP3    H172031   6.094   2.540   6.368 -0.4844 -1.7644  0.4437
16872TIP3    H272032   6.046   2.570   6.509  0.4945  0.5010  0.3044
16873TIP3   OH272033   6.215   6.057  11.962 -0.1152  0.1254  0.1451
16873TIP3    H172034   6.219   5.977  11.910  4.0789  0.0904  0.3808
16873TIP3    H272035   6.216   6.128  11.898 -1.9414  0.0601  0.0089
16874TIP3   OH272036   6.763   5.587  13.687 -0.2236  0.4676  0.4370
16874TIP3    H172037   6.702   5.638  13.741 -1.5023 -0.7033  0.1091
16874TIP3    H272038   6.803   5.652  13.629 -4.7354  0.6659 -2.7567
16875TIP3   OH272039   3.286   5.234  15.197 -0.2795  0.1437 -0.2729
16875TIP3    H172040   3.332   5.166  15.246 -0.4425  0.2262 -0.0078
16875TIP3    H272041   3.310   5.316  15.241  0.6596  0.3489 -1.1542
16876TIP3   OH272042   6.698   0.214   4.353  0.0084  0.2045 -0.3865
16876TIP3    H172043   6.605   0.200   4.370  0.0127 -0.0375 -0.5697
16876TIP3    H272044   6.710   0.189   4.262  0.3268 -0.1251 -0.2534
16877TIP3   OH272045   5.866   5.480  13.469  0.2034 -0.5407 -0.2430
16877TIP3    H172046   5.940   5.531  13.436 -0.9960  2.0568  0.8615
16877TIP3    H272047   5.905   5.415  13.527  1.7799 -0.6844 -1.4300
16878TIP3   OH272048   5.899   0.496  16.417 -0.2707  0.1937 -0.1397
16878TIP3    H172049   5.892   0.591  16.418 -1.0164  0.1543 -0.8424
16878TIP3    H272050   5.918   0.472  16.508  2.5085  1.1824 -0.4055
16879TIP3   OH272051   5.542   5.150   4.805 -0.7717  0.0519  0.7161
16879TIP3    H172052   5.595   5.202   4.744  0.3724 -0.4695  1.2616
16879TIP3    H272053   5.530   5.066   4.760 -0.6212 -0.0437  0.8532
16880TIP3   OH272054   0.672   0.125   3.332  0.0720 -0.0750 -0.2653
16880TIP3    H172055   0.658   0.160   3.244  0.3104  1.4003  0.2704
16880TIP3    H272056   0.595   0.154   3.382  0.3667 -0.1455  0.2358
16881TIP3   OH272057   0.151   5.657   4.932  0.1455  0.1343 -0.1909
16881TIP3    H172058   0.124   5.748   4.947 -0.7276 -0.2710  0.7661
16881TIP3    H272059   0.079   5.619   4.882 -0.3111 -0.5028  0.9363
16882TIP3   OH272060   2.858   5.387  12.525  0.0524  0.2466 -0.2773
16882TIP3    H172061   2.808   5.338  12.460 -0.2530  0.1849  0.0064
16882TIP3    H272062   2.811   5.469  12.535 -0.5015 -0.1795  0.6601
16883TIP3   OH272063   2.466   1.447  17.224 -0.0391  0.1173  0.0200
16883TIP3    H172064   2.471   1.380  17.155  2.0870  1.0082 -0.7350
16883TIP3    H272065   2.523   1.414  17.293 -0.0739  0.4937  0.2284
16884TIP3   OH272066   2.541   3.134   3.906 -0.4530 -0.0149 -0.0410
16884TIP3    H172067   2.600   3.182   3.963 -0.7211  0.3643 -0.0832
16884TIP3    H272068   2.469   3.108   3.963  0.1144 -1.1277  0.1836
16885TIP3   OH272069   1.765   1.990   0.971 -0.4902 -0.5857 -0.2498
16885TIP3    H172070   1.681   2.015   1.009 -0.3726 -1.1411  0.3897
16885TIP3    H272071   1.825   2.060   0.996 -0.5364 -0.6844  0.1450
16886TIP3   OH272072   0.396   1.627  17.100 -0.2585 -0.2558  0.2245
16886TIP3    H172073   0.369   1.577  17.177 -1.5806 -0.5789 -0.4273
16886TIP3    H272074   0.466   1.574  17.060 -1.1854 -1.2848 -0.0848
16887TIP3   OH272075   2.808   3.814   5.043  0.6083  0.0329  0.4114
16887TIP3    H172076   2.901   3.836   5.043  1.1296 -2.1229  0.8342
16887TIP3    H272077   2.805   3.719   5.053 -1.5675 -0.2596 -2.3438
16888TIP3   OH272078   2.040   6.320   0.043 -0.0081  0.2060  0.3511
16888TIP3    H172079   2.037   6.310   0.138  0.2282 -1.6881  0.1613
16888TIP3    H272080   1.948   6.329   0.016 -0.0821  0.5946  0.7286
16889TIP3   OH272081   1.406   3.069   1.910 -0.1014  0.2260 -0.2722
16889TIP3    H172082   1.353   3.116   1.974 -0.2617 -0.4790  0.1133
16889TIP3    H272083   1.447   3.138   1.858 -1.1990  0.7774 -0.4181
16890TIP3   OH272084   1.285   3.950  13.504 -0.0860 -0.5967  0.2315
16890TIP3    H172085   1.252   4.026  13.553  0.4408  0.5226 -1.0935
16890TIP3    H272086   1.379   3.965  13.498  0.1534 -1.8711  0.8114
16891TIP3   OH272087   0.925   5.890  15.782  0.0818 -0.2705 -0.6705
16891TIP3    H172088   0.953   5.844  15.702  0.5149  0.6119 -1.0362
16891TIP3    H272089   0.834   5.863  15.795 -0.5501  0.8923 -2.4371
16892TIP3   OH272090   4.851   5.973   0.868  0.0827 -0.4499 -0.5700
16892TIP3    H172091   4.789   6.014   0.808  1.1312  0.5702 -0.9767
16892TIP3    H272092   4.929   5.956   0.814  0.5962 -0.6294  0.2225
16893TIP3   OH272093   4.656   1.580   4.658 -0.2977 -0.1584  0.5399
16893TIP3    H172094   4.564   1.594   4.682 -0.2741  0.0974  0.4845
16893TIP3    H272095   4.675   1.491   4.686 -0.1827  0.2428  1.7515
16894TIP3   OH272096   5.067   2.104  11.852  0.5733 -0.1911  0.3800
16894TIP3    H172097   4.988   2.050  11.859  1.3509 -1.9583 -3.3757
16894TIP3    H272098   5.061   2.145  11.766  4.3761 -1.4799 -0.6139
16895TIP3   OH272099   4.836   0.945  15.059 -0.3070 -0.0108  0.8306
16895TIP3    H172100   4.788   0.926  14.978  0.2690 -1.8061  0.8850
16895TIP3    H272101   4.783   1.011  15.103 -1.2273  0.1465 -0.4645
16896TIP3   OH272102   2.051   0.131  11.984  0.1422  0.3940  0.6283
16896TIP3    H172103   2.117   0.065  11.967 -1.4770 -1.2846  0.6386
16896TIP3    H272104   1.988   0.087  12.042 -0.1837  2.4235  1.8544
16897TIP3   OH272105   2.189   6.555   0.204 -0.6910  0.0409  0.1290
16897TIP3    H172106   2.167   6.465   0.228 -1.3813 -0.3674 -1.9378
16897TIP3    H272107   2.279   6.566   0.236 -0.5648 -1.4132  0.3438
16898TIP3   OH272108   5.887   4.788  14.225  0.2872  0.3230  0.1574
16898TIP3    H172109   5.955   4.842  14.185 -1.7637  1.7800 -1.4780
16898TIP3    H272110   5.826   4.852  14.264 -0.7636 -0.9103  0.5602
16899TIP3   OH272111   4.578   3.153   3.427 -0.2479  0.3362 -0.1905
16899TIP3    H172112   4.623   3.078   3.466 -1.4511 -0.0227  0.5067
16899TIP3    H272113   4.645   3.222   3.424  0.4309 -0.2864  0.5588
16900TIP3   OH272114   2.737   1.776   2.399 -0.5828 -0.4392  0.2559
16900TIP3    H172115   2.734   1.869   2.374 -2.3071 -0.6298 -0.2783
16900TIP3    H272116   2.810   1.740   2.349 -0.6154  0.3807 -0.3963
16901TIP3   OH272117   0.323   6.133   5.463 -0.5335 -0.5423  0.5888
16901TIP3    H172118   0.232   6.118   5.440  0.1172 -1.6113 -1.3593
16901TIP3    H272119   0.325   6.224   5.494 -2.4976 -0.9656  2.0901
16902TIP3   OH272120   1.706   2.881   4.465 -0.0080  0.2204 -0.2777
16902TIP3    H172121   1.695   2.935   4.543  0.7755  0.1410 -0.1104
16902TIP3    H272122   1.742   2.798   4.497 -2.0226 -0.7413 -0.4301
16903TIP3   OH272123   6.600   0.576  12.045  0.0386 -1.0047 -0.5676
16903TIP3    H172124   6.602   0.667  12.076  0.9738 -1.1577 -0.1329
16903TIP3    H272125   6.534   0.575  11.976 -0.5151 -0.1595 -0.0561
16904TIP3   OH272126   0.927   2.269  12.948  0.9459  0.5455  0.1946
16904TIP3    H172127   0.949   2.257  12.855  0.1127  0.6627 -0.0188
16904TIP3    H272128   0.843   2.225  12.958  1.4087 -0.1523  1.0781
16905TIP3   OH272129   6.493   2.985   5.843 -0.1983  0.7215  0.1084
16905TIP3    H172130   6.411   2.954   5.882  0.3877 -0.3798  0.5139
16905TIP3    H272131   6.500   3.076   5.869 -1.0503  0.6746  0.5038
16906TIP3   OH272132   2.230   5.665   2.284 -0.1611 -0.6692 -0.3487
16906TIP3    H172133   2.179   5.720   2.342  0.7883  0.8156 -0.9034
16906TIP3    H272134   2.247   5.586   2.335 -1.4814 -0.4432  0.4695
16907TIP3   OH272135   3.605   3.379   2.131 -0.1823  0.8592  0.6382
16907TIP3    H172136   3.590   3.450   2.194  1.3515  1.6031  0.1888
16907TIP3    H272137   3.659   3.316   2.179  2.6822  2.3628 -0.5237
16908TIP3   OH272138   3.283   4.741  15.727 -0.1289  0.9927  0.0008
16908TIP3    H172139   3.261   4.657  15.769  4.1360  0.0179  0.5448
16908TIP3    H272140   3.278   4.805  15.797 -0.7691  0.7369  0.1932
16909TIP3   OH272141   1.799   4.356  11.942 -0.0893 -0.5259 -0.6002
16909TIP3    H172142   1.717   4.391  11.908  0.6858 -0.0625 -2.0445
16909TIP3    H272143   1.815   4.277  11.890  0.0607 -0.9697  0.1095
16910TIP3   OH272144   5.687   0.470   0.182  0.9431 -0.4749  0.4153
16910TIP3    H172145   5.602   0.436   0.210  1.4363 -1.2892  0.9550
16910TIP3    H272146   5.672   0.503   0.093  0.3749 -1.8231 -0.0008
16911TIP3   OH272147   2.652   2.085  10.920 -0.8397 -0.5564  0.8659
16911TIP3    H172148   2.708   2.012  10.894  0.7047  0.5556  1.0356
16911TIP3    H272149   2.629   2.067  11.011 -1.0021 -1.1629  0.7062
16912TIP3   OH272150   3.266   1.084   2.536  0.4609 -0.0527 -0.4290
16912TIP3    H172151   3.341   1.028   2.558 -0.4271 -0.2999  2.1073
16912TIP3    H272152   3.191   1.038   2.574 -0.5596  1.7411 -0.2705
16913TIP3   OH272153   5.223   1.210   0.348  0.6112  0.2190 -0.3923
16913TIP3    H172154   5.300   1.154   0.356  0.4931 -0.0446 -1.0483
16913TIP3    H272155   5.170   1.168   0.280 -0.0800  0.4321  0.0038
16914TIP3   OH272156   0.019   4.703  16.920  0.0330 -0.4585 -0.0957
16914TIP3    H172157  -0.068   4.742  16.909  0.0228 -0.6771 -0.8669
16914TIP3    H272158   0.031   4.649  16.841 -0.3407 -2.7596  1.3882
16915TIP3   OH272159   2.700   5.429  16.992  0.8815 -0.3674  0.0080
16915TIP3    H172160   2.651   5.465  17.066  0.6713  0.5287 -0.5481
16915TIP3    H272161   2.720   5.339  17.017 -0.2187 -0.4455  0.6412
16916TIP3   OH272162   3.010   5.731   1.639 -0.4002 -0.2028  0.1020
16916TIP3    H172163   3.069   5.750   1.712  0.6118  0.4339 -0.8423
16916TIP3    H272164   2.923   5.729   1.677  0.2384 -1.3226  1.5711
16917TIP3   OH272165   3.704   1.146  14.456 -0.2394  0.0687  0.1956
16917TIP3    H172166   3.619   1.159  14.415  0.1124  0.8467 -0.3180
16917TIP3    H272167   3.760   1.116  14.384  0.4156  1.5636  0.0623
16918TIP3   OH272168   5.375   0.323  11.675  0.3294 -0.0291  0.2780
16918TIP3    H172169   5.451   0.379  11.660 -0.8472  2.1915  2.3695
16918TIP3    H272170   5.406   0.254  11.733  1.3706 -0.6309 -0.9727
16919TIP3   OH272171   4.165   6.363   4.955  0.2141 -0.2002  0.2799
16919TIP3    H172172   4.257   6.380   4.933  0.3652 -0.0212  1.0278
16919TIP3    H272173   4.138   6.440   5.005 -0.6527  0.2172 -0.8219
16920TIP3   OH272174   0.607   5.176   2.931  0.3844  0.6948  0.0478
16920TIP3    H172175   0.614   5.109   3.000 -0.3617 -0.1569 -0.6919
16920TIP3    H272176   0.515   5.203   2.933  0.4202  0.8531 -0.4443
16921TIP3   OH272177   5.388   0.944  16.587  0.2424  0.5880  0.1300
16921TIP3    H172178   5.383   1.035  16.615  0.3808  0.0308  1.9933
16921TIP3    H272179   5.384   0.893  16.667 -1.7957 -1.1445 -1.0132
16922TIP3   OH272180   4.136   1.070   4.960  0.0508  0.3785  0.0729
16922TIP3    H172181   4.180   1.151   4.985  2.0533 -0.8588  0.7291
16922TIP3    H272182   4.143   1.066   4.865 -1.2381  1.6094 -0.0852
16923TIP3   OH272183   6.362   6.335   3.809 -0.0764  0.4693  0.6301
16923TIP3    H172184   6.394   6.285   3.734  1.1963  0.6717  1.0155
16923TIP3    H272185   6.442   6.358   3.858 -0.6596  2.5071  0.6854
16924TIP3   OH272186   4.639   6.309   0.143 -0.2583 -0.0911 -0.3087
16924TIP3    H172187   4.698   6.243   0.180  1.7382  0.8873 -1.7250
16924TIP3    H272188   4.602   6.266   0.065  0.3277  0.1097 -0.7017
16925TIP3   OH272189   3.003   1.380   4.148 -0.0655 -0.4137 -0.0507
16925TIP3    H172190   2.987   1.472   4.168 -2.7173 -1.0619  0.9536
16925TIP3    H272191   3.024   1.378   4.054 -1.2016  1.0635 -0.3378
16926TIP3   OH272192   3.396   1.389   5.200  0.3756  0.1631 -0.4518
16926TIP3    H172193   3.407   1.315   5.261 -2.1321 -0.3994 -0.5909
16926TIP3    H272194   3.430   1.357   5.117  0.4213 -0.4046 -0.2173
16927TIP3   OH272195   6.288   6.018   0.661  0.3888 -0.4181  0.6903
16927TIP3    H172196   6.247   6.001   0.576  1.8208 -2.3432  0.3404
16927TIP3    H272197   6.272   6.111   0.677 -2.2222 -0.6425 -0.4179
16928TIP3   OH272198   5.262   1.661  15.917  0.2361  0.6629 -0.2044
16928TIP3    H172199   5.310   1.683  15.837  0.8105 -0.0334 -0.0520
16928TIP3    H272200   5.185   1.717  15.914  0.3657  0.8044 -1.1376
16929TIP3   OH272201   6.583   5.779   3.230  0.2261  0.0850 -0.7268
16929TIP3    H172202   6.494   5.764   3.198  0.0967 -1.9430  0.5080
16929TIP3    H272203   6.616   5.692   3.251  3.0541  0.6446 -2.5388
16930TIP3   OH272204   0.376   0.505  12.474  0.0464  0.1069  0.3867
16930TIP3    H172205   0.344   0.456  12.399  3.0235 -1.0649 -0.1588
16930TIP3    H272206   0.356   0.596  12.453  0.2621 -0.2668 -1.5160
16931TIP3   OH272207   5.303   0.688  11.875 -0.4489  0.1807 -0.5074
16931TIP3    H172208   5.266   0.716  11.959  0.7320 -1.0172  0.4193
16931TIP3    H272209   5.395   0.713  11.880  0.2899 -2.5225 -0.2646
16932TIP3   OH272210   5.566   6.266   2.705 -0.0898  0.2613 -0.0100
16932TIP3    H172211   5.587   6.274   2.612 -0.9300 -0.4086 -0.2584
16932TIP3    H272212   5.516   6.345   2.726  1.7242  1.3603  0.3418
16933TIP3   OH272213   1.285   5.871  14.596 -0.0524 -0.0272  0.1122
16933TIP3    H172214   1.242   5.824  14.667 -0.0481  0.4043  0.4025
16933TIP3    H272215   1.379   5.864  14.616  0.1059 -1.9639 -1.1323
16934TIP3   OH272216   5.029   4.320   0.673 -0.3356 -0.6272  0.1557
16934TIP3    H172217   5.060   4.271   0.597 -0.9498 -2.4939  1.0837
16934TIP3    H272218   4.941   4.349   0.649 -0.8202 -1.8560  0.4387
16935TIP3   OH272219   4.163   4.616   0.594 -0.1576 -0.4760 -0.2356
16935TIP3    H172220   4.145   4.607   0.687 -0.6392  0.4086 -0.2446
16935TIP3    H272221   4.254   4.588   0.584 -0.2162 -0.9135  0.4392
16936TIP3   OH272222   1.520   1.112  13.785 -0.2082  0.4051  0.3144
16936TIP3    H172223   1.479   1.037  13.826  0.1530  0.0131 -0.0366
16936TIP3    H272224   1.606   1.119  13.826 -0.8965  1.6775  1.5807
16937TIP3   OH272225   5.018   4.976   3.888  0.3986  0.2961  0.3368
16937TIP3    H172226   5.076   4.999   3.815  0.9520 -1.0607  0.3294
16937TIP3    H272227   5.077   4.940   3.954 -0.2720  0.2247  0.9009
16938TIP3   OH272228   1.316   6.323  12.053  0.4399 -0.4716 -0.2935
16938TIP3    H172229   1.341   6.415  12.058 -1.7334  0.2008 -1.0657
16938TIP3    H272230   1.255   6.310  12.126 -0.8299 -0.7383 -1.3700
16939TIP3   OH272231   6.138   5.361  13.622  0.0206 -0.4181 -0.1526
16939TIP3    H172232   6.208   5.370  13.558 -0.8156  1.1286 -0.8892
16939TIP3    H272233   6.137   5.268  13.644  2.4382 -0.4295  0.0376
16940TIP3   OH272234   1.429   6.493   4.832  0.8613  0.7126  0.0650
16940TIP3    H172235   1.447   6.525   4.744  2.5738 -0.2927  0.0419
16940TIP3    H272236   1.368   6.420   4.819  2.4361 -0.5348 -0.4335
16941TIP3   OH272237   0.505   5.860  13.137  0.5290 -0.4564  0.0752
16941TIP3    H172238   0.430   5.867  13.078  2.3194  0.0450 -2.2061
16941TIP3    H272239   0.578   5.833  13.081  2.3578  0.3167  2.0029
16942TIP3   OH272240   5.924   6.785  17.218 -0.3402  0.4356  0.1883
16942TIP3    H172241   5.908   6.876  17.193 -1.4089 -0.1651 -1.3678
16942TIP3    H272242   5.911   6.735  17.138  0.2930 -1.1015  1.0181
16943TIP3   OH272243   5.644   1.154   6.323  0.3642 -0.1364 -0.1177
16943TIP3    H172244   5.729   1.192   6.343 -0.4991  3.0697 -2.1432
16943TIP3    H272245   5.583   1.197   6.383 -0.6202  1.8296 -2.4260
16944TIP3   OH272246   0.766   5.285  17.056 -0.4686 -0.3473 -0.1051
16944TIP3    H172247   0.721   5.334  16.987 -0.5243 -1.3624 -0.8083
16944TIP3    H272248   0.794   5.351  17.118 -0.4088  0.5908 -1.1161
16945TIP3   OH272249   1.124   6.372  14.370  0.4151  0.4658  0.1170
16945TIP3    H172250   1.049   6.341  14.420  0.3270  1.0741  0.3715
16945TIP3    H272251   1.086   6.428  14.302  0.5996  0.3503 -0.0823
16946TIP3   OH272252   3.506   5.378  11.523  0.1035 -0.0287 -0.2275
16946TIP3    H172253   3.478   5.466  11.547 -1.9269 -0.5193 -0.6642
16946TIP3    H272254   3.585   5.363  11.574 -0.9713  1.0678  1.8170
16947TIP3   OH272255   3.429   5.275  11.835  0.3193  0.0525 -0.3463
16947TIP3    H172256   3.471   5.334  11.772 -0.0236 -0.0527 -0.6748
16947TIP3    H272257   3.343   5.258  11.798  0.0543  0.1149  0.2278
16948TIP3   OH272258   6.228   2.334  16.199  0.0019 -0.0009 -0.3807
16948TIP3    H172259   6.148   2.380  16.225 -0.7168 -0.8486 -1.0501
16948TIP3    H272260   6.209   2.242  16.214  0.6573 -0.2550 -1.0811
16949TIP3   OH272261   5.894   1.872   0.992 -0.3853 -0.8327  0.6133
16949TIP3    H172262   5.858   1.879   1.081 -0.0640  2.3540  0.5389
16949TIP3    H272263   5.849   1.940   0.943  0.4563 -1.6711 -1.3536
16950TIP3   OH272264   6.359   3.629  16.189 -0.1370 -0.4199 -0.0826
16950TIP3    H172265   6.434   3.580  16.156 -0.7205 -1.6618  0.3839
16950TIP3    H272266   6.289   3.612  16.126 -0.0354  0.7291 -0.5170
16951TIP3   OH272267   2.310   0.763  13.573 -0.1018  0.1688 -0.0618
16951TIP3    H172268   2.377   0.719  13.626 -0.1237  0.4011  0.1558
16951TIP3    H272269   2.308   0.852  13.606 -2.5828 -0.5566  1.9007
16952TIP3   OH272270   1.465   3.597  11.892 -0.3073  0.1470  0.2713
16952TIP3    H172271   1.515   3.540  11.833  1.5125  1.6409  0.3227
16952TIP3    H272272   1.521   3.607  11.969 -0.8850  1.4570  0.5379
16953TIP3   OH272273   5.785   2.909  14.408  0.6453 -0.0985  0.4713
16953TIP3    H172274   5.813   2.932  14.497  0.8518 -0.4492  0.4967
16953TIP3    H272275   5.692   2.888  14.417  0.8838 -1.0570  0.7778
16954TIP3   OH272276   3.916   2.076   5.221 -0.2012 -0.6493 -0.0109
16954TIP3    H172277   3.977   2.130   5.171  0.9702  0.2940  2.3297
16954TIP3    H272278   3.934   1.987   5.193 -0.4134 -0.0413 -2.1286
16955TIP3   OH272279   3.324   4.391  14.467  0.5155  0.3468  0.0968
16955TIP3    H172280   3.245   4.425  14.510 -0.3960 -0.3093 -1.0365
16955TIP3    H272281   3.293   4.359  14.382  2.1250  0.6779 -0.6248
16956TIP3   OH272282   4.705   5.001  15.632  0.0316  0.0445 -0.2738
16956TIP3    H172283   4.798   4.977  15.628 -0.0247  0.0976 -2.3164
16956TIP3    H272284   4.658   4.919  15.618 -0.1795  0.4779 -2.3787
16957TIP3   OH272285   3.907   4.043  11.552 -0.1976 -0.5580 -0.5065
16957TIP3    H172286   3.932   3.962  11.596 -1.2100  0.4168  1.9432
16957TIP3    H272287   3.838   4.080  11.607 -0.3204  1.5628 -2.0240
16958TIP3   OH272288   4.703   0.544   4.607  0.5097  0.4300  0.0825
16958TIP3    H172289   4.794   0.572   4.614  1.0439 -1.1356 -0.5152
16958TIP3    H272290   4.705   0.467   4.551 -1.0229 -0.4560  1.1938
16959TIP3   OH272291   5.859   5.794  12.555  0.4843 -0.1476 -0.0668
16959TIP3    H172292   5.885   5.836  12.637 -0.6518 -0.4730  0.4826
16959TIP3    H272293   5.856   5.701  12.576  0.9932 -0.3069 -0.7050
16960TIP3   OH272294   6.451   2.207  14.463 -0.3494 -0.0464 -0.1695
16960TIP3    H172295   6.402   2.289  14.466 -0.4943 -0.0738 -1.3522
16960TIP3    H272296   6.424   2.159  14.541  0.5164  1.4649  1.0813
16961TIP3   OH272297   2.882   0.158   3.671 -0.0933 -0.0251 -0.3283
16961TIP3    H172298   2.973   0.173   3.695  0.3574 -1.5546 -1.0299
16961TIP3    H272299   2.886   0.129   3.580 -1.3283  0.4184 -0.5332
16962TIP3   OH272300   5.441   3.774  13.257 -0.2950 -0.0171  0.2317
16962TIP3    H172301   5.423   3.867  13.241 -0.3285  0.0740  0.7647
16962TIP3    H272302   5.456   3.769  13.352  0.7694 -0.3810  0.0550
16963TIP3   OH272303   6.278   1.010  14.137 -0.3312  0.3386 -0.3494
16963TIP3    H172304   6.189   1.035  14.161 -0.2881 -1.9956  2.5173
16963TIP3    H272305   6.333   1.042  14.209  0.3646 -3.1998  0.7973
16964TIP3   OH272306   2.373   0.385  14.791  0.0399  0.4737  0.1187
16964TIP3    H172307   2.364   0.476  14.761 -2.7263  0.6712  1.3677
16964TIP3    H272308   2.449   0.352  14.744  0.6552  3.2108 -0.9375
16965TIP3   OH272309   1.559   5.929  11.530 -1.2298 -0.1059 -0.6123
16965TIP3    H172310   1.495   5.911  11.461 -2.0360 -0.2566  0.1638
16965TIP3    H272311   1.541   6.019  11.557 -1.3638 -0.2813 -0.1229
16966TIP3   OH272312   3.183   3.264   2.586 -0.2551  0.1683  0.2084
16966TIP3    H172313   3.106   3.208   2.597 -0.9824  1.0211 -0.4568
16966TIP3    H272314   3.200   3.265   2.492 -0.1431  0.9137  0.2305
16967TIP3   OH272315   5.979   1.491  17.018  0.3035 -0.3872  0.0568
16967TIP3    H172316   6.060   1.528  16.984  0.6647 -0.7252  0.5233
16967TIP3    H272317   5.910   1.549  16.987  0.7118 -0.1927 -0.4867
16968TIP3   OH272318   5.122   3.599  14.398  0.2524 -0.3387 -0.3317
16968TIP3    H172319   5.063   3.624  14.328  1.1634  1.9639 -0.3269
16968TIP3    H272320   5.065   3.567  14.468 -0.7735 -0.7568 -1.3510
16969TIP3   OH272321   6.622   3.558  12.781 -0.6969 -0.7939  0.3080
16969TIP3    H172322   6.693   3.593  12.728 -1.2945  0.8025  0.5250
16969TIP3    H272323   6.664   3.500  12.843 -0.0888 -3.7225 -2.6884
16970TIP3   OH272324   2.626   2.555  16.696 -0.2223  0.2103 -0.7940
16970TIP3    H172325   2.671   2.612  16.758 -1.8351 -0.9817  1.4965
16970TIP3    H272326   2.535   2.553  16.725 -0.1035 -4.0249 -0.3869
16971TIP3   OH272327   2.985   3.020   5.622  0.0781  0.0516  0.2377
16971TIP3    H172328   2.932   2.945   5.650  1.8722 -1.3841 -0.1124
16971TIP3    H272329   2.960   3.091   5.681 -1.1198 -1.0259  1.0538
16972TIP3   OH272330   4.213   2.227  13.240  0.2660 -0.4932  0.4197
16972TIP3    H172331   4.284   2.259  13.295  1.5874 -2.5382 -0.0019
16972TIP3    H272332   4.230   2.265  13.154 -0.3134  0.6195  0.7883
16973TIP3   OH272333   0.436   6.780  16.516  0.1601 -0.1936 -0.0665
16973TIP3    H172334   0.374   6.787  16.588  0.2380  1.1696 -0.1354
16973TIP3    H272335   0.451   6.870  16.487 -1.2451 -0.8551 -2.9643
16974TIP3   OH272336   3.718   0.828   0.026  0.0798 -0.2364  0.4245
16974TIP3    H172337   3.658   0.764   0.063 -0.6225 -0.3530 -0.9041
16974TIP3    H272338   3.804   0.804   0.062  0.1366 -3.0749 -1.5153
16975TIP3   OH272339   1.434   3.335  14.966  0.6129 -0.1673  0.0461
16975TIP3    H172340   1.423   3.250  14.921 -0.0522 -0.8290  1.4401
16975TIP3    H272341   1.369   3.392  14.925  1.0762 -0.3115 -0.9143
16976TIP3   OH272342   2.432   2.611  14.397 -0.3487  0.0201  0.2367
16976TIP3    H172343   2.420   2.533  14.451  0.0966 -0.0668  0.2086
16976TIP3    H272344   2.343   2.634  14.368 -0.2629 -1.6842 -1.4758
16977TIP3   OH272345   6.410   3.673   5.008 -0.1050  0.8662  0.0827
16977TIP3    H172346   6.372   3.761   4.997 -1.5417  0.2867  0.2203
16977TIP3    H272347   6.362   3.618   4.946 -0.3698 -0.1340  1.1426
16978TIP3   OH272348   1.346   4.141   1.634 -0.3682 -0.0812  0.5758
16978TIP3    H172349   1.423   4.094   1.665  0.3230 -0.0356 -1.0478
16978TIP3    H272350   1.292   4.075   1.592 -0.6132  0.1269  0.5598
16979TIP3   OH272351   1.044   6.552   1.945 -0.2936 -0.7344  0.0388
16979TIP3    H172352   1.082   6.544   2.032 -1.6401  0.9580  0.8211
16979TIP3    H272353   0.960   6.595   1.960 -1.5504 -2.4089 -1.8607
16980TIP3   OH272354   4.916   0.227   2.622 -0.1056 -0.0320  0.0623
16980TIP3    H172355   4.838   0.203   2.571 -0.7494  1.2336  0.4319
16980TIP3    H272356   4.910   0.175   2.702 -0.1953 -0.4696 -0.2284
16981TIP3   OH272357   6.618   4.754  11.724 -0.4315 -0.9033 -0.0238
16981TIP3    H172358   6.676   4.828  11.746  1.1531 -1.3513 -2.4802
16981TIP3    H272359   6.530   4.790  11.732  0.3141  1.5060 -1.7955
16982TIP3   OH272360   4.104   2.766   5.626  0.4268 -0.3974 -0.1514
16982TIP3    H172361   4.119   2.832   5.694  2.6157  0.3497 -1.3139
16982TIP3    H272362   4.014   2.784   5.595 -0.3551 -0.3546  2.0836
16983TIP3   OH272363   4.947   2.516  15.210  0.0374 -0.1147  0.1278
16983TIP3    H172364   4.871   2.458  15.202  0.0459 -0.0860 -0.2043
16983TIP3    H272365   4.957   2.554  15.122  0.9536 -0.7685 -0.0593
16984TIP3   OH272366   5.490   1.819   6.130  0.2745 -0.0264 -0.0073
16984TIP3    H172367   5.410   1.856   6.168 -0.1079 -1.9261  1.0970
16984TIP3    H272368   5.544   1.796   6.205  2.3677  2.1964 -0.7497
16985TIP3   OH272369   5.619   2.034   6.340  0.1288  0.1602 -0.2448
16985TIP3    H172370   5.701   2.082   6.332  0.6511 -0.7945 -0.6382
16985TIP3    H272371   5.641   1.944   6.318 -0.9769 -0.1479 -0.1323
16986TIP3   OH272372   0.008   5.869   4.618 -0.6185 -0.2452  0.3304
16986TIP3    H172373  -0.010   5.924   4.542 -2.0105  0.7862  1.3790
16986TIP3    H272374   0.087   5.906   4.656 -0.9492  0.3612  0.4260
16987TIP3   OH272375   0.409   6.378   5.185  0.0468  0.2848  0.0940
16987TIP3    H172376   0.448   6.290   5.183 -0.2685  0.1473  0.0380
16987TIP3    H272377   0.362   6.382   5.268  1.9384  1.2110  1.1451
16988TIP3   OH272378   2.676   1.022   4.427  0.0671 -0.2561  0.3074
16988TIP3    H172379   2.748   0.970   4.390 -0.4789 -1.5015  0.9574
16988TIP3    H272380   2.687   1.013   4.522  0.5949  1.7218  0.4503
16989TIP3   OH272381   1.485   6.050  12.915 -0.0217  0.0334  0.0407
16989TIP3    H172382   1.512   5.983  12.851  2.7580  1.9002 -0.8369
16989TIP3    H272383   1.458   6.124  12.861  0.4121  0.9127  1.0328
16990TIP3   OH272384   0.880   4.659  12.660  0.2272  0.0053 -0.3204
16990TIP3    H172385   0.974   4.676  12.670 -0.0336  2.1720 -1.1534
16990TIP3    H272386   0.846   4.658  12.749  0.8055  0.7856 -0.0826
16991TIP3   OH272387   2.715   0.138  17.126 -0.1791 -0.3672 -0.2970
16991TIP3    H172388   2.635   0.165  17.171  0.6085  0.8793  0.3625
16991TIP3    H272389   2.685   0.072  17.062 -1.3907 -1.6489  1.5430
16992TIP3   OH272390   3.654   3.851  14.797  0.7888  0.1851 -0.0898
16992TIP3    H172391   3.738   3.850  14.844 -0.0384 -3.4619  1.5042
16992TIP3    H272392   3.589   3.866  14.866 -0.0569 -0.0097 -0.8484
16993TIP3   OH272393   0.191   6.433  16.658 -0.8593  0.3098 -0.4795
16993TIP3    H172394   0.286   6.433  16.673 -0.7599 -0.1451 -1.0722
16993TIP3    H272395   0.169   6.340  16.648 -1.0310  0.5475 -2.4202
16994TIP3   OH272396   3.907   4.841  13.268  0.6656  0.7302 -0.0851
16994TIP3    H172397   3.891   4.828  13.174  1.3344  2.3312 -0.4391
16994TIP3    H272398   3.850   4.914  13.292  1.3326  1.0570  0.5029
16995TIP3   OH272399   4.140   2.069  16.092  0.0369  0.0550 -0.1554
16995TIP3    H172400   4.182   2.144  16.051  2.0980 -1.3831 -0.7673
16995TIP3    H272401   4.099   2.022  16.019  0.8646 -0.7167 -0.1346
16996TIP3   OH272402   4.245   6.660   2.392 -0.4968  0.7500 -0.3545
16996TIP3    H172403   4.212   6.710   2.467  1.3314  1.1146  0.2369
16996TIP3    H272404   4.330   6.700   2.373 -0.1475 -0.5144 -1.4757
16997TIP3   OH272405   5.426   0.445  13.716 -0.0567  0.0091 -0.2446
16997TIP3    H172406   5.421   0.522  13.773  0.3400 -0.3720  0.3092
16997TIP3    H272407   5.494   0.466  13.652  0.8605 -0.3414  0.6073
16998TIP3   OH272408   6.288   4.748   3.662  0.2147  0.4820  0.2517
16998TIP3    H172409   6.325   4.826   3.621  1.8039 -0.1278  0.4944
16998TIP3    H272410   6.325   4.675   3.613 -1.4805 -0.1211 -0.1456
16999TIP3   OH272411   2.372   6.232   5.667  0.2074 -0.3367  0.0209
16999TIP3    H172412   2.445   6.270   5.618  0.1402 -1.0993 -0.6752
16999TIP3    H272413   2.366   6.286   5.747  0.9907  0.2445 -0.3081
17000TIP3   OH272414   1.545   6.110  16.749  0.3942  0.1924 -0.5642
17000TIP3    H172415   1.590   6.042  16.699 -0.2833  0.7340 -1.9602
17000TIP3    H272416   1.559   6.087  16.841  3.6160  0.4062 -0.9335
17001TIP3   OH272417   4.276   0.114  13.098  0.8550 -0.2700  0.3261
17001TIP3    H172418   4.190   0.080  13.074  0.4046  0.4903  0.8781
17001TIP3    H272419   4.265   0.148  13.186  1.7892 -0.3997  0.4976
17002TIP3   OH272420   6.774   4.076  13.040 -0.1016 -0.3984  0.4205
17002TIP3    H172421   6.809   4.054  13.126  4.7143  2.9708 -0.4677
17002TIP3    H272422   6.759   4.171  13.045  0.3944 -0.1447 -2.4477
17003TIP3   OH272423   1.170   3.425  15.474  0.2519  0.3269 -0.1661
17003TIP3    H172424   1.165   3.457  15.384 -1.2669  0.0498 -0.1856
17003TIP3    H272425   1.082   3.392  15.493  0.2976  1.2473  1.7303
17004TIP3   OH272426   2.134   1.889   4.867  0.4646 -0.0890  0.1264
17004TIP3    H172427   2.170   1.948   4.800  0.7386 -2.1228 -1.5575
17004TIP3    H272428   2.116   1.808   4.820 -3.1152 -0.2679  1.6943
17005TIP3   OH272429   5.929   3.668   5.705 -0.3511 -0.2620 -0.2574
17005TIP3    H172430   5.859   3.608   5.732  0.2347 -1.0727 -0.5272
17005TIP3    H272431   6.009   3.629   5.740  0.1842 -0.2981 -1.4919
17006TIP3   OH272432   4.776   6.007   3.567  0.1471  0.1870 -0.2921
17006TIP3    H172433   4.686   5.997   3.534 -0.0866 -0.6159  0.5712
17006TIP3    H272434   4.769   5.985   3.660  1.2810 -0.0383 -0.2640
17007TIP3   OH272435   3.521   4.188   3.890  0.4610 -0.6713  0.7083
17007TIP3    H172436   3.524   4.141   3.974 -0.5834 -2.0931 -0.0209
17007TIP3    H272437   3.517   4.119   3.824  1.9897  0.4267 -0.5762
17008TIP3   OH272438   6.038   1.794  11.702  0.0133  0.2222  0.9708
17008TIP3    H172439   6.000   1.817  11.617  1.4678 -0.1585  0.1941
17008TIP3    H272440   6.027   1.699  11.707 -1.2667  0.4006  1.8228
17009TIP3   OH272441   4.185   2.237  16.365  0.0673 -0.7803 -0.1309
17009TIP3    H172442   4.140   2.194  16.437 -1.7662 -1.1865 -1.4805
17009TIP3    H272443   4.198   2.168  16.300  0.3014 -0.0725 -0.8423
17010TIP3   OH272444   1.279   1.936   1.569 -0.0759 -0.0750  0.0684
17010TIP3    H172445   1.359   1.926   1.517 -1.4379 -0.1515 -2.0836
17010TIP3    H272446   1.272   2.030   1.586  0.8667 -0.1561  0.9257
17011TIP3   OH272447   6.550   3.984   5.341  0.3303 -0.0864 -0.5483
17011TIP3    H172448   6.541   4.079   5.344  0.4139 -0.1041  0.8526
17011TIP3    H272449   6.585   3.966   5.255 -0.8723  1.0486 -1.3016
17012TIP3   OH272450   0.192   1.347   3.474 -0.2294 -0.3341  0.4228
17012TIP3    H172451   0.283   1.340   3.448 -0.0017  0.1624  1.0813
17012TIP3    H272452   0.171   1.440   3.468 -1.3424 -0.6980 -1.8571
17013TIP3   OH272453   4.047   3.753   3.664  0.0547  0.2063 -0.2165
17013TIP3    H172454   3.986   3.732   3.593 -2.3060  0.7660  1.6064
17013TIP3    H272455   4.029   3.844   3.685  1.3361  0.2926  0.5738
17014TIP3   OH272456   5.995   5.386   3.295 -0.1439  0.1090 -0.3090
17014TIP3    H172457   5.907   5.362   3.322  0.2238  0.6462  1.4895
17014TIP3    H272458   6.052   5.327   3.344  0.4953 -0.1987 -1.4148
17015TIP3   OH272459   3.872   3.798   3.427  0.6139  0.2573 -0.0479
17015TIP3    H172460   3.912   3.884   3.414  0.2398  0.4676  0.1611
17015TIP3    H272461   3.785   3.806   3.388 -0.0232  0.4863  1.3507
17016TIP3   OH272462   0.157   3.881   4.745 -0.5091 -0.1937 -0.2177
17016TIP3    H172463   0.244   3.848   4.769 -0.6735 -1.0693 -0.7759
17016TIP3    H272464   0.134   3.942   4.814  0.9666  0.7669 -0.5661
17017TIP3   OH272465   4.013   1.506   3.063  0.1824 -0.3076  0.0785
17017TIP3    H172466   4.057   1.437   3.014 -1.4863 -0.2684 -1.5489
17017TIP3    H272467   3.938   1.530   3.008  1.2248  3.4135  0.1361
17018TIP3   OH272468   5.744   0.203   5.586  0.2027 -0.3061 -0.2293
17018TIP3    H172469   5.806   0.141   5.548  0.8812  1.6762 -2.4579
17018TIP3    H272470   5.686   0.149   5.640  1.1864 -2.7755 -1.5757
17019TIP3   OH272471   0.871   3.699  15.014 -0.0930  0.2900 -0.2230
17019TIP3    H172472   0.928   3.748  14.954  0.2163  0.4713  0.2154
17019TIP3    H272473   0.929   3.635  15.055  0.3523  2.0331  2.0052
17020TIP3   OH272474   5.362   4.005  12.543 -0.1810 -0.4273  0.1001
17020TIP3    H172475   5.386   4.097  12.557 -0.5526 -0.1161 -1.1737
17020TIP3    H272476   5.267   4.004  12.556 -0.4706 -0.2177 -1.7682
17021TIP3   OH272477   5.552   4.570  15.164  0.4653  0.1576  0.8837
17021TIP3    H172478   5.487   4.514  15.121  0.3523  0.1181  1.1002
17021TIP3    H272479   5.636   4.533  15.138  0.4507  1.6231 -1.2618
17022TIP3   OH272480   2.993   1.615   4.542 -0.2481 -0.6031  0.4684
17022TIP3    H172481   3.076   1.621   4.495 -0.0171 -0.0045  0.9453
17022TIP3    H272482   3.014   1.641   4.632 -1.2223  0.9088  0.2738
17023TIP3   OH272483   1.749   2.194  14.179  0.7472  0.0302 -0.2919
17023TIP3    H172484   1.684   2.169  14.112  0.6440  1.0698 -0.5874
17023TIP3    H272485   1.800   2.263  14.138  1.7190 -0.4246  0.1369
17024TIP3   OH272486   1.639   3.984   1.098  1.1221 -0.2139  0.0030
17024TIP3    H172487   1.705   3.950   1.037  1.7470  1.1026 -0.0633
17024TIP3    H272488   1.668   4.073   1.117  0.4174 -0.3020  1.5026
17025TIP3   OH272489   0.168   0.535  11.123  0.3649  0.6688 -0.5357
17025TIP3    H172490   0.133   0.623  11.108 -1.0634  0.3124  0.5671
17025TIP3    H272491   0.163   0.523  11.217 -0.0418 -0.8328 -0.7360
17026TIP3   OH272492   1.447   5.649   1.989 -0.4314  0.2609 -0.0815
17026TIP3    H172493   1.378   5.672   1.926 -0.9521 -0.9136  0.0434
17026TIP3    H272494   1.455   5.725   2.046 -2.0134  0.1857  0.2436
17027TIP3   OH272495   5.244   2.291  12.905  0.1226  0.3766 -0.6405
17027TIP3    H172496   5.265   2.307  12.813  0.3203  1.1126 -0.4712
17027TIP3    H272497   5.153   2.320  12.914 -1.3697 -3.5910 -1.5735
17028TIP3   OH272498   3.779   0.772   0.393 -0.6997 -0.3058 -0.2368
17028TIP3    H172499   3.743   0.860   0.397 -1.1238 -0.5120  0.6896
17028TIP3    H272500   3.703   0.714   0.407 -0.2565 -0.7791  0.2493
17029TIP3   OH272501   3.119   5.589   5.624  0.2449 -0.4290 -0.0042
17029TIP3    H172502   3.142   5.591   5.531  1.0681 -1.4778  0.1754
17029TIP3    H272503   3.202   5.582   5.670  0.0067  2.0917  0.9174
17030TIP3   OH272504   6.146   3.663  13.179 -0.1189  0.5328 -0.0457
17030TIP3    H172505   6.162   3.570  13.197 -0.0387  0.6493  0.4990
17030TIP3    H272506   6.147   3.670  13.084  0.4095  0.0637 -0.0752
17031TIP3   OH272507   4.067   4.454   6.829  0.3532  0.6405 -0.1412
17031TIP3    H172508   4.141   4.414   6.783  0.3537 -1.1458  1.4046
17031TIP3    H272509   4.027   4.511   6.763 -0.2217 -2.5698 -2.7088
17032TIP3   OH272510   6.337   6.321  15.654 -0.1702 -0.1430 -0.2798
17032TIP3    H172511   6.402   6.384  15.625 -0.3872  1.5985  2.7791
17032TIP3    H272512   6.381   6.270  15.722 -1.3074 -0.4148  0.2763
17033TIP3   OH272513   0.713   3.790  15.670  0.6925 -0.2203 -0.2051
17033TIP3    H172514   0.762   3.758  15.746 -1.4203 -1.8923  0.5060
17033TIP3    H272515   0.622   3.765  15.688  0.1467 -0.5769 -3.2574
17034TIP3   OH272516   6.008   3.972  12.512 -0.6228 -0.1202 -0.5656
17034TIP3    H172517   6.062   3.998  12.587 -0.8757  3.2597 -1.4982
17034TIP3    H272518   6.072   3.953  12.443 -0.5127  1.9040 -1.0541
17035TIP3   OH272519   1.419   0.780   3.048 -0.0840 -0.0830  0.1999
17035TIP3    H172520   1.324   0.772   3.054  0.0796 -1.1795  1.4741
17035TIP3    H272521   1.446   0.708   2.991 -0.0380  0.3350 -0.3049
17036TIP3   OH272522   4.709   1.152   4.891 -0.3891  0.1763 -0.1239
17036TIP3    H172523   4.647   1.081   4.913  0.7579 -1.0413 -0.7432
17036TIP3    H272524   4.779   1.142   4.955 -0.5721  1.2208  0.2404
17037TIP3   OH272525   1.846   4.152  14.138 -0.0691 -0.3778  0.4505
17037TIP3    H172526   1.794   4.232  14.133  0.0701 -0.4097 -1.9310
17037TIP3    H272527   1.932   4.177  14.103 -0.3824 -1.8497 -1.4186
17038TIP3   OH272528   1.762   6.265  13.656 -0.0150 -0.4172  0.1326
17038TIP3    H172529   1.725   6.248  13.743  1.3934  0.4277  0.9217
17038TIP3    H272530   1.691   6.306  13.607 -0.2651  0.7630  1.4660
17039TIP3   OH272531   1.964   4.008   2.695 -0.1274 -0.3169 -0.0481
17039TIP3    H172532   1.885   3.955   2.704  0.0254 -0.2546  1.9649
17039TIP3    H272533   1.934   4.088   2.651 -0.8583 -0.9662 -0.7473
17040TIP3   OH272534   4.311   2.854   4.457  0.2688  0.1920 -0.2940
17040TIP3    H172535   4.402   2.880   4.462 -0.0572  1.3017  0.0165
17040TIP3    H272536   4.292   2.848   4.363  0.7934 -0.5317 -0.3524
17041TIP3   OH272537   6.054   1.010  15.545  0.0846  0.1311 -0.1173
17041TIP3    H172538   5.994   1.082  15.567  2.2655  1.7860  0.6452
17041TIP3    H272539   6.077   0.973  15.630  1.4141  0.5954 -0.2624
17042TIP3   OH272540   0.712   4.806  11.551  0.3822  0.0411 -0.5900
17042TIP3    H172541   0.720   4.891  11.508 -1.9356  0.0189 -1.1069
17042TIP3    H272542   0.690   4.745  11.480  1.5206 -0.9209 -0.1476
17043TIP3   OH272543   2.036   6.196   1.466 -0.2702 -0.1874  0.1119
17043TIP3    H172544   2.112   6.144   1.492 -0.1693  0.8584  1.9645
17043TIP3    H272545   1.982   6.201   1.545  1.1566  5.0639  0.9368
17044TIP3   OH272546   5.280   1.825   0.644  0.8408  0.4081  0.1488
17044TIP3    H172547   5.310   1.756   0.584 -2.1727  0.5884 -1.6532
17044TIP3    H272548   5.331   1.811   0.724  2.8685 -1.6409 -1.4329
17045TIP3   OH272549   1.925   0.556  11.010  0.2123  0.5474  0.0285
17045TIP3    H172550   1.912   0.633  10.956  0.2489  0.9751  0.6235
17045TIP3    H272551   1.874   0.573  11.090 -0.2411 -0.2891 -0.0765
17046TIP3   OH272552   3.342   2.380  16.845 -0.0967  0.0813  0.6837
17046TIP3    H172553   3.265   2.429  16.815  0.3304  0.5085  0.2691
17046TIP3    H272554   3.378   2.433  16.917  0.8937  0.8565 -0.3682
17047TIP3   OH272555   5.584   5.802  12.313 -0.2193 -0.5087  0.0442
17047TIP3    H172556   5.491   5.800  12.334 -0.5937  1.0841 -1.3516
17047TIP3    H272557   5.618   5.717  12.343 -2.0349 -0.9355  0.9055
17048TIP3   OH272558   0.593   3.020  14.538  0.0431  0.5766 -0.6771
17048TIP3    H172559   0.665   2.957  14.533 -0.2659  0.1848 -0.2061
17048TIP3    H272560   0.625   3.096  14.490  0.8423  0.4775 -0.3110
17049TIP3   OH272561   3.495   0.718   0.409 -0.1578  0.0735 -0.2377
17049TIP3    H172562   3.455   0.634   0.387  0.8261 -0.6197  0.5363
17049TIP3    H272563   3.498   0.766   0.326 -0.1308 -0.9111 -0.8142
17050TIP3   OH272564   2.762   2.202   0.505  0.8106 -0.0496 -0.5913
17050TIP3    H172565   2.846   2.247   0.514  1.5035 -1.5090  0.6238
17050TIP3    H272566   2.699   2.259   0.548  1.5645  0.0828  0.3627
17051TIP3   OH272567   1.583   5.603   4.067 -0.4766 -0.0149  0.1355
17051TIP3    H172568   1.615   5.680   4.114  0.6330 -0.0463 -0.5618
17051TIP3    H272569   1.487   5.608   4.076 -0.3830  1.0981  0.6173
17052TIP3   OH272570   5.525   4.786   6.079 -0.3861  0.0224  0.1625
17052TIP3    H172571   5.508   4.694   6.101  0.6051  0.1443  1.5042
17052TIP3    H272572   5.451   4.834   6.114  0.6389  0.0851  2.3403
17053TIP3   OH272573   3.861   2.579  12.537 -0.2698  0.0814 -0.5841
17053TIP3    H172574   3.861   2.534  12.622 -1.4745  1.9934  0.4446
17053TIP3    H272575   3.949   2.563  12.502  0.1059 -1.0761  0.8230
17054TIP3   OH272576   5.204   3.180   6.178 -0.2271 -0.0313 -0.7607
17054TIP3    H172577   5.211   3.226   6.094 -2.4557 -0.9228 -1.4551
17054TIP3    H272578   5.172   3.247   6.239 -0.4932  0.1206 -1.0665
17055TIP3   OH272579   4.781   6.602   0.495 -0.4100 -0.4668  0.1199
17055TIP3    H172580   4.750   6.512   0.506 -0.5248 -0.5416 -0.7438
17055TIP3    H272581   4.876   6.596   0.504 -0.3195 -0.8586 -1.0461
17056TIP3   OH272582   6.692   4.460   3.556  0.2534 -0.2714  0.4847
17056TIP3    H172583   6.714   4.507   3.636  0.1144  0.0709  0.3246
17056TIP3    H272584   6.599   4.478   3.542  0.7039  1.2105 -0.7622
17057TIP3   OH272585   1.923   5.509  12.503 -0.0083  0.6540 -0.2014
17057TIP3    H172586   1.949   5.479  12.416 -1.1589 -2.4728  0.4977
17057TIP3    H272587   1.830   5.487  12.510  0.5634 -1.0813  2.6065
17058TIP3   OH272588   4.174   6.443  13.176  0.0893 -0.5263 -0.3294
17058TIP3    H172589   4.167   6.357  13.135  1.5572 -1.1818  0.7273
17058TIP3    H272590   4.181   6.425  13.270 -2.5248  0.9156  0.1819
17059TIP3   OH272591   4.148   3.690   2.655 -0.0807  0.7810  0.0180
17059TIP3    H172592   4.197   3.695   2.573 -2.3517  1.6349 -1.3156
17059TIP3    H272593   4.092   3.767   2.654 -1.6812 -0.3372  1.3675
17060TIP3   OH272594   6.558   0.166   2.249  0.0525  0.0980  0.1959
17060TIP3    H172595   6.494   0.109   2.291 -0.9143  0.9039 -0.1683
17060TIP3    H272596   6.620   0.188   2.319 -0.9172  0.5173  0.9264
17061TIP3   OH272597   6.726   0.052  12.104 -0.3352  0.0283 -0.1097
17061TIP3    H172598   6.719   0.072  12.198  0.2021  0.4200 -0.1516
17061TIP3    H272599   6.637   0.028  12.079 -0.3005 -1.0035  0.7047
17062TIP3   OH272600   5.374   1.441   0.420  0.8016 -0.1605  0.4623
17062TIP3    H172601   5.311   1.370   0.408  0.9599 -0.1803 -0.2332
17062TIP3    H272602   5.460   1.398   0.417  0.8820 -0.0096  0.5415
17063TIP3   OH272603   6.659   4.194  13.947 -0.0642 -0.4443  0.5625
17063TIP3    H172604   6.730   4.246  13.987 -0.6590 -0.5280  1.7478
17063TIP3    H272605   6.583   4.253  13.950 -0.0501 -0.3683 -0.6747
17064TIP3   OH272606   0.186   0.419  13.294  0.0012 -0.2590 -0.0362
17064TIP3    H172607   0.167   0.502  13.339  0.8953  0.7992 -1.5942
17064TIP3    H272608   0.282   0.413  13.294 -0.0552 -1.2743 -0.0058
17065TIP3   OH272609   4.441   3.776   3.091 -0.0353 -0.2059 -0.1346
17065TIP3    H172610   4.373   3.739   3.035  0.5806 -0.4090 -0.7536
17065TIP3    H272611   4.484   3.699   3.129  0.8297 -0.1190 -0.9242
17066TIP3   OH272612   0.514   5.434  13.689 -0.2220 -0.7253  0.6061
17066TIP3    H172613   0.601   5.472  13.704 -0.6172  0.1249  0.7399
17066TIP3    H272614   0.514   5.409  13.597 -0.3943  0.7073  0.2085
17067TIP3   OH272615   3.530   0.920   0.231  0.0732  0.3098 -0.2802
17067TIP3    H172616   3.473   0.997   0.222 -0.6778 -0.2965 -0.8020
17067TIP3    H272617   3.587   0.924   0.154 -0.9592 -0.4550 -1.1072
17068TIP3   OH272618   6.537   5.466  16.276  0.2232 -0.3425  0.1483
17068TIP3    H172619   6.487   5.533  16.230  2.4198  0.7097 -0.8045
17068TIP3    H272620   6.493   5.457  16.361 -1.3159  0.8042 -0.5073
17069TIP3   OH272621   4.041   3.103   3.183  0.2093  0.0340 -0.0736
17069TIP3    H172622   4.104   3.156   3.232  0.5873  0.3377 -0.8712
17069TIP3    H272623   4.042   3.141   3.095 -0.4932 -0.4755 -0.3044
17070TIP3   OH272624   4.901   3.349   6.095  0.2931 -0.0105  0.0758
17070TIP3    H172625   4.945   3.417   6.145 -1.2363  0.1228  1.2829
17070TIP3    H272626   4.926   3.366   6.004  1.1825  1.1996  0.5389
17071TIP3   OH272627   4.513   1.333   3.442  0.1111 -0.3943 -0.2960
17071TIP3    H172628   4.527   1.321   3.536  2.8839 -0.5121 -0.6785
17071TIP3    H272629   4.505   1.428   3.430 -1.4168 -0.4538  0.1865
17072TIP3   OH272630   2.066   6.446   4.345  0.6453 -0.0676 -0.3456
17072TIP3    H172631   2.051   6.352   4.345 -0.8664  0.1077  2.6323
17072TIP3    H272632   2.154   6.457   4.381  0.8382 -0.3415 -0.7362
17073TIP3   OH272633   4.801   0.100  16.577 -0.0148 -0.1464 -0.8128
17073TIP3    H172634   4.718   0.124  16.620  0.4686 -1.4440  0.8910
17073TIP3    H272635   4.824   0.177  16.524 -3.0805 -0.3258 -2.5359
17074TIP3   OH272636   2.864   6.070  15.619 -1.2900  0.1282 -0.0710
17074TIP3    H172637   2.947   6.055  15.665 -0.9832  0.4851 -0.4976
17074TIP3    H272638   2.820   6.137  15.672 -2.6163 -2.1654  1.7744
17075TIP3   OH272639   5.512   2.755  13.030  0.1457  0.2866  0.2445
17075TIP3    H172640   5.420   2.783  13.031 -0.3945 -1.3997 -0.1745
17075TIP3    H272641   5.516   2.686  13.096  1.0063  0.0225 -0.0846
17076TIP3   OH272642   0.876   5.235  15.894  0.3392  0.5813  0.3758
17076TIP3    H172643   0.795   5.232  15.842  1.5736  2.9308 -1.7946
17076TIP3    H272644   0.846   5.225  15.985 -2.3821  1.2731 -0.3753
17077TIP3   OH272645   4.842   5.796   3.342 -0.0074 -0.7133  0.4415
17077TIP3    H172646   4.786   5.804   3.419 -1.3613  0.0089 -0.5904
17077TIP3    H272647   4.904   5.869   3.349 -0.7384 -0.0798  0.3562
17078TIP3   OH272648   4.498   0.526  17.160  0.3249  0.1754  0.0574
17078TIP3    H172649   4.455   0.441  17.155  0.0862  0.3408 -0.7832
17078TIP3    H272650   4.591   0.506  17.155  0.2839 -0.0733  0.3150
17079TIP3   OH272651   0.272   0.933  14.625  0.0685  0.1315 -0.0969
17079TIP3    H172652   0.212   0.905  14.694 -0.1853  0.8641 -0.0210
17079TIP3    H272653   0.216   0.969  14.557  0.4457  1.3930  0.2417
17080TIP3   OH272654   1.701   4.815   0.019  0.5507  0.2491 -0.3072
17080TIP3    H172655   1.770   4.817   0.085  2.2879 -1.9024 -1.9854
17080TIP3    H272656   1.635   4.755   0.055  0.5664  0.6253  0.3484
17081TIP3   OH272657   6.617   5.522  16.825 -0.4338 -0.4260  0.3891
17081TIP3    H172658   6.563   5.488  16.753 -0.6934  0.9104 -0.0543
17081TIP3    H272659   6.696   5.468  16.824 -1.1804 -1.5312  0.1946
17082TIP3   OH272660   0.829   4.105  14.037 -0.3292 -0.0225  0.6914
17082TIP3    H172661   0.805   4.113  13.945  1.6807  0.7124  0.2171
17082TIP3    H272662   0.848   4.011  14.049  1.1247  0.1623 -0.0884
17083TIP3   OH272663   4.695   4.043   6.485 -0.4810  0.0260  0.6051
17083TIP3    H172664   4.768   4.098   6.514  2.3322 -1.5687 -3.1716
17083TIP3    H272665   4.655   4.012   6.567  1.8446  2.4017  2.7491
17084TIP3   OH272666   2.454   5.749   3.323  0.0268  0.3852  0.2985
17084TIP3    H172667   2.454   5.789   3.410  0.6715 -0.8032  0.8570
17084TIP3    H272668   2.362   5.725   3.309 -0.1365  0.8766  0.5112
17085TIP3   OH272669   0.562   1.661  15.866 -0.0179 -0.2262 -0.3750
17085TIP3    H172670   0.503   1.587  15.851 -0.4004  0.0929 -0.4573
17085TIP3    H272671   0.530   1.730  15.807  0.4578 -0.0649 -0.4496
17086TIP3   OH272672   6.432   1.414   4.737  0.4941 -0.3161 -0.1313
17086TIP3    H172673   6.444   1.502   4.773 -1.0565 -0.1632  0.0800
17086TIP3    H272674   6.439   1.356   4.813  0.6530 -0.2922 -0.1285
17087TIP3   OH272675   0.140   5.676   1.850 -0.3676  0.0424  0.2134
17087TIP3    H172676   0.212   5.716   1.802 -0.5078 -1.0949 -0.9751
17087TIP3    H272677   0.178   5.651   1.934  0.6433 -0.6369 -0.4368
17088TIP3   OH272678   6.049   0.885  13.959  0.4051  0.6397  0.2197
17088TIP3    H172679   6.140   0.902  13.983  0.3852  3.9344 -1.6801
17088TIP3    H272680   6.007   0.971  13.965 -2.0738 -0.4357 -1.0675
17089TIP3   OH272681   0.589   2.045  12.424 -0.1678  0.2871 -0.1328
17089TIP3    H172682   0.659   2.030  12.361  0.3187  0.7052  0.2958
17089TIP3    H272683   0.540   1.963  12.427 -0.9613  0.6703 -1.9849
17090TIP3   OH272684   4.944   0.918  16.067  0.1820  0.5365  0.1850
17090TIP3    H172685   4.878   0.982  16.041 -0.9059 -0.8774 -0.5852
17090TIP3    H272686   4.893   0.841  16.095  1.4523  0.2144  1.6872
17091TIP3   OH272687   2.290   1.188  12.044 -0.0099 -0.5661 -0.2949
17091TIP3    H172688   2.293   1.283  12.037 -1.6473 -0.5429 -0.8542
17091TIP3    H272689   2.339   1.157  11.969 -0.4586 -0.1717 -0.7528
17092TIP3   OH272690   0.510   2.126   2.118  0.4208 -0.2134  0.3686
17092TIP3    H172691   0.558   2.085   2.045 -0.2440 -2.1064  0.9496
17092TIP3    H272692   0.478   2.209   2.083 -0.7814 -1.5687 -1.8402
17093TIP3   OH272693   2.648   1.732   1.444 -0.2012 -0.5525 -0.3339
17093TIP3    H172694   2.665   1.641   1.467 -0.2328 -0.5677 -0.3697
17093TIP3    H272695   2.732   1.776   1.456 -0.5430 -0.2889  1.1335
17094TIP3   OH272696   0.312   6.321  10.812 -0.3456 -0.1454 -0.2844
17094TIP3    H172697   0.311   6.386  10.742 -1.4712 -0.3217 -0.4396
17094TIP3    H272698   0.377   6.256  10.784  1.8446  1.6429  0.5496
17095TIP3   OH272699   3.850   3.004   2.561  0.4010 -0.3679  0.4266
17095TIP3    H172700   3.769   2.988   2.609  0.8889  2.6539  2.4490
17095TIP3    H272701   3.834   2.969   2.474 -1.8287 -2.8476  1.7586
17096TIP3   OH272702   6.477   4.604   2.406 -0.5805  0.5337 -0.5780
17096TIP3    H172703   6.503   4.674   2.347  0.2472  0.0467 -0.8053
17096TIP3    H272704   6.518   4.626   2.490 -0.5574  0.4664 -0.5716
17097TIP3   OH272705   3.391   1.404  15.928  0.0659  0.1829 -0.5581
17097TIP3    H172706   3.418   1.312  15.923 -0.2609  0.1408 -1.8932
17097TIP3    H272707   3.296   1.401  15.938  0.0113  0.3688 -0.9841
17098TIP3   OH272708   6.712   5.770  16.166  0.7295 -0.3507  0.0268
17098TIP3    H172709   6.720   5.684  16.126  1.2922 -0.5187  0.5046
17098TIP3    H272710   6.788   5.778  16.223  0.1738  0.0818  0.7090
17099TIP3   OH272711   6.478   0.676   0.554  0.0031 -0.3567  0.5700
17099TIP3    H172712   6.566   0.712   0.555 -0.4657  0.8127  1.2256
17099TIP3    H272713   6.447   0.685   0.645 -0.5956 -1.2494  0.4652
17100TIP3   OH272714   5.628   5.944   4.826 -0.4797  0.3029 -0.3319
17100TIP3    H172715   5.617   5.854   4.796 -0.6865  0.6285 -1.2441
17100TIP3    H272716   5.658   5.936   4.917  0.2807 -0.6972 -0.6673
17101TIP3   OH272717   0.313   2.502  11.455  0.8026  0.0560  0.1924
17101TIP3    H172718   0.356   2.511  11.369  0.6352 -0.4784  0.0493
17101TIP3    H272719   0.231   2.457  11.435  0.1697  1.0626  0.4691
17102TIP3   OH272720   6.196   4.634   4.237  0.1990 -0.2309 -0.4042
17102TIP3    H172721   6.231   4.703   4.293 -0.6004  0.4520 -0.7520
17102TIP3    H272722   6.223   4.552   4.280  0.2317  0.2919  0.5698
17103TIP3   OH272723   1.116   4.153  16.869 -0.0484  0.2189  0.2296
17103TIP3    H172724   1.110   4.058  16.854  0.9374  0.3887 -1.4449
17103TIP3    H272725   1.044   4.189  16.818  0.2319  0.4433 -0.0100
17104TIP3   OH272726   4.494   3.515  15.427 -0.5937 -0.4769  0.7654
17104TIP3    H172727   4.444   3.538  15.506 -2.8077  1.5075 -1.1600
17104TIP3    H272728   4.427   3.486  15.365  1.0088 -0.7440 -0.8529
17105TIP3   OH272729   1.667   4.157  16.400 -0.1270 -0.0410 -0.8645
17105TIP3    H172730   1.739   4.094  16.409 -0.3339 -0.4212 -1.7779
17105TIP3    H272731   1.698   4.236  16.443  0.0117 -0.8666  0.6161
17106TIP3   OH272732   0.696   1.458  13.970 -0.0989  0.5184  0.4255
17106TIP3    H172733   0.788   1.458  13.996 -0.1070  0.2344  0.4546
17106TIP3    H272734   0.683   1.544  13.929 -0.4854  1.6556  2.7822
17107TIP3   OH272735   3.598   3.772   5.770  0.4010 -0.1496  0.1264
17107TIP3    H172736   3.619   3.688   5.811  1.1901  0.3631  0.7763
17107TIP3    H272737   3.578   3.750   5.679 -0.7648 -1.2130  0.6226
17108TIP3   OH272738   1.402   5.428  15.368  0.3657 -0.1878  0.5920
17108TIP3    H172739   1.436   5.354  15.316  1.2430  0.5447  0.0918
17108TIP3    H272740   1.428   5.408  15.458 -1.3389 -1.5709  0.7956
17109TIP3   OH272741   4.503   6.627   1.481 -0.1932 -0.4659 -0.4727
17109TIP3    H172742   4.565   6.635   1.553  1.8873 -0.9135 -2.1637
17109TIP3    H272743   4.424   6.591   1.521  1.3673 -1.9353  1.3531
17110TIP3   OH272744   5.596   2.888  16.266 -0.1448  0.1877  0.2324
17110TIP3    H172745   5.567   2.980  16.268  2.8698  1.1962  0.5502
17110TIP3    H272746   5.613   2.866  16.357 -3.6591 -1.7158  0.5210
17111TIP3   OH272747   2.319   2.830  12.135 -0.4698 -0.5531  0.1371
17111TIP3    H172748   2.334   2.741  12.165 -1.5751 -0.8484 -0.1590
17111TIP3    H272749   2.364   2.836  12.051 -1.0419 -1.0682 -0.2055
17112TIP3   OH272750   5.981   5.050  15.669 -0.1178 -0.3709  0.3199
17112TIP3    H172751   5.980   5.145  15.681  1.0081 -0.1401 -1.2261
17112TIP3    H272752   5.941   5.015  15.749 -0.8888  1.4113  0.7372
17113TIP3   OH272753   5.254   5.233   5.145  0.3686 -0.2587 -0.2914
17113TIP3    H172754   5.251   5.306   5.083  0.9322  1.5942  1.8090
17113TIP3    H272755   5.344   5.202   5.140  0.7911  0.7988  0.6084
17114TIP3   OH272756   4.702   3.586   0.685 -0.1376 -0.0536 -0.4586
17114TIP3    H172757   4.650   3.508   0.706 -0.3357 -0.0767 -1.0167
17114TIP3    H272758   4.672   3.653   0.745 -1.6906  0.2940 -1.5870
17115TIP3   OH272759   5.509   5.343  17.157  0.3610 -0.3204  0.1485
17115TIP3    H172760   5.487   5.412  17.219 -0.9716 -2.1154  1.7522
17115TIP3    H272761   5.605   5.339  17.157  0.4330  1.3620  0.2020
17116TIP3   OH272762   3.420   1.329  16.398 -0.3726 -0.3995  0.1399
17116TIP3    H172763   3.368   1.254  16.370  2.5974 -2.8332  0.9125
17116TIP3    H272764   3.464   1.359  16.318 -0.8729 -0.0496 -0.0024
17117TIP3   OH272765   1.191   2.434  12.891  0.0189  0.0440  0.3105
17117TIP3    H172766   1.127   2.370  12.921  0.4100 -0.9974 -1.0291
17117TIP3    H272767   1.139   2.502  12.849 -0.2275 -0.9003 -0.9576
17118TIP3   OH272768   5.850   1.894   6.183 -0.3082 -0.1869  0.1010
17118TIP3    H172769   5.902   1.935   6.113 -1.1600 -1.2039 -1.1509
17118TIP3    H272770   5.904   1.820   6.212 -0.8139 -0.9579 -0.8720
17119TIP3   OH272771   5.864   2.939   4.279  0.7049  0.7926 -0.1873
17119TIP3    H172772   5.817   2.856   4.272 -0.7770  1.6843 -1.1198
17119TIP3    H272773   5.819   2.997   4.218  1.6909  2.2938  0.4885
17120TIP3   OH272774   6.641   5.328   1.073  0.1787  0.4728  0.0173
17120TIP3    H172775   6.655   5.401   1.134  1.4657  0.2083  0.0501
17120TIP3    H272776   6.678   5.358   0.990 -2.3448  1.1666 -0.8888
17121TIP3   OH272777   5.851   2.455   4.709  0.2467  0.1334 -0.0490
17121TIP3    H172778   5.820   2.438   4.799  0.4850  0.5930  0.1187
17121TIP3    H272779   5.771   2.479   4.661 -0.3664 -2.9237 -0.6575
17122TIP3   OH272780   2.038   0.875   3.291  0.0414  0.2748 -0.0473
17122TIP3    H172781   1.977   0.942   3.260 -1.3389 -0.9405 -0.0293
17122TIP3    H272782   2.070   0.833   3.211  0.0482  0.2210 -0.0165
17123TIP3   OH272783   2.235   0.868   0.428 -0.0725  0.4019  0.3386
17123TIP3    H172784   2.204   0.894   0.514  0.9802  3.1206 -0.0586
17123TIP3    H272785   2.244   0.950   0.380  4.0301 -0.5703 -0.7521
17124TIP3   OH272786   2.454   2.969  17.100 -0.1890 -0.1609  0.3661
17124TIP3    H172787   2.431   2.973  17.007  0.1491  0.3724  0.3087
17124TIP3    H272788   2.370   2.958  17.145 -0.1876 -2.3419 -0.1248
17125TIP3   OH272789   1.780   0.291   2.114 -0.2400  0.4542  0.0668
17125TIP3    H172790   1.756   0.291   2.021  0.3907  0.4167 -0.0971
17125TIP3    H272791   1.791   0.383   2.135 -2.2126  0.5933  0.5863
17126TIP3   OH272792   2.705   2.217   3.411 -0.0416  0.1192  0.6568
17126TIP3    H172793   2.759   2.142   3.436 -0.6430 -0.1171  1.2775
17126TIP3    H272794   2.761   2.269   3.353  0.0376 -1.3303 -0.6081
17127TIP3   OH272795   0.990   6.618  12.964  0.6337 -0.3580  0.4016
17127TIP3    H172796   0.941   6.680  12.910 -0.7382 -1.0539  0.8240
17127TIP3    H272797   1.053   6.672  13.012 -1.0258  0.8176  1.3235
17128TIP3   OH272798   1.944   1.221  15.192  0.2601 -0.3105  0.3050
17128TIP3    H172799   1.965   1.245  15.102 -1.6733 -1.8696 -0.5998
17128TIP3    H272800   1.918   1.303  15.233  1.2380  0.4256 -0.5357
17129TIP3   OH272801   6.745   5.299  17.226 -0.3833  0.6615  0.0412
17129TIP3    H172802   6.770   5.209  17.248 -1.0787  0.4038 -0.2169
17129TIP3    H272803   6.700   5.291  17.142 -0.2639  1.2746 -0.0829
17130TIP3   OH272804   4.096   1.257   2.428 -0.1502  0.2977  0.5819
17130TIP3    H172805   4.139   1.191   2.373 -0.9756 -0.7093  1.1305
17130TIP3    H272806   4.160   1.328   2.434 -0.1299  0.5343 -1.8664
17131TIP3   OH272807   6.754   3.321   4.474 -0.0039 -0.0394 -0.1981
17131TIP3    H172808   6.744   3.319   4.378  2.4318 -0.2394 -0.4760
17131TIP3    H272809   6.722   3.235   4.503  1.3002 -0.8236 -1.0572
17132TIP3   OH272810   5.673   2.299  12.693 -0.2303  0.2587  0.4567
17132TIP3    H172811   5.646   2.212  12.663 -0.4534  0.3306  0.4404
17132TIP3    H272812   5.703   2.286  12.783 -0.9921  0.2937  0.7176
17133TIP3   OH272813   3.606   2.344  14.843 -1.0702  0.1947  0.1958
17133TIP3    H172814   3.630   2.348  14.751  0.7488  0.6198  0.6596
17133TIP3    H272815   3.614   2.434  14.874  0.5508 -0.3085  1.2802
17134TIP3   OH272816   5.250   6.636  16.029 -0.1917  0.5547  0.1631
17134TIP3    H172817   5.297   6.697  15.972 -0.3150  1.3668  0.9098
17134TIP3    H272818   5.176   6.687  16.062 -1.4452 -0.6262 -0.7769
17135TIP3   OH272819   5.694   5.519   1.122  0.2945 -0.1903  0.2375
17135TIP3    H172820   5.619   5.560   1.078  0.6931  0.8999  0.5632
17135TIP3    H272821   5.769   5.541   1.067  0.5880 -0.0484  0.6927
17136TIP3   OH272822   0.706   2.127   0.064  0.9269  0.2193 -0.0399
17136TIP3    H172823   0.741   2.186  -0.003 -1.3393  1.4307 -0.1914
17136TIP3    H272824   0.658   2.060   0.014  0.3416  0.3763  0.3119
17137TIP3   OH272825   4.317   0.687   0.537  0.0115 -0.0840 -0.2280
17137TIP3    H172826   4.254   0.712   0.469  1.1634  0.1201 -1.2575
17137TIP3    H272827   4.366   0.614   0.498  1.7245  1.0419 -0.2556
17138TIP3   OH272828   1.681   5.075   0.271  0.2803  0.7287 -0.3331
17138TIP3    H172829   1.661   5.110   0.357 -0.3869 -1.5806  0.4833
17138TIP3    H272830   1.758   5.125   0.242 -0.8782  3.1060  0.5827
17139TIP3   OH272831   4.888   1.224   2.571 -0.3092 -0.3042  0.5799
17139TIP3    H172832   4.829   1.221   2.646 -2.0107  0.4594 -0.6862
17139TIP3    H272833   4.830   1.220   2.495  1.1624  1.8554 -0.7172
17140TIP3   OH272834   2.864   2.632  13.113  0.0530  0.7764 -0.2480
17140TIP3    H172835   2.957   2.637  13.135  0.2897  1.5255 -1.3988
17140TIP3    H272836   2.822   2.607  13.195  1.3871 -0.7047  0.0213
17141TIP3   OH272837   5.720   4.473  13.465  0.4267 -0.5099 -0.3340
17141TIP3    H172838   5.701   4.403  13.528  2.3261 -1.2236 -0.4942
17141TIP3    H272839   5.704   4.434  13.380  1.3416 -0.7355 -0.4171
17142TIP3   OH272840   5.140   2.733   2.126  0.4211  0.0973  0.2810
17142TIP3    H172841   5.170   2.808   2.074  2.6990 -0.5340  0.6397
17142TIP3    H272842   5.152   2.658   2.069 -1.2005 -0.1125  0.1789
17143TIP3   OH272843   2.161   1.776   1.304 -0.0484 -0.2795  0.3191
17143TIP3    H172844   2.159   1.695   1.252 -0.1987  0.6734 -1.2081
17143TIP3    H272845   2.250   1.808   1.294 -1.2107  2.2384 -3.1340
17144TIP3   OH272846   3.071   2.323   5.174  0.1862  0.9888 -0.6775
17144TIP3    H172847   3.071   2.356   5.084 -0.2898  1.2268 -0.5889
17144TIP3    H272848   3.144   2.370   5.216  2.5274 -1.4959 -1.7973
17145TIP3   OH272849   2.774   1.081  17.004 -0.6435  0.0332 -0.5343
17145TIP3    H172850   2.850   1.097  16.949 -0.2247 -0.5804 -0.1394
17145TIP3    H272851   2.776   0.987  17.022  0.4318  0.5249  2.2308
17146TIP3   OH272852   3.449   5.712  12.933 -0.4884 -0.0939 -0.3948
17146TIP3    H172853   3.393   5.637  12.914  0.0327 -0.9198  1.2382
17146TIP3    H272854   3.523   5.703  12.872  0.1190 -1.5296  0.5302
17147TIP3   OH272855   2.640   1.900  17.118  0.0215 -0.6617 -0.3758
17147TIP3    H172856   2.712   1.924  17.177 -0.4245  0.5858 -0.3177
17147TIP3    H272857   2.623   1.980  17.068 -1.5431 -0.8608 -0.1716
17148TIP3   OH272858   1.539   4.356   1.250 -0.5783  0.5035 -0.6237
17148TIP3    H172859   1.528   4.268   1.286 -0.0420  0.1746 -1.2504
17148TIP3    H272860   1.498   4.413   1.314  0.1448 -0.0987  0.4007
17149TIP3   OH272861   0.155   6.695  12.013 -0.3977  0.4393  0.3042
17149TIP3    H172862   0.070   6.733  12.034 -0.9816 -1.1447  0.9317
17149TIP3    H272863   0.140   6.600  12.015  1.5236  0.1159  1.0868
17150TIP3   OH272864   6.178   6.233  11.760  0.0079  0.6749 -0.6117
17150TIP3    H172865   6.109   6.223  11.695 -1.7287  1.1080  1.1444
17150TIP3    H272866   6.187   6.328  11.771 -1.6011  0.5769  1.7518
17151TIP3   OH272867   5.673   1.206  11.599  0.3880 -0.0868  0.1917
17151TIP3    H172868   5.750   1.263  11.588  0.2156  0.2107  0.4972
17151TIP3    H272869   5.609   1.240  11.535  0.8129 -0.8665 -0.6497
17152TIP3   OH272870   4.358   1.669  11.391 -0.0100  0.2571  0.4056
17152TIP3    H172871   4.386   1.627  11.310  2.2838  0.9832  0.7810
17152TIP3    H272872   4.359   1.763  11.370  0.6573  0.4512  1.2714
17153TIP3   OH272873   6.645   6.541   1.995 -0.0129  0.0011 -0.1952
17153TIP3    H172874   6.672   6.609   1.934 -1.5194  2.0420  1.3421
17153TIP3    H272875   6.554   6.522   1.970 -0.0110 -0.5393  0.2039
17154TIP3   OH272876   4.684   4.936  14.276 -0.1755  0.0294 -0.0978
17154TIP3    H172877   4.624   4.875  14.320 -0.9314  0.4402 -0.5578
17154TIP3    H272878   4.757   4.880  14.247 -1.2874 -0.8107 -1.3108
17155TIP3   OH272879   5.247   3.377  15.888  0.2530  0.1173 -0.3102
17155TIP3    H172880   5.253   3.427  15.807 -0.1442  2.3973  0.9972
17155TIP3    H272881   5.153   3.378  15.910  0.4517  0.2714  0.5771
17156TIP3   OH272882   2.648   1.404  13.252  0.5350  0.1012 -0.1564
17156TIP3    H172883   2.560   1.406  13.289  0.7550 -1.6524  0.5270
17156TIP3    H272884   2.638   1.360  13.168  0.5654  1.1100 -0.6998
17157TIP3   OH272885   1.386   5.565  16.271 -0.1258 -0.3229  0.5236
17157TIP3    H172886   1.303   5.608  16.250  0.0975  0.2331  0.7577
17157TIP3    H272887   1.420   5.613  16.347  0.5148 -0.3961  0.2915
17158TIP3   OH272888   6.109   5.727   1.299 -0.8240 -0.0432 -0.2988
17158TIP3    H172889   6.057   5.808   1.302  0.6238  0.9187 -0.8896
17158TIP3    H272890   6.172   5.737   1.370 -1.6930 -1.4070  0.6952
17159TIP3   OH272891   6.688   4.880   5.326 -0.5049  0.0744  0.3922
17159TIP3    H172892   6.718   4.969   5.340 -0.0463  0.0895 -0.6300
17159TIP3    H272893   6.612   4.870   5.384  0.7354  0.4294  2.1136
17160TIP3   OH272894   6.686   1.708   5.464  0.5353  0.3467  0.1947
17160TIP3    H172895   6.599   1.700   5.503  0.9125 -1.3766  0.7206
17160TIP3    H272896   6.740   1.645   5.511  1.4711 -0.4133 -1.8192
17161TIP3   OH272897   4.519   4.916  13.647 -0.0883 -0.2662 -0.4520
17161TIP3    H172898   4.591   4.972  13.618 -2.7628  1.7456 -3.6572
17161TIP3    H272899   4.541   4.829  13.614  0.6351  0.4555 -1.9267
17162TIP3   OH272900   0.774   6.548  11.954 -0.6900  0.0003  0.2874
17162TIP3    H172901   0.860   6.554  11.912 -1.4146  1.0233 -1.1032
17162TIP3    H272902   0.790   6.578  12.044  0.3908  0.2934  0.0122
17163TIP3   OH272903   6.519   4.118   2.418 -0.4309  0.3571 -0.2035
17163TIP3    H172904   6.598   4.094   2.465 -0.9650 -0.3757  0.3179
17163TIP3    H272905   6.533   4.086   2.329 -0.8987 -1.4219  0.3408
17164TIP3   OH272906   4.017   6.098  16.952 -0.8003  0.4037  0.1833
17164TIP3    H172907   4.094   6.042  16.937  1.0184  2.6763  0.6803
17164TIP3    H272908   4.006   6.146  16.870 -1.0330  0.8411  0.4676
17165TIP3   OH272909   3.020   5.354   2.662 -0.5802  0.0048  0.4094
17165TIP3    H172910   3.067   5.326   2.583  1.5461 -0.6615  1.8723
17165TIP3    H272911   3.000   5.447   2.646  1.2512  0.2982 -0.2574
17166TIP3   OH272912   1.013   0.688   0.366  0.7146 -0.2005  0.1970
17166TIP3    H172913   1.052   0.734   0.292  0.0643 -1.9812 -1.3002
17166TIP3    H272914   1.084   0.633   0.400  1.6390  2.2034  2.3050
17167TIP3   OH272915   5.826   1.236  16.025  0.2898  0.0910  0.6883
17167TIP3    H172916   5.872   1.297  15.967 -1.2375 -0.1551 -0.8049
17167TIP3    H272917   5.734   1.261  16.019 -0.3773 -2.3818 -0.0225
17168TIP3   OH272918   2.335   6.117   0.385  0.1098 -0.0151 -0.3826
17168TIP3    H172919   2.246   6.114   0.420 -0.2328  0.6275 -1.1945
17168TIP3    H272920   2.347   6.207   0.355  1.2100  0.0359  0.1630
17169TIP3   OH272921   2.174   6.240  10.736  0.3530 -0.1639 -0.0097
17169TIP3    H172922   2.118   6.301  10.687  0.9444  1.5556  1.3966
17169TIP3    H272923   2.170   6.159  10.686 -1.5242  0.6269 -1.2139
17170TIP3   OH272924   5.218   4.798   0.121  0.7346 -0.7410 -0.2869
17170TIP3    H172925   5.153   4.864   0.145  1.1596 -0.0128 -1.1141
17170TIP3    H272926   5.266   4.782   0.202  1.9977  1.5223 -0.5240
17171TIP3   OH272927   2.897   4.450  14.417 -0.0103  0.0546 -0.1169
17171TIP3    H172928   2.878   4.359  14.440  0.2206  0.2263  0.7772
17171TIP3    H272929   2.927   4.446  14.326  2.2890 -1.0928  0.6495
17172TIP3   OH272930   4.648   0.712   3.521  0.1787  0.2791 -0.7576
17172TIP3    H172931   4.648   0.710   3.617 -0.9896  0.6169 -0.7442
17172TIP3    H272932   4.580   0.650   3.496 -0.3312  1.0703 -1.3431
17173TIP3   OH272933   4.936   2.952  12.410  0.3310  0.0298  0.6882
17173TIP3    H172934   5.029   2.944  12.432  0.0946  0.9070  2.0847
17173TIP3    H272935   4.911   3.037  12.447 -0.8744  0.0851 -0.2437
17174TIP3   OH272936   6.778   1.383  16.364 -0.4828 -0.1154  0.4458
17174TIP3    H172937   6.810   1.467  16.397  2.0572 -0.9163  0.0574
17174TIP3    H272938   6.767   1.329  16.442 -0.5137  0.0204  0.5368
17175TIP3   OH272939   5.144   5.700   4.813 -0.2223 -0.1867 -0.4615
17175TIP3    H172940   5.224   5.663   4.776  0.4830  0.0024  0.8530
17175TIP3    H272941   5.172   5.742   4.894 -1.2734  1.9798 -1.1872
17176TIP3   OH272942   6.529   5.771   2.056 -0.2225  0.1745 -0.4968
17176TIP3    H172943   6.596   5.831   2.022 -0.3240  0.9982  0.7488
17176TIP3    H272944   6.566   5.737   2.137 -1.0120  0.0811 -0.1722
17177TIP3   OH272945   3.113   1.767  15.484  0.8745  0.1025 -0.2709
17177TIP3    H172946   3.095   1.706  15.413  0.3769  0.8419 -0.7968
17177TIP3    H272947   3.208   1.776  15.484  0.8631  0.2700 -0.9972
17178TIP3   OH272948   3.666   0.771   2.673 -0.5288  0.0508  0.0481
17178TIP3    H172949   3.720   0.775   2.752 -0.2733  1.0057 -0.1651
17178TIP3    H272950   3.725   0.740   2.605 -0.5609 -0.0761  0.0787
17179TIP3   OH272951   4.980   6.603   1.669 -0.3549 -0.1624 -0.5723
17179TIP3    H172952   4.997   6.561   1.585 -1.3832 -0.8816 -0.4310
17179TIP3    H272953   5.050   6.667   1.678  0.9126 -1.4617 -1.0499
17180TIP3   OH272954   2.182   4.475  13.842  0.3772 -0.3963  0.7514
17180TIP3    H172955   2.115   4.542  13.827 -0.8486 -1.7988 -0.2640
17180TIP3    H272956   2.260   4.524  13.867 -0.3506  1.4423 -0.4371
17181TIP3   OH272957   5.903   1.980   5.816 -0.4931  0.2853 -0.1585
17181TIP3    H172958   5.814   1.961   5.846 -0.3455 -0.8558 -0.3895
17181TIP3    H272959   5.897   2.064   5.772 -1.3708  0.4238  0.2204
17182TIP3   OH272960   1.101   0.408   0.050  0.5738  0.4506  0.3415
17182TIP3    H172961   1.054   0.399   0.133  2.4335  0.2774  1.3899
17182TIP3    H272962   1.109   0.502   0.037  0.4794  0.4767  0.4735
17183TIP3   OH272963   1.077   1.671   2.127 -0.1124 -0.6254  0.0547
17183TIP3    H172964   1.023   1.708   2.058 -0.1011 -0.1911  0.2781
17183TIP3    H272965   1.150   1.629   2.081  0.6407  0.8658 -0.1320
17184TIP3   OH272966   4.732   0.051   1.885 -0.5569 -0.5055 -0.8424
17184TIP3    H172967   4.727   0.141   1.854 -3.3262 -0.4622 -0.3334
17184TIP3    H272968   4.765   0.057   1.974 -1.0342  0.0083 -0.7057
17185TIP3   OH272969   1.942   1.339   2.712  0.0722 -0.1496 -0.3042
17185TIP3    H172970   1.973   1.429   2.723 -0.1951  0.1000 -1.5246
17185TIP3    H272971   1.883   1.325   2.786 -0.3326  0.8763 -0.4260
17186TIP3   OH272972   2.366   4.373   5.098  0.0388 -0.1527 -0.1603
17186TIP3    H172973   2.294   4.322   5.134  0.4382 -1.5409 -1.2705
17186TIP3    H272974   2.325   4.431   5.034 -0.3918  0.7786  0.9554
17187TIP3   OH272975   0.640   3.532  11.364  0.2085  0.0510  0.5584
17187TIP3    H172976   0.571   3.532  11.431  0.7771 -2.5256  1.2101
17187TIP3    H272977   0.617   3.459  11.306  2.7444 -1.3205  1.2029
17188TIP3   OH272978   3.865   0.457   3.716 -0.4453 -0.1331 -0.1947
17188TIP3    H172979   3.877   0.550   3.697 -2.0335  0.2063  0.3489
17188TIP3    H272980   3.798   0.455   3.785  0.2119 -1.6431  0.4235
17189TIP3   OH272981   6.027   5.213  11.374 -0.2514 -0.2128  0.0989
17189TIP3    H172982   5.982   5.160  11.308  0.3505  2.3968 -2.4964
17189TIP3    H272983   6.120   5.195  11.361 -0.2400 -2.0673  2.3866
17190TIP3   OH272984   3.738   1.174   4.620 -0.5329 -0.0524  0.0714
17190TIP3    H172985   3.796   1.209   4.552  1.5447  0.9995  2.3167
17190TIP3    H272986   3.757   1.080   4.623  0.4849  0.1565  0.2381
17191TIP3   OH272987   4.285   3.730   5.779 -0.0430 -0.1759 -0.2014
17191TIP3    H172988   4.370   3.774   5.780  1.0091 -2.1653  0.0391
17191TIP3    H272989   4.240   3.768   5.703  1.1325  0.7454 -0.4602
17192TIP3   OH272990   5.474   0.098  11.812 -0.5755  0.2659 -0.4873
17192TIP3    H172991   5.401   0.051  11.771 -1.1530  0.3062  0.5032
17192TIP3    H272992   5.552   0.049  11.785 -1.2001 -1.4344  0.7896
17193TIP3   OH272993   5.050   4.457  13.659  0.6075  0.1691  0.1436
17193TIP3    H172994   5.073   4.404  13.735  0.7905  2.1552  1.5196
17193TIP3    H272995   5.125   4.450  13.600  1.5634  0.6132  1.2832
17194TIP3   OH272996   3.392   4.720  11.963 -0.0790 -0.4115 -0.6277
17194TIP3    H172997   3.329   4.656  11.929 -1.2453  0.9885 -1.1390
17194TIP3    H272998   3.449   4.669  12.021 -2.2816 -1.5178  0.6021
17195TIP3   OH272999   4.901   5.730   3.632 -0.4922  0.1456 -0.7125
17195TIP3    H173000   4.892   5.674   3.709  1.8296 -2.7683 -2.4530
17195TIP3    H273001   4.811   5.743   3.602 -1.3338  0.2909  1.7437
17196TIP3   OH273002   1.979   5.042   4.237 -0.9202 -0.1147 -0.5010
17196TIP3    H173003   1.909   4.979   4.222 -0.6337 -0.3234 -0.9765
17196TIP3    H273004   1.966   5.109   4.170 -0.8594  0.0104 -0.3871
17197TIP3   OH273005   3.440   2.760  16.241  0.0974  0.2029 -0.5274
17197TIP3    H173006   3.478   2.818  16.175 -1.3340  0.6208 -0.9902
17197TIP3    H273007   3.485   2.784  16.322  0.4806  1.0153 -0.9731
17198TIP3   OH273008   1.735   1.402  16.506 -0.1751 -0.3495 -0.2793
17198TIP3    H173009   1.724   1.460  16.432 -0.2163  0.5455  0.4226
17198TIP3    H273010   1.669   1.333  16.494 -0.3061 -0.0995 -0.9584
17199TIP3   OH273011   3.041   5.084  10.753  0.0712  0.2372 -0.2714
17199TIP3    H173012   2.988   5.158  10.723  2.0921  1.7859 -0.0669
17199TIP3    H273013   3.077   5.111  10.837 -2.8150 -2.7879  2.0997
17200TIP3   OH273014   1.868   2.895   3.423 -0.4887 -0.2183  0.4151
17200TIP3    H173015   1.877   2.864   3.513  0.1395 -1.3600 -0.0234
17200TIP3    H273016   1.901   2.985   3.425 -0.1538 -0.3545  1.2590
17201TIP3   OH273017   5.686   1.826  10.887  0.0380  0.7170  0.6432
17201TIP3    H173018   5.635   1.779  10.953 -0.1494 -1.0298 -0.7195
17201TIP3    H273019   5.686   1.917  10.918 -3.6945  0.7423  0.8408
17202TIP3   OH273020   1.656   1.963  11.652  0.0370  0.0588 -0.2280
17202TIP3    H173021   1.563   1.983  11.659  0.0690  0.8075 -1.6645
17202TIP3    H273022   1.679   1.986  11.561  2.3263  2.8754  0.9863
17203TIP3   OH273023   1.928   6.691   4.739 -0.4329 -0.4675  0.1015
17203TIP3    H173024   1.891   6.711   4.653 -2.1668 -0.0986  0.9229
17203TIP3    H273025   1.919   6.596   4.748  0.4885 -0.6196 -0.4370
17204TIP3   OH273026   4.883   0.387   2.027  0.2798  0.5165 -0.0457
17204TIP3    H173027   4.832   0.365   1.949 -0.3151 -0.1704  0.5237
17204TIP3    H273028   4.940   0.459   2.000 -0.8279  1.1228 -0.7520
17205TIP3   OH273029   0.981   4.691  16.029 -0.4942 -0.3350 -0.2809
17205TIP3    H173030   1.053   4.692  15.966  0.2002  3.3285  0.4797
17205TIP3    H273031   0.912   4.642  15.985  0.8613 -0.0174 -2.8650
17206TIP3   OH273032   4.518   4.075  13.747  0.8170  0.3947  0.3532
17206TIP3    H173033   4.530   4.000  13.689  1.8279  0.4355  0.5070
17206TIP3    H273034   4.494   4.037  13.831  0.0423  0.3081  0.1014
17207TIP3   OH273035   2.378   1.825  17.151 -0.6121  0.0188 -0.4140
17207TIP3    H173036   2.379   1.774  17.070  0.7466  1.7332 -1.5303
17207TIP3    H273037   2.469   1.854  17.162 -0.8691  0.1475  1.5129
17208TIP3   OH273038   2.187   4.730  16.932 -0.0558 -0.5446 -0.1747
17208TIP3    H173039   2.188   4.691  17.019  1.4770 -2.8024 -1.1608
17208TIP3    H273040   2.110   4.693  16.890 -0.2790 -0.1783 -0.0870
17209TIP3   OH273041   5.030   3.559   1.050  0.3680 -0.1550 -0.0286
17209TIP3    H173042   5.097   3.493   1.033  0.5175 -0.0720  0.2358
17209TIP3    H273043   5.074   3.626   1.101  0.4390  0.5533 -0.9953
17210TIP3   OH273044   3.066   4.083   2.472 -0.5635  0.1968  0.7321
17210TIP3    H173045   2.981   4.059   2.508 -1.1634 -1.1182 -1.4234
17210TIP3    H273046   3.090   4.009   2.415  0.0962  2.3105 -1.8458
17211TIP3   OH273047   5.190   4.825  13.424 -0.8876  0.0858 -0.3883
17211TIP3    H173048   5.182   4.861  13.512 -0.7713  0.9806 -0.7419
17211TIP3    H273049   5.105   4.785  13.407 -1.1822  0.6143 -0.1748
17212TIP3   OH273050   5.462   2.084   0.024 -0.0424  0.1066 -0.1269
17212TIP3    H173051   5.500   2.033  -0.048  0.0690 -0.3182  0.2339
17212TIP3    H273052   5.415   2.019   0.076  1.2321  0.1559  1.0979
17213TIP3   OH273053   6.179   3.124  17.231 -0.5053  0.4677  0.4527
17213TIP3    H173054   6.100   3.133  17.178  1.1021 -1.7011 -2.4419
17213TIP3    H273055   6.169   3.040  17.276  0.3846 -0.0873 -0.3666
17214TIP3   OH273056   1.124   2.137  15.550  0.0485 -0.8515  0.1035
17214TIP3    H173057   1.195   2.102  15.496  2.4592  0.7376  2.0630
17214TIP3    H273058   1.075   2.061  15.579  2.1184 -2.1792  0.2067
17215TIP3   OH273059   5.378   3.048  14.637 -0.4989  0.2664 -0.5431
17215TIP3    H173060   5.400   3.087  14.722 -0.3470 -2.8462  0.9302
17215TIP3    H273061   5.339   3.120  14.587 -0.7775  2.1349  2.2173
17216TIP3   OH273062   4.748   0.373  14.136 -0.2413 -0.0110  0.3881
17216TIP3    H173063   4.832   0.391  14.095  0.6698 -1.9153  1.3672
17216TIP3    H273064   4.740   0.278  14.136 -1.5241  0.0585  2.0185
17217TIP3   OH273065   3.332   5.671  16.760  0.5401  0.3154  0.1317
17217TIP3    H173066   3.398   5.614  16.800  1.2691  0.7565 -0.4342
17217TIP3    H273067   3.249   5.643  16.799  0.9233 -0.9708  0.0400
17218TIP3   OH273068   4.243   3.125  10.740  0.2165 -0.0409  0.8680
17218TIP3    H173069   4.304   3.077  10.685  1.1982 -0.3120  2.1630
17218TIP3    H273070   4.169   3.146  10.682  0.4661 -1.7631 -0.1160
17219TIP3   OH273071   1.577   1.078   5.606  0.3478  0.7487 -0.0371
17219TIP3    H173072   1.518   1.021   5.558  1.5676 -0.8282  0.3123
17219TIP3    H273073   1.555   1.062   5.698  0.7092  0.8206  0.0613
17220TIP3   OH273074   3.133   2.372   1.396  0.7000 -0.1949 -0.1715
17220TIP3    H173075   3.176   2.450   1.363 -0.3604  0.1380 -0.8114
17220TIP3    H273076   3.194   2.335   1.460  1.5381  0.7251 -0.4358
17221TIP3   OH273077   0.369   4.281   4.224 -0.3958 -0.1274  0.1703
17221TIP3    H173078   0.354   4.216   4.293  1.8540 -0.6772  0.2000
17221TIP3    H273079   0.338   4.364   4.262 -0.5340 -0.6791  1.2839
17222TIP3   OH273080   3.530   1.898   2.855 -0.2036 -0.0303  0.3588
17222TIP3    H173081   3.604   1.873   2.800 -0.9248 -2.0718  0.2663
17222TIP3    H273082   3.569   1.920   2.940  0.6331  0.3376 -0.1135
17223TIP3   OH273083   1.524   2.556   4.929 -0.2073 -0.2307 -0.2626
17223TIP3    H173084   1.468   2.610   4.984 -1.1353 -0.9218 -0.4962
17223TIP3    H273085   1.593   2.525   4.987  0.0057  0.7429 -0.0005
17224TIP3   OH273086   6.248   6.554  16.534  0.1996 -0.2361  0.8084
17224TIP3    H173087   6.264   6.643  16.564 -0.7383  0.2994 -0.2353
17224TIP3    H273088   6.309   6.500  16.584 -0.5735  0.7495  2.8611
17225TIP3   OH273089   2.734   3.753   4.750 -0.7627 -0.0838 -0.5000
17225TIP3    H173090   2.640   3.738   4.735 -1.1284  0.9376  0.6685
17225TIP3    H273091   2.737   3.804   4.831  0.8619 -0.9333 -0.0131
17226TIP3   OH273092   1.254   0.729   0.976  0.3613 -0.7045  0.9957
17226TIP3    H173093   1.230   0.655   0.920  0.2988 -0.1537  0.2870
17226TIP3    H273094   1.341   0.755   0.945  0.5591 -0.7389  1.5147
17227TIP3   OH273095   4.215   1.025   5.734  0.2419  0.2552 -0.6426
17227TIP3    H173096   4.291   0.975   5.763 -0.6117 -0.4479  0.4486
17227TIP3    H273097   4.234   1.115   5.759  0.2649 -0.0828  0.5869
17228TIP3   OH273098   3.330   5.978   0.084  0.0071  0.1501 -0.1294
17228TIP3    H173099   3.383   5.963   0.163  0.0205 -0.4302 -0.2450
17228TIP3    H273100   3.296   6.067   0.095  1.6626  0.8392 -0.4477
17229TIP3   OH273101   2.381   0.582  15.632 -0.3548 -0.1895 -0.2011
17229TIP3    H173102   2.436   0.522  15.683 -1.6325  0.3042  1.8229
17229TIP3    H273103   2.415   0.576  15.543  1.7142 -1.3607  0.6301
17230TIP3   OH273104   6.596   0.102   1.966 -0.7180 -0.1773 -0.8572
17230TIP3    H173105   6.689   0.117   1.951 -0.5369 -1.7083 -1.3720
17230TIP3    H273106   6.584   0.117   2.060  0.4729 -2.0715 -0.3867
17231TIP3   OH273107   1.285   2.526   1.552 -0.0562  0.1471 -0.4965
17231TIP3    H173108   1.342   2.491   1.620  1.2030  0.6525 -1.2709
17231TIP3    H273109   1.331   2.508   1.470 -2.0509 -1.4341 -1.3267
17232TIP3   OH273110   2.837   0.371   5.068  0.2488 -0.7117 -0.0320
17232TIP3    H173111   2.895   0.384   5.143  1.1009 -1.3712 -0.5659
17232TIP3    H273112   2.873   0.294   5.023 -1.4506 -1.5543  0.0162
17233TIP3   OH273113   6.123   2.812  12.713  0.3702  0.1378  0.2422
17233TIP3    H173114   6.052   2.874  12.729 -0.8036 -1.3302  0.7603
17233TIP3    H273115   6.176   2.854  12.645 -0.3363  1.7616  0.6642
17234TIP3   OH273116   6.634   4.852   3.512  0.0336  0.0278 -0.4908
17234TIP3    H173117   6.607   4.915   3.579  0.8862 -0.0102 -0.1060
17234TIP3    H273118   6.552   4.823   3.472 -0.4447  0.4354  0.1825
17235TIP3   OH273119   1.039   2.141  16.588  0.6440 -0.0056 -0.2625
17235TIP3    H173120   0.969   2.203  16.571 -1.1344 -1.5350  1.3055
17235TIP3    H273121   1.061   2.105  16.502 -0.6208  0.3544 -0.7467
17236TIP3   OH273122   4.069   0.331  14.644 -0.1709 -0.0256 -0.6128
17236TIP3    H173123   4.062   0.373  14.730 -2.3070 -0.3147 -0.6174
17236TIP3    H273124   4.058   0.237  14.662  3.3148 -0.5422 -0.7609
17237TIP3   OH273125   1.582   0.195  12.912  0.2104 -0.1166  0.5048
17237TIP3    H173126   1.603   0.284  12.885  0.1624  0.1084  1.1845
17237TIP3    H273127   1.557   0.203  13.004 -0.1218 -0.7825  0.4829
17238TIP3   OH273128   2.747   3.089   0.516 -0.2990 -0.0606 -0.2082
17238TIP3    H173129   2.670   3.040   0.489 -0.0112 -0.2622 -0.6702
17238TIP3    H273130   2.807   3.082   0.442 -1.6300  3.9429 -1.8200
17239TIP3   OH273131   3.994   3.217  16.056 -0.2266  0.1074  0.7709
17239TIP3    H173132   3.960   3.301  16.089 -1.2659  0.0072  0.0046
17239TIP3    H273133   3.973   3.218  15.963  0.2137 -0.7941  0.6605
17240TIP3   OH273134   6.129   6.656   0.118 -0.9574  0.1413  0.2265
17240TIP3    H173135   6.069   6.677   0.047  0.2671 -1.0351 -1.2017
17240TIP3    H273136   6.206   6.711   0.101 -0.8841  0.2740  0.9723
17241TIP3   OH273137   6.271   4.338   3.166 -0.2819 -0.4138  0.1064
17241TIP3    H173138   6.202   4.405   3.169  0.1880  0.1210 -0.8408
17241TIP3    H273139   6.223   4.256   3.153 -0.5939  0.3401 -4.2510
17242TIP3   OH273140   3.874   5.995   2.014 -0.3794 -0.1157 -0.3582
17242TIP3    H173141   3.926   5.921   2.046 -1.7705 -1.1612 -0.4558
17242TIP3    H273142   3.880   5.988   1.918 -1.4920 -0.8416 -0.3891
17243TIP3   OH273143   0.585   1.191   5.484 -0.0117  0.4920  0.3159
17243TIP3    H173144   0.603   1.265   5.425 -0.1552 -0.7358 -1.2949
17243TIP3    H273145   0.491   1.199   5.504  0.3713  1.8128  1.6516
17244TIP3   OH273146   0.809   1.038   1.839 -0.0297 -0.0451  0.6534
17244TIP3    H173147   0.786   1.080   1.922 -0.3545  2.2220 -0.5431
17244TIP3    H273148   0.876   0.974   1.862  0.2428  0.9124  2.5973
17245TIP3   OH273149   4.524   6.681   1.954 -0.5593 -0.1225  0.2077
17245TIP3    H173150   4.579   6.612   1.990 -1.4235  0.0997  2.0326
17245TIP3    H273151   4.584   6.751   1.929 -0.0801  0.7324  3.5550
17246TIP3   OH273152   3.845   0.630  14.471 -0.2957  0.0133  0.0658
17246TIP3    H173153   3.895   0.555  14.439  0.8974 -0.2960  2.5745
17246TIP3    H273154   3.756   0.596  14.481  0.2046 -1.0506  1.0343
17247TIP3   OH273155   5.694   1.806  11.731  0.2325 -0.1076 -0.3361
17247TIP3    H173156   5.782   1.842  11.725 -0.0920  0.4242 -2.3127
17247TIP3    H273157   5.701   1.720  11.690 -0.2436  0.0970 -0.8513
17248TIP3   OH273158   4.150   1.780  15.590 -0.2006  0.4320  0.0902
17248TIP3    H173159   4.144   1.822  15.505  1.6806  0.9191  0.1839
17248TIP3    H273160   4.222   1.825  15.634  0.7974 -1.8009  0.7942
17249TIP3   OH273161   0.079   6.232   1.183  0.3259 -0.0185  0.9860
17249TIP3    H173162   0.110   6.142   1.167  1.0601  0.2563  0.8409
17249TIP3    H273163   0.158   6.280   1.210 -0.1283  0.5034  1.4028
17250TIP3   OH273164   6.122   1.246   0.514 -0.3616  0.3270 -0.2686
17250TIP3    H173165   6.112   1.341   0.504  1.1290  0.6714  1.0990
17250TIP3    H273166   6.129   1.233   0.609 -0.7746 -1.1767 -0.4335
17251TIP3   OH273167   4.252   2.603   0.534  0.8858  0.0337 -0.6013
17251TIP3    H173168   4.188   2.536   0.560  2.6396 -1.9280 -1.2126
17251TIP3    H273169   4.226   2.681   0.584 -0.5909 -1.3732  0.9141
17252TIP3   OH273170   3.409   4.760  11.680  0.1971  0.2360  0.6304
17252TIP3    H173171   3.445   4.706  11.750 -0.0598  0.4892  0.9589
17252TIP3    H273172   3.461   4.737  11.603 -0.8034 -1.5143  0.4349
17253TIP3   OH273173   1.747   6.459  16.745  0.3591 -0.1898  0.2201
17253TIP3    H173174   1.652   6.446  16.737  0.2520 -0.5254  1.9151
17253TIP3    H273175   1.784   6.403  16.676 -0.7356  1.4498 -1.7745
17254TIP3   OH273176   2.446   5.582  12.905  0.1163 -0.7820 -0.0751
17254TIP3    H173177   2.510   5.532  12.854  1.1105  0.4197 -0.0194
17254TIP3    H273178   2.497   5.621  12.976 -0.9348 -0.9395  0.7836
17255TIP3   OH273179   6.698   4.717   1.264  0.3822 -0.5225  0.0771
17255TIP3    H173180   6.633   4.722   1.334  0.4409  1.5723 -0.0056
17255TIP3    H273181   6.779   4.748   1.304  0.4438  0.5697 -0.8820
17256TIP3   OH273182   0.463   5.375   3.651  0.2366 -0.4519 -0.0965
17256TIP3    H173183   0.518   5.356   3.574  0.8633 -1.1348  0.5136
17256TIP3    H273184   0.399   5.439   3.619 -0.1185 -1.4455 -1.4392
17257TIP3   OH273185   3.622   0.877   0.763 -0.5403 -0.2192  0.3444
17257TIP3    H173186   3.579   0.930   0.695 -0.7502 -1.9151 -0.8798
17257TIP3    H273187   3.610   0.786   0.734 -1.2772 -1.0165  3.0722
17258TIP3   OH273188   3.507   5.496  15.106  1.3146  0.4929 -0.0107
17258TIP3    H173189   3.437   5.485  15.171  1.2947  1.4773  0.1505
17258TIP3    H273190   3.535   5.407  15.085  1.2398  0.1527  1.2734
17259TIP3   OH273191   4.693   6.197   2.498  1.0158 -0.1146 -0.3989
17259TIP3    H173192   4.675   6.155   2.414 -0.7875  0.8697 -0.5464
17259TIP3    H273193   4.607   6.227   2.528  1.9796  1.6903  0.6374
17260TIP3   OH273194   2.153   0.422  11.060 -0.3944 -0.5609 -0.1711
17260TIP3    H173195   2.075   0.458  11.018  0.3644 -0.0946 -1.2038
17260TIP3    H273196   2.191   0.364  10.995  0.6757 -0.0007 -0.0612
17261TIP3   OH273197   0.206   2.515  10.269 -0.0356  0.5452  0.4911
17261TIP3    H173198   0.245   2.555  10.346 -0.0115 -0.4382  0.9985
17261TIP3    H273199   0.252   2.555  10.195  0.8201  0.5629  1.0246
17262TIP3   OH273200   1.901   1.692   0.749 -0.1863 -0.4067  0.4605
17262TIP3    H173201   1.941   1.721   0.832  0.1895 -0.5599  0.3358
17262TIP3    H273202   1.962   1.722   0.682 -1.6210  1.7298  0.0724
17263TIP3   OH273203   0.158   4.895  16.115  0.0044 -0.1563 -0.2839
17263TIP3    H173204   0.220   4.826  16.092  0.3199 -0.0829  0.3347
17263TIP3    H273205   0.127   4.872  16.202  2.0195  1.7983  1.0007
17264TIP3   OH273206   1.625   0.535  13.686  0.4451  0.0582  0.9904
17264TIP3    H173207   1.600   0.446  13.661  0.4002  0.0799  0.9560
17264TIP3    H273208   1.621   0.536  13.782  0.4749  0.0156  0.9912
17265TIP3   OH273209   0.449   6.644  15.801 -0.7363 -0.2952  0.1979
17265TIP3    H173210   0.463   6.730  15.761  1.0645  0.2890  1.9880
17265TIP3    H273211   0.480   6.582  15.735 -1.6758  0.4374 -0.9526
17266TIP3   OH273212   4.421   0.688  13.262  0.1198 -0.9309 -0.1799
17266TIP3    H173213   4.371   0.728  13.333  0.3404 -0.5908 -0.2136
17266TIP3    H273214   4.360   0.627  13.221  0.4516 -2.2531  1.2609
17267TIP3   OH273215   5.352   2.558   4.677  0.2065 -0.0170  0.3610
17267TIP3    H173216   5.334   2.580   4.585  0.6017 -0.7515  0.1068
17267TIP3    H273217   5.413   2.627   4.706  0.2102  0.1238  0.0270
17268TIP3   OH273218   0.656   4.500   0.106 -0.1696  0.2975 -0.1492
17268TIP3    H173219   0.702   4.431   0.154 -1.9139  0.2614  1.5345
17268TIP3    H273220   0.712   4.517   0.030  1.7491 -0.9227  0.9241
17269TIP3   OH273221   5.157   6.416  14.012  0.0571  0.1208 -0.4536
17269TIP3    H173222   5.106   6.385  14.086 -0.7760 -0.0036 -1.0658
17269TIP3    H273223   5.134   6.356  13.941 -0.6446  1.4260 -1.3378
17270TIP3   OH273224   6.651   6.122  17.083  0.4923  0.1486  0.1986
17270TIP3    H173225   6.696   6.205  17.071  1.2100 -0.2254  0.2553
17270TIP3    H273226   6.579   6.142  17.143  0.8872  0.6559  0.5096
17271TIP3   OH273227   3.922   2.244  11.076  0.0549 -0.3296 -0.8067
17271TIP3    H173228   3.914   2.151  11.059  0.3162 -0.3989 -0.5564
17271TIP3    H273229   4.012   2.256  11.107 -0.7547 -0.4079  1.6711
17272TIP3   OH273230   0.189   2.376  11.108  0.2795  0.4101  0.1153
17272TIP3    H173231   0.171   2.295  11.061 -0.6984  1.6097 -1.6429
17272TIP3    H273232   0.107   2.397  11.152 -0.3764  1.8914 -1.7317
17273TIP3   OH273233   3.426   2.673  12.719 -0.5729  0.3278  0.5083
17273TIP3    H173234   3.429   2.624  12.801  0.4743  0.6932  0.6976
17273TIP3    H273235   3.484   2.748  12.734  2.4835 -1.4749 -1.7412
17274TIP3   OH273236   6.780   5.085   7.013 -0.4157 -0.5891 -0.5873
17274TIP3    H173237   6.823   5.061   6.931 -0.2236 -1.5165 -0.2190
17274TIP3    H273238   6.773   5.180   7.009  0.5770 -0.5343 -1.1928
17275TIP3   OH273239   2.493   5.692  10.808 -0.4709 -0.3507 -0.5095
17275TIP3    H173240   2.578   5.736  10.815 -0.8436  0.3739 -0.4557
17275TIP3    H273241   2.513   5.605  10.774  0.4723 -0.8117  1.2028
17276TIP3   OH273242   2.023   3.596   2.122  0.2213 -0.0839 -0.1985
17276TIP3    H173243   2.003   3.677   2.075 -2.2783 -1.9470 -2.5377
17276TIP3    H273244   2.045   3.533   2.053 -2.0345 -2.4897  1.1599
17277TIP3   OH273245   0.740   5.764  17.114 -0.2738  0.1686 -0.3458
17277TIP3    H173246   0.804   5.776  17.044 -1.7815  1.6086 -1.5321
17277TIP3    H273247   0.754   5.839  17.172  0.1459 -0.3494  0.2171
17278TIP3   OH273248   4.694   0.315   0.113 -0.0976 -0.4304 -0.0093
17278TIP3    H173249   4.747   0.360   0.047 -0.2028 -0.3506 -0.0401
17278TIP3    H273250   4.745   0.322   0.194  0.3624 -1.1389 -0.2271
17279TIP3   OH273251   5.799   5.238   4.324  0.7587 -0.2921  0.4547
17279TIP3    H173252   5.823   5.218   4.233  0.4806 -1.2440  0.5849
17279TIP3    H273253   5.803   5.153   4.369 -1.3678 -0.2274  0.8151
17280TIP3   OH273254   1.189   0.545   4.293 -0.1451 -0.6679  0.5059
17280TIP3    H173255   1.202   0.464   4.342  0.4981 -0.9712 -0.1553
17280TIP3    H273256   1.187   0.517   4.201  0.6662  0.1350  0.2407
17281TIP3   OH273257   2.489   3.790   4.000  0.0021  0.1570  0.3161
17281TIP3    H173258   2.434   3.725   4.044 -0.5856  1.1636  1.0902
17281TIP3    H273259   2.482   3.768   3.907  0.3491 -1.2989  0.6233
17282TIP3   OH273260   1.560   0.125   4.874 -0.5425 -0.1329 -0.3543
17282TIP3    H173261   1.624   0.192   4.848 -0.4071  0.0918  0.5485
17282TIP3    H273262   1.480   0.148   4.826 -0.6315  0.9486  0.2930
17283TIP3   OH273263   4.957   6.249   1.364 -0.5836 -0.1918 -0.3400
17283TIP3    H173264   4.945   6.340   1.390 -0.5156 -0.2222 -0.2070
17283TIP3    H273265   5.029   6.251   1.301  1.0714 -0.4760  1.4925
17284TIP3   OH273266   3.802   3.777   4.578  0.4407 -0.2288 -0.4748
17284TIP3    H173267   3.743   3.713   4.620 -2.2022  4.3774  3.4999
17284TIP3    H273268   3.888   3.758   4.615 -0.5076 -0.9289  1.4921
17285TIP3   OH273269   5.008   3.399  15.993  0.7391 -0.3009 -0.4007
17285TIP3    H173270   4.963   3.471  16.036 -0.6799 -1.2699 -0.2277
17285TIP3    H273271   4.942   3.331  15.985  1.9488 -1.4376 -0.9284
17286TIP3   OH273272   4.946   1.544   1.175 -0.7239  0.3114  0.1132
17286TIP3    H173273   4.914   1.475   1.232  0.0177 -0.0112  0.1436
17286TIP3    H273274   5.025   1.577   1.219  0.1222 -0.2560 -0.9477
17287TIP3   OH273275   4.326   4.305  11.575  0.0589  0.3310  0.3532
17287TIP3    H173276   4.305   4.264  11.659 -0.8105  0.1921  0.0742
17287TIP3    H273277   4.249   4.357  11.554  0.5068  0.8240 -0.0833
17288TIP3   OH273278   2.596   1.263   5.477  0.2165  0.3879  0.0361
17288TIP3    H173279   2.614   1.172   5.502 -2.2164  0.1303  0.9594
17288TIP3    H273280   2.663   1.314   5.521  2.7898 -1.0975 -2.0146
17289TIP3   OH273281   1.771   3.043   2.578 -0.4240 -0.2172 -0.5584
17289TIP3    H173282   1.688   3.089   2.588 -0.5461 -0.3070 -1.1013
17289TIP3    H273283   1.759   2.990   2.499  1.3348  2.3543 -2.6444
17290TIP3   OH273284   3.315   2.082  16.295  0.3342  0.2287  0.2865
17290TIP3    H173285   3.233   2.106  16.252  0.4814  0.5730  0.1946
17290TIP3    H273286   3.380   2.143  16.260  0.7652 -0.4566 -0.1217
17291TIP3   OH273287   4.347   4.924   5.565 -0.2006 -0.5964  0.0521
17291TIP3    H173288   4.340   5.003   5.618 -1.5529  0.2946 -1.4126
17291TIP3    H273289   4.290   4.861   5.608 -0.3470 -0.2736  0.3368
17292TIP3   OH273290   0.920   0.132   5.185 -0.3389  0.1052  0.5477
17292TIP3    H173291   0.860   0.080   5.132 -0.7436  1.2869 -0.1795
17292TIP3    H273292   0.871   0.212   5.205  0.5792  0.5804  0.9148
17293TIP3   OH273293   5.076   6.481   1.894  0.5331 -0.5239  0.2107
17293TIP3    H173294   5.049   6.515   1.979 -0.3858 -0.8654  0.0532
17293TIP3    H273295   5.034   6.539   1.830 -0.2196 -1.3430 -0.0416
17294TIP3   OH273296   6.141   0.494  12.005  0.2995 -0.2374 -0.0155
17294TIP3    H173297   6.224   0.458  12.037  1.3073 -0.0071 -2.2344
17294TIP3    H273298   6.128   0.451  11.920 -1.3181  0.5391 -0.1776
17295TIP3   OH273299   5.384   3.254  15.298  0.3362 -0.2720  0.0961
17295TIP3    H173300   5.356   3.172  15.256  0.0916 -0.8539  1.3547
17295TIP3    H273301   5.478   3.241  15.314 -0.0517 -1.0632  1.9089
17296TIP3   OH273302   2.914   4.518  12.319 -0.5007 -0.0163  0.3369
17296TIP3    H173303   2.979   4.563  12.373 -0.4180  0.2781 -0.0084
17296TIP3    H273304   2.959   4.500  12.237  0.4857 -3.5496  1.5707
17297TIP3   OH273305   2.401   5.719  14.932 -0.1226 -0.3740 -0.1561
17297TIP3    H173306   2.336   5.752  14.995  1.0238  1.8484 -0.0698
17297TIP3    H273307   2.480   5.708  14.984  0.2665 -0.5512 -0.7918
17298TIP3   OH273308   3.439   1.706  16.732  0.4628 -0.5735 -0.6304
17298TIP3    H173309   3.470   1.734  16.818  0.4839 -1.5879 -0.3126
17298TIP3    H273310   3.359   1.756  16.718 -0.6477 -1.9085  0.8520
17299TIP3   OH273311   5.425   3.467   3.136 -0.2685  0.2954  0.5832
17299TIP3    H173312   5.416   3.562   3.146  0.2486  0.5211 -0.8765
17299TIP3    H273313   5.510   3.456   3.092 -0.1481 -0.8654  1.1123
17300TIP3   OH273314   1.445   0.740  14.989  0.0781  0.6119  0.2499
17300TIP3    H173315   1.483   0.758  14.903  1.5875  0.4820  0.8730
17300TIP3    H273316   1.516   0.756  15.050 -1.1413  1.2274  1.5309
17301TIP3   OH273317   5.393   3.003  12.158  0.2772  0.2619  0.1639
17301TIP3    H173318   5.305   2.993  12.121  0.7720 -2.3319 -0.4116
17301TIP3    H273319   5.378   3.046  12.243 -1.3337  1.7112 -0.8257
17302TIP3   OH273320   2.514   2.362   4.488  0.1606 -0.6610 -0.2236
17302TIP3    H173321   2.449   2.328   4.548 -1.0843  0.7887 -0.7076
17302TIP3    H273322   2.584   2.395   4.544 -1.5358  1.8048  0.5650
17303TIP3   OH273323   2.391   3.881  14.693  0.4576  0.2190  0.4566
17303TIP3    H173324   2.296   3.882  14.686  0.6112  1.2833 -2.1923
17303TIP3    H273325   2.412   3.949  14.757 -0.5389  0.5782  0.3984
17304TIP3   OH273326   5.153   5.329  16.941  0.0322  0.1810  0.5264
17304TIP3    H173327   5.248   5.314  16.938  0.2253  1.1555  1.6325
17304TIP3    H273328   5.117   5.244  16.968  0.5976 -0.1798  0.1551
17305TIP3   OH273329   4.678   2.043   1.555 -0.4006  0.3689 -0.3887
17305TIP3    H173330   4.595   2.007   1.589  0.0296  0.9255  1.3169
17305TIP3    H273331   4.651   2.108   1.491 -1.2740 -0.0970 -0.5075
17306TIP3   OH273332   3.049   4.124   3.127 -0.0966  0.3818 -0.1754
17306TIP3    H173333   3.082   4.146   3.040 -1.0566  0.3006 -0.5649
17306TIP3    H273334   3.026   4.031   3.122  0.5990  0.1775  0.4023
17307TIP3   OH273335   6.750   5.350   0.402 -0.1472  0.4930  0.9087
17307TIP3    H173336   6.678   5.404   0.434 -0.0356  0.5272  1.0996
17307TIP3    H273337   6.815   5.413   0.369 -0.8342  0.4321 -0.6302
17308TIP3   OH273338   6.277   3.234  12.456 -0.1757 -0.3943  0.5961
17308TIP3    H173339   6.266   3.283  12.537  0.0543  0.8801 -0.1391
17308TIP3    H273340   6.188   3.208  12.432 -0.7648  2.8852 -0.9880
17309TIP3   OH273341   2.664   6.308  11.956 -0.1608 -0.8321  0.8730
17309TIP3    H173342   2.737   6.352  11.998  1.1894 -2.0817 -0.1040
17309TIP3    H273343   2.590   6.321  12.016  0.7238  0.8956  1.6073
17310TIP3   OH273344   5.396   1.557  15.008  0.0424  0.6953 -0.0761
17310TIP3    H173345   5.468   1.506  14.971  1.3491  0.1360  3.1369
17310TIP3    H273346   5.317   1.512  14.977  1.1474 -2.4293  1.4927
17311TIP3   OH273347   2.987   6.335  15.519  0.6529 -0.3153  0.1806
17311TIP3    H173348   3.001   6.307  15.429 -0.1534 -0.5801  0.1348
17311TIP3    H273349   2.893   6.348  15.526  0.6750 -0.5827  1.0614
17312TIP3   OH273350   1.254   3.857   0.851 -0.3518  0.2773  0.4549
17312TIP3    H173351   1.253   3.794   0.922  0.3586 -0.1426  0.0958
17312TIP3    H273352   1.207   3.814   0.780  0.7540 -0.1435 -0.0331
17313TIP3   OH273353   0.293   0.814   3.389  0.7505 -0.0525  0.2639
17313TIP3    H173354   0.385   0.789   3.393  0.2730 -2.2033 -1.4524
17313TIP3    H273355   0.294   0.910   3.398  3.0142 -0.1851  1.7424
17314TIP3   OH273356   4.466   5.515  11.764  0.6511 -0.1306 -0.5084
17314TIP3    H173357   4.556   5.487  11.779  0.5272  0.2197  0.9637
17314TIP3    H273358   4.418   5.434  11.744  0.6624 -0.7806  1.9011
17315TIP3   OH273359   6.123   5.783  15.799  0.3219 -0.2447  0.0509
17315TIP3    H173360   6.166   5.843  15.738  0.2564 -0.3868 -0.1370
17315TIP3    H273361   6.076   5.721  15.743  0.8848 -0.8457  0.2317
17316TIP3   OH273362   0.513   3.536  14.278  0.3091  0.0475  0.2744
17316TIP3    H173363   0.453   3.463  14.263 -0.1018  0.4756 -0.2020
17316TIP3    H273364   0.474   3.585  14.350  1.2928 -0.9537  1.4946
17317TIP3   OH273365   2.090   4.890   4.911 -0.1147  0.0082  0.9948
17317TIP3    H173366   2.078   4.921   4.821  0.3788 -0.6152  0.7053
17317TIP3    H273367   2.137   4.806   4.901 -0.1037 -0.0873  1.8266
17318TIP3   OH273368   1.364   2.005  11.950  0.3750 -0.2935  0.6564
17318TIP3    H173369   1.374   2.062  12.027  1.1242  0.4928 -0.0038
17318TIP3    H273370   1.425   1.933  11.966  2.1444  0.9739 -0.1741
17319TIP3   OH273371   0.936   4.427   1.005 -0.1208  0.4778  0.3162
17319TIP3    H173372   0.849   4.387   1.011 -0.6796  1.0176 -3.2342
17319TIP3    H273373   0.931   4.504   1.062 -1.9585  0.4949  0.1710
17320TIP3   OH273374   5.216   3.108  14.137 -0.1028  0.2142  0.7124
17320TIP3    H173375   5.311   3.103  14.125 -0.4044  1.3645 -2.8869
17320TIP3    H273376   5.196   3.201  14.128 -1.4467  0.1745  2.9435
17321TIP3   OH273377   1.585   5.345  10.988  0.4368  0.3346  0.1403
17321TIP3    H173378   1.678   5.365  10.976  0.4011  0.6596  0.3788
17321TIP3    H273379   1.543   5.377  10.908  0.4976  0.4192  0.1419
17322TIP3   OH273380   2.847   5.349  12.814 -0.6444 -0.1697 -0.1587
17322TIP3    H173381   2.829   5.415  12.747 -0.4211 -0.4905 -0.5311
17322TIP3    H273382   2.842   5.398  12.897 -0.0144  0.4154 -0.4573
17323TIP3   OH273383   6.128   3.084   6.628  0.6194  0.3701  0.0195
17323TIP3    H173384   6.112   3.029   6.551  2.5305 -1.7022  1.0357
17323TIP3    H273385   6.119   3.174   6.596 -0.2519 -0.4790 -2.2238
17324TIP3   OH273386   5.152   2.995   3.936 -0.2322 -0.4305  0.3226
17324TIP3    H173387   5.114   3.082   3.921 -1.0196 -0.8272 -0.0153
17324TIP3    H273388   5.229   2.993   3.879  0.2533  0.3508  0.9476
17325TIP3   OH273389   3.101   6.459  15.728  0.0915 -0.3627 -0.5576
17325TIP3    H173390   3.061   6.394  15.670 -0.2668 -1.0531  0.4352
17325TIP3    H273391   3.157   6.511  15.671  0.4277 -1.5840 -1.3715
17326TIP3   OH273392   4.164   5.225  11.899  0.0995 -0.2032 -0.8406
17326TIP3    H173393   4.154   5.134  11.870  1.9824 -0.5852 -0.3967
17326TIP3    H273394   4.204   5.269  11.824  0.3334 -0.0311 -0.6156
17327TIP3   OH273395   0.587   5.329   3.384 -0.1503 -0.4461 -0.5140
17327TIP3    H173396   0.650   5.370   3.324 -1.0667  0.8389 -0.6309
17327TIP3    H273397   0.636   5.258   3.425  1.3265  0.4089 -0.7388
17328TIP3   OH273398   3.351   6.782   2.905  0.1331  0.2089  0.9607
17328TIP3    H173399   3.296   6.856   2.931 -0.7752 -0.4794  1.0378
17328TIP3    H273400   3.288   6.713   2.883  0.9647 -0.3924  0.4654
17329TIP3   OH273401   4.557   2.079  14.972 -0.1067 -0.8902 -0.0743
17329TIP3    H173402   4.544   1.985  14.985  0.2472 -0.9146  0.0903
17329TIP3    H273403   4.474   2.109  14.933 -0.6570 -1.0484  0.9636
17330TIP3   OH273404   5.280   1.562   2.240 -0.4107 -0.2508 -0.9863
17330TIP3    H173405   5.262   1.655   2.225 -0.5201 -0.1765 -0.4209
17330TIP3    H273406   5.194   1.520   2.238 -0.1939 -0.6556 -3.2609
17331TIP3   OH273407   2.004   4.779   1.754  0.0185 -0.0832  0.1677
17331TIP3    H173408   1.944   4.853   1.744  0.8999  0.5388 -0.5934
17331TIP3    H273409   1.965   4.726   1.823 -1.1460  0.5748  0.0336
17332TIP3   OH273410   1.075   3.950   2.640  0.0114  0.1729  0.6118
17332TIP3    H173411   1.000   3.960   2.582 -0.3475  0.6433  1.1547
17332TIP3    H273412   1.065   4.019   2.705  0.1050 -0.6987  1.5612
17333TIP3   OH273413   6.183   5.450  15.173  0.3185 -0.4813 -0.2144
17333TIP3    H173414   6.278   5.439  15.164  0.2517 -0.5659 -0.8510
17333TIP3    H273415   6.146   5.407  15.096 -0.2214 -0.1624 -0.1394
17334TIP3   OH273416   4.047   5.317   0.101 -0.9226  0.1549  0.8328
17334TIP3    H173417   3.975   5.345   0.157 -1.0099  0.6893  0.4510
17334TIP3    H273418   4.006   5.260   0.036 -0.9972  0.4153  0.6485
17335TIP3   OH273419   6.178   2.464  16.828 -0.0823  0.0355 -1.1528
17335TIP3    H173420   6.151   2.418  16.908  0.2906  1.2675 -0.3029
17335TIP3    H273421   6.101   2.514  16.802  0.2186  0.7095 -0.7742
17336TIP3   OH273422   2.687   0.915   4.975 -0.2431 -0.3758  0.0568
17336TIP3    H173423   2.758   0.858   5.005 -0.1524 -0.1599  0.2634
17336TIP3    H273424   2.713   1.002   5.006 -0.1363 -0.1426 -0.6851
17337TIP3   OH273425   4.656   4.539   6.433 -0.4803 -0.5854 -0.1223
17337TIP3    H173426   4.676   4.632   6.445 -0.3955 -0.7580  1.1919
17337TIP3    H273427   4.670   4.523   6.340 -0.4446  0.7090 -0.3443
17338TIP3   OH273428   2.135   0.932   5.314 -0.1690  0.5707  0.1333
17338TIP3    H173429   2.098   1.017   5.340 -0.1702  1.2505 -1.9952
17338TIP3    H273430   2.061   0.873   5.311 -0.4711  0.9633 -0.2293
17339TIP3   OH273431   5.023   5.916  12.335  0.5064  0.3150  0.1099
17339TIP3    H173432   5.059   5.889  12.419 -0.4400 -0.7620  0.1756
17339TIP3    H273433   5.097   5.958  12.290  0.8338  1.5600  1.7530
17340TIP3   OH273434   6.784   5.547   0.892 -0.0055  0.2326 -0.5560
17340TIP3    H173435   6.877   5.570   0.899  0.1720 -0.2234 -1.3748
17340TIP3    H273436   6.747   5.572   0.977  0.2577  3.1169 -1.2490
17341TIP3   OH273437   0.837   1.475   2.959  0.2893 -0.0118 -0.0915
17341TIP3    H173438   0.897   1.408   2.990 -0.1663 -1.2681 -1.8636
17341TIP3    H273439   0.791   1.504   3.038  0.6789 -1.5952  0.7404
17342TIP3   OH273440   1.315   1.265   5.691 -0.1039  0.2478 -0.3291
17342TIP3    H173441   1.402   1.256   5.652  0.5873  0.5173  1.1444
17342TIP3    H273442   1.312   1.355   5.723 -1.0794  0.3580 -0.7203
17343TIP3   OH273443   3.918   5.130   0.316 -0.7994 -0.1347 -0.1984
17343TIP3    H173444   3.853   5.186   0.274  0.0006 -0.8025 -2.3720
17343TIP3    H273445   3.939   5.063   0.251  3.7641  1.4144 -0.5061
17344TIP3   OH273446   6.676   2.901   4.222 -0.4101 -0.6551 -0.0185
17344TIP3    H173447   6.679   2.808   4.202  1.1158 -0.4260 -1.0051
17344TIP3    H273448   6.728   2.911   4.301 -2.4381 -0.9238  1.3687
17345TIP3   OH273449   5.475   5.830   2.752 -0.5758 -0.3605  0.5504
17345TIP3    H173450   5.432   5.897   2.699 -1.1624 -0.2065  1.2100
17345TIP3    H273451   5.405   5.794   2.806 -0.2582 -1.5053  0.2077
17346TIP3   OH273452   5.722   5.315  15.424  0.9591 -0.7450 -0.2932
17346TIP3    H173453   5.709   5.346  15.514  1.6360  1.3829 -0.9166
17346TIP3    H273454   5.633   5.308  15.389  0.6684 -1.9537  0.6509
17347TIP3   OH273455   4.276   1.837  10.442 -0.5599  0.5321  0.3152
17347TIP3    H173456   4.231   1.918  10.464 -2.0486 -0.1762 -0.0092
17347TIP3    H273457   4.210   1.769  10.456  0.2156 -0.4694 -0.7983
17348TIP3   OH273458   0.885   1.916  16.893  0.5971 -0.1465  0.2873
17348TIP3    H173459   0.967   1.965  16.892  1.3093 -1.2645  1.5076
17348TIP3    H273460   0.909   1.830  16.927 -0.6894 -1.2252 -1.4189
17349TIP3   OH273461   0.792   2.662  12.180 -0.3221 -0.4425  0.5496
17349TIP3    H173462   0.733   2.589  12.198  0.2187 -0.5584  1.8532
17349TIP3    H273463   0.738   2.740  12.196 -0.8289 -0.5330 -0.6187
17350TIP3   OH273464   5.749   6.156   5.668  0.5404 -0.1741 -0.0738
17350TIP3    H173465   5.806   6.208   5.726  0.2610 -0.5941  0.5833
17350TIP3    H273466   5.678   6.216   5.646 -1.3617 -1.1653  3.0808
17351TIP3   OH273467   3.023   5.608   2.253 -0.7430 -0.0990 -1.1723
17351TIP3    H173468   2.929   5.625   2.261 -0.3420  1.5505  0.4477
17351TIP3    H273469   3.028   5.518   2.221 -2.8731  0.0641 -2.0863
17352TIP3   OH273470   5.429   0.963   6.240 -0.4344  0.4389  0.4117
17352TIP3    H173471   5.472   1.034   6.287 -1.5666  1.2176  0.3128
17352TIP3    H273472   5.415   0.998   6.152 -1.8552  0.4610  0.6353
17353TIP3   OH273473   5.997   2.322  16.029  0.3005  0.1927 -0.1120
17353TIP3    H173474   6.021   2.307  16.120 -0.3173 -1.7492 -0.2493
17353TIP3    H273475   6.065   2.276  15.979  1.2160  2.0876 -0.6822
17354TIP3   OH273476   5.030   1.827   0.778 -0.0382  0.5270  0.0523
17354TIP3    H173477   5.007   1.736   0.763 -1.8440  1.3562 -2.5968
17354TIP3    H273478   5.111   1.840   0.729 -0.1499  0.5360 -0.1286
17355TIP3   OH273479   3.712   2.926   4.813 -0.1142  0.4556  0.2025
17355TIP3    H173480   3.620   2.897   4.812  0.8832 -2.9465 -1.7958
17355TIP3    H273481   3.720   2.980   4.734  0.1969 -1.4236 -1.0801
17356TIP3   OH273482   4.006   2.024   5.997  0.7953 -0.3368  0.0141
17356TIP3    H173483   4.039   2.072   5.922  1.8307 -2.0622 -0.6676
17356TIP3    H273484   3.977   2.091   6.058 -0.8200  1.0728 -2.2417
17357TIP3   OH273485   5.432   3.647  13.016 -0.4533  0.0248 -0.1483
17357TIP3    H173486   5.378   3.712  12.971  1.8567  2.0605 -0.0923
17357TIP3    H273487   5.423   3.669  13.109 -0.0114 -0.0276 -0.0932
17358TIP3   OH273488   5.444   2.032  15.475  0.5198 -0.2442  0.2080
17358TIP3    H173489   5.436   2.100  15.408  0.2540 -0.5461 -0.0655
17358TIP3    H273490   5.412   2.074  15.555 -0.8388 -0.4510 -0.2213
17359TIP3   OH273491   6.022   5.673   3.301  0.0035 -0.1244 -0.0322
17359TIP3    H173492   5.964   5.691   3.227  1.6666  1.8522 -0.8940
17359TIP3    H273493   6.064   5.590   3.278  1.4857  1.1174 -1.9847
17360TIP3   OH273494   2.732   1.654  15.084  0.2373  0.4952 -0.3992
17360TIP3    H173495   2.804   1.687  15.030  1.4102 -0.2455  0.6685
17360TIP3    H273496   2.742   1.700  15.167  1.0175 -1.4399  0.6175
17361TIP3   OH273497   3.815   5.208  16.445 -0.3470 -0.4880  0.1914
17361TIP3    H173498   3.879   5.246  16.385 -0.4044 -0.0208  0.4198
17361TIP3    H273499   3.743   5.181  16.389  0.1857 -1.3095 -0.1019
17362TIP3   OH273500   4.750   3.069  11.743 -0.2656  0.2820  0.0309
17362TIP3    H173501   4.840   3.067  11.709 -0.4337  0.7565 -0.4235
17362TIP3    H273502   4.695   3.045  11.669 -0.4265 -1.3094  0.6261
17363TIP3   OH273503   4.564   5.430  15.328  0.1764 -0.3517  0.4875
17363TIP3    H173504   4.514   5.351  15.349 -2.0243  0.5920 -1.0645
17363TIP3    H273505   4.498   5.498  15.315  1.9417  1.2934 -0.0988
17364TIP3   OH273506   6.292   0.085   3.808 -0.8403  0.0990 -0.5024
17364TIP3    H173507   6.316   0.102   3.717  1.6671 -0.2501  0.0468
17364TIP3    H273508   6.271  -0.008   3.811  1.7709 -0.5329 -0.2348
17365TIP3   OH273509   1.339   1.271  15.541 -0.8470 -0.3236  0.7035
17365TIP3    H173510   1.260   1.219  15.527 -1.0678  0.4803 -1.1332
17365TIP3    H273511   1.389   1.261  15.460  0.4107  0.0935  1.4143
17366TIP3   OH273512   0.715   4.526  15.304 -0.1878  0.3060  0.1960
17366TIP3    H173513   0.745   4.442  15.268 -0.7339  1.2328 -2.5526
17366TIP3    H273514   0.679   4.504  15.389  0.2681 -2.1646 -0.2055
17367TIP3   OH273515   2.903   6.579  16.558  0.1235 -0.4587  0.0201
17367TIP3    H173516   2.848   6.651  16.527  0.4003 -0.6207 -0.8607
17367TIP3    H273517   2.849   6.533  16.622 -0.1468  0.3806  0.4067
17368TIP3   OH273518   3.711   3.584  14.306  0.3212 -0.0918  0.0071
17368TIP3    H173519   3.683   3.579  14.397  0.7812 -0.8115  0.1122
17368TIP3    H273520   3.629   3.583  14.256  0.1290 -1.7017  0.3284
17369TIP3   OH273521   6.382   1.820  13.898 -0.6690  0.0629  0.1746
17369TIP3    H173522   6.305   1.851  13.850  0.3066  0.7907 -0.9725
17369TIP3    H273523   6.411   1.896  13.948 -0.1578  0.0761 -0.1333
17370TIP3   OH273524   4.261   3.225  13.299 -0.2783  0.6577  0.5509
17370TIP3    H173525   4.216   3.291  13.351  0.8226  1.3206  0.6869
17370TIP3    H273526   4.349   3.220  13.337 -0.6763 -1.6677  1.2163
17371TIP3   OH273527   1.061   5.725   0.666 -0.5265 -0.6880 -0.2263
17371TIP3    H173528   1.106   5.663   0.608 -1.8058 -1.6211 -0.2377
17371TIP3    H273529   1.129   5.788   0.690  0.1158 -0.4595 -2.4849
17372TIP3   OH273530   4.831   3.348   0.390  0.1906  0.3652  0.7157
17372TIP3    H173531   4.923   3.355   0.416  0.2072  1.4400  0.3661
17372TIP3    H273532   4.796   3.278   0.446  1.1639  0.0808  0.9853
17373TIP3   OH273533   1.403   2.240  15.362  0.0827 -0.3993 -0.0083
17373TIP3    H173534   1.440   2.266  15.447  0.5956 -2.0227  0.2859
17373TIP3    H273535   1.465   2.175  15.329 -0.1749  0.1389 -1.5912
17374TIP3   OH273536   4.030   5.922   5.705 -0.0958 -0.6012 -0.0361
17374TIP3    H173537   3.998   6.006   5.672  1.1919  0.0933  0.4212
17374TIP3    H273538   3.978   5.905   5.783 -0.3857 -0.2439 -0.1485
17375TIP3   OH273539   6.378   0.033  14.418 -0.2442 -0.0439  0.4045
17375TIP3    H173540   6.442   0.104  14.416 -0.8005  0.4536  0.0493
17375TIP3    H273541   6.367   0.012  14.511 -1.2329  1.4026  0.6346
17376TIP3   OH273542   2.493   0.244   4.667 -0.4159  0.4701  0.0664
17376TIP3    H173543   2.511   0.188   4.591 -1.4052  0.8811 -0.4747
17376TIP3    H273544   2.404   0.275   4.654 -0.1801  1.4908  0.8030
17377TIP3   OH273545   1.472   5.114   2.895  0.0166  0.4062 -0.2774
17377TIP3    H173546   1.531   5.164   2.839  0.2022  1.7737  1.0955
17377TIP3    H273547   1.516   5.111   2.980 -1.2262  0.2433  0.3856
17378TIP3   OH273548   4.372   4.225   3.926 -0.3090 -0.1578 -0.0088
17378TIP3    H173549   4.286   4.229   3.883 -1.0234  1.4739  1.5100
17378TIP3    H273550   4.409   4.142   3.897 -3.0044 -1.5815  0.4560
17379TIP3   OH273551   6.388   5.534  13.131  0.4337 -0.1078 -0.6139
17379TIP3    H173552   6.295   5.549  13.148  0.3212  0.7061 -1.8704
17379TIP3    H273553   6.433   5.586  13.198  0.0077 -2.6398  1.7270
17380TIP3   OH273554   1.818   4.655  15.333 -0.7603 -0.2446  0.1731
17380TIP3    H173555   1.805   4.643  15.239 -0.7758 -4.3602  0.6304
17380TIP3    H273556   1.912   4.638  15.346 -0.5472  1.2930  0.8217
17381TIP3   OH273557   2.330   3.729  10.643 -0.4216 -0.3213  0.2137
17381TIP3    H173558   2.356   3.800  10.584 -1.6179 -1.0687 -1.2497
17381TIP3    H273559   2.320   3.771  10.728 -0.3110  1.1026 -0.4547
17382TIP3   OH273560   2.335   6.133   5.212  0.1273  0.8760  0.1614
17382TIP3    H173561   2.387   6.057   5.239  0.0944  0.3584 -1.1670
17382TIP3    H273562   2.392   6.208   5.229  0.9323  0.3950 -0.3353
17383TIP3   OH273563   1.828   0.869   0.343  0.5243  0.3182  0.3106
17383TIP3    H173564   1.803   0.866   0.436 -0.1447 -0.1075  0.1213
17383TIP3    H273565   1.853   0.960   0.328 -1.3302  0.8687  0.4135
17384TIP3   OH273566   2.044   3.506   3.708  0.3470 -0.2189  0.2624
17384TIP3    H173567   2.110   3.455   3.662  0.1469  1.4733 -1.9966
17384TIP3    H273568   1.978   3.442   3.734 -0.6670 -0.9731 -3.8752
17385TIP3   OH273569   3.961   3.808  11.979 -0.4109  0.1224  1.0945
17385TIP3    H173570   4.023   3.782  11.910  0.3517  0.1016  1.7803
17385TIP3    H273571   3.951   3.902  11.967 -0.4809  0.0781  0.7924
17386TIP3   OH273572   4.666   6.173   3.901  0.0336  0.0977 -0.1440
17386TIP3    H173573   4.687   6.084   3.873  1.1379  0.4088 -0.3373
17386TIP3    H273574   4.655   6.166   3.996 -0.3449 -0.3236 -0.2164
17387TIP3   OH273575   6.153   6.263   4.786  0.4097  0.4322  0.3491
17387TIP3    H173576   6.195   6.252   4.872 -0.1824 -1.1783  0.4455
17387TIP3    H273577   6.067   6.221   4.796  0.8096 -0.8648 -1.3843
17388TIP3   OH273578   4.967   3.517  12.018 -0.5761 -0.2737  0.3315
17388TIP3    H173579   5.024   3.565  12.077 -1.3632 -1.1140  1.8033
17388TIP3    H273580   5.026   3.456  11.973  0.8541  3.5890 -3.3292
17389TIP3   OH273581   3.904   0.931   0.785  0.2410 -0.0102  0.4300
17389TIP3    H173582   3.813   0.903   0.792  0.0431  0.7927  1.0530
17389TIP3    H273583   3.952   0.850   0.765 -0.7328 -0.2524 -0.9893
17390TIP3   OH273584   1.800   6.436  13.247  0.1435  0.2113  1.0793
17390TIP3    H173585   1.734   6.420  13.180  2.0139  1.9751 -1.3321
17390TIP3    H273586   1.757   6.493  13.311 -0.2804  2.7066 -1.3064
17391TIP3   OH273587   0.562   1.783  14.840  0.2570 -0.5835  0.4977
17391TIP3    H173588   0.469   1.801  14.853 -0.0234 -1.4352 -0.2469
17391TIP3    H273589   0.607   1.843  14.899 -0.8252 -1.4684  2.2746
17392TIP3   OH273590   0.153   5.101   2.619 -0.1443  0.3204  0.3984
17392TIP3    H173591   0.238   5.111   2.662 -0.2435  0.7402  0.5075
17392TIP3    H273592   0.143   5.007   2.605  0.5038  0.3024  0.0523
17393TIP3   OH273593   1.551   4.764   1.432  0.1033 -0.4220  0.1945
17393TIP3    H173594   1.473   4.719   1.465  0.9318 -1.4938  0.7210
17393TIP3    H273595   1.552   4.847   1.479 -0.3741 -0.6680  0.6457
17394TIP3   OH273596   1.100   1.846  16.487 -0.5306  0.0235 -0.2000
17394TIP3    H173597   1.014   1.847  16.530  0.2348  1.8580  1.3369
17394TIP3    H273598   1.090   1.907  16.414 -0.3858  0.5989  0.2635
17395TIP3   OH273599   2.304   3.173  13.117  0.0337 -0.3726 -0.3578
17395TIP3    H173600   2.210   3.189  13.129 -0.2613 -2.9900  1.2830
17395TIP3    H273601   2.342   3.260  13.107 -2.4218  0.8076  0.1121
17396TIP3   OH273602   2.959   5.482  11.868  0.0845 -0.0517  0.5290
17396TIP3    H173603   3.027   5.549  11.863  1.8257 -1.5896  2.3306
17396TIP3    H273604   2.895   5.517  11.930  0.5561  0.3200  0.8125
17397TIP3   OH273605   4.411   4.186   2.873 -0.2570 -0.8238 -0.7266
17397TIP3    H173606   4.477   4.133   2.916 -0.4066 -0.9718 -0.6784
17397TIP3    H273607   4.346   4.205   2.941  1.4422  2.1942  0.1282
17398TIP3   OH273608   3.020   6.434   4.735  0.1121 -0.5230 -0.4425
17398TIP3    H173609   3.061   6.379   4.669  0.9312 -1.8824  1.1796
17398TIP3    H273610   2.927   6.433   4.713  0.4988 -0.0619 -2.2074
17399TIP3   OH273611   6.756   2.881  15.508 -0.0689 -0.1223 -0.2699
17399TIP3    H173612   6.742   2.975  15.524  0.8890  0.1945 -1.2302
17399TIP3    H273613   6.755   2.873  15.413  1.0652 -0.9057 -0.2251
17400TIP3   OH273614   4.472   4.412   5.442  0.2241 -0.0052  0.1650
17400TIP3    H173615   4.476   4.330   5.491  1.4033  0.5420  0.9955
17400TIP3    H273616   4.451   4.478   5.507 -1.2199  0.2843 -0.5951
17401TIP3   OH273617   1.151   4.379   0.196 -0.4197  0.3967  0.7760
17401TIP3    H173618   1.081   4.433   0.160 -2.6746 -0.6174  3.4109
17401TIP3    H273619   1.196   4.343   0.119 -2.1869  1.8135 -0.9783
17402TIP3   OH273620   3.268   3.043  12.064 -0.1615  0.3128  0.2331
17402TIP3    H173621   3.202   3.103  12.029 -0.1208 -0.9427 -2.0485
17402TIP3    H273622   3.334   3.036  11.995 -0.5426 -2.9216  0.1272
17403TIP3   OH273623   5.616   1.478  13.666 -0.2056  0.0447  0.2344
17403TIP3    H173624   5.627   1.503  13.758 -0.6116  0.0975  0.2682
17403TIP3    H273625   5.590   1.559  13.623 -0.4877 -0.0863  0.1577
17404TIP3   OH273626   4.950   4.499   1.291  0.1191  0.2495  0.0214
17404TIP3    H173627   4.891   4.569   1.321  0.3378  1.4197 -2.2240
17404TIP3    H273628   5.034   4.543   1.277  0.7252 -0.8203  0.2630
17405TIP3   OH273629   2.308   4.512   4.348 -0.4994  0.0195 -0.3841
17405TIP3    H173630   2.365   4.435   4.348  0.5818  0.7876  1.1361
17405TIP3    H273631   2.346   4.570   4.281 -0.0089  0.1420 -0.0090
17406TIP3   OH273632   2.684   5.609   0.851 -0.2292  0.2917 -0.2278
17406TIP3    H173633   2.756   5.642   0.798  0.8574  2.0941  2.2636
17406TIP3    H273634   2.693   5.514   0.848  0.1836  0.3931 -2.6805
17407TIP3   OH273635   3.190   3.093   5.471  1.0555 -0.1728  0.0943
17407TIP3    H173636   3.106   3.070   5.509  0.6691  1.6452  0.4082
17407TIP3    H273637   3.224   3.162   5.528  2.4684 -0.4566 -0.3830
17408TIP3   OH273638   5.646   4.518  14.491  0.5427 -0.7001 -0.4735
17408TIP3    H173639   5.682   4.500  14.404  3.2736  1.5455  0.1245
17408TIP3    H273640   5.709   4.478  14.551  0.0374  0.0101  0.5340
17409TIP3   OH273641   4.907   1.563  14.678  0.0476 -0.0629  0.3642
17409TIP3    H173642   4.843   1.634  14.674  1.0035  0.9436  2.1348
17409TIP3    H273643   4.854   1.484  14.691 -0.9373  0.5184 -0.0853
17410TIP3   OH273644   4.793   0.128   4.545 -0.3834 -0.2519  0.1152
17410TIP3    H173645   4.846   0.051   4.525  0.4645  0.2424  0.4398
17410TIP3    H273646   4.757   0.111   4.632  0.7145  0.2160  0.6615
17411TIP3   OH273647   6.483   0.731   5.137 -0.1019  0.3321 -0.5957
17411TIP3    H173648   6.565   0.717   5.186 -0.4646  0.0541 -0.0657
17411TIP3    H273649   6.467   0.648   5.094  0.3722  0.6692 -1.4266
17412TIP3   OH273650   2.212   2.029   4.373  0.6418  0.1978 -0.1417
17412TIP3    H173651   2.243   1.938   4.372  1.3221  0.4364 -1.7012
17412TIP3    H273652   2.178   2.043   4.285 -0.0693  1.2538  0.3013
17413TIP3   OH273653   3.488   2.095   0.806  0.5415  0.2484 -0.2183
17413TIP3    H173654   3.559   2.073   0.866  0.5759  0.4106 -0.1995
17413TIP3    H273655   3.411   2.104   0.862  0.2912 -0.9128 -0.3492
17414TIP3   OH273656   6.772   1.305   2.539  0.2369  0.3543 -0.0221
17414TIP3    H173657   6.766   1.311   2.444  0.4495 -0.6018 -0.1016
17414TIP3    H273658   6.850   1.253   2.555 -0.4632 -0.5115  0.6484
17415TIP3   OH273659   5.917   1.445   0.992 -0.3384 -0.0774  0.0923
17415TIP3    H173660   5.983   1.375   0.994  0.5514  0.7633  1.1780
17415TIP3    H273661   5.837   1.404   1.023 -0.4063 -1.1766 -1.4704
17416TIP3   OH273662   6.491   0.369  11.389  0.1041 -0.0123  0.0711
17416TIP3    H173663   6.542   0.295  11.421  1.6101  0.3565 -1.3511
17416TIP3    H273664   6.519   0.379  11.297  1.1193  3.2561  0.6468
17417TIP3   OH273665   2.361   2.543  11.099 -0.4936  0.3516  0.4026
17417TIP3    H173666   2.303   2.588  11.160 -0.3943  0.3587  0.4910
17417TIP3    H273667   2.444   2.592  11.104  0.6622 -1.7312  2.8937
17418TIP3   OH273668   5.947   1.626  13.496  0.4015 -0.1199  0.5042
17418TIP3    H173669   6.010   1.697  13.509  1.7810 -1.3074  0.5510
17418TIP3    H273670   5.954   1.574  13.577  0.3782 -1.0272 -0.0761
17419TIP3   OH273671   5.713   2.344  11.307 -0.2011 -0.5846 -0.4175
17419TIP3    H173672   5.622   2.370  11.319 -0.0535  0.0268 -0.6472
17419TIP3    H273673   5.730   2.357  11.214  0.8327  1.6018  0.0479
17420TIP3   OH273674   4.760   5.895   5.875 -0.2154 -0.3799  0.0528
17420TIP3    H173675   4.689   5.838   5.907  1.1737 -1.0827  1.9782
17420TIP3    H273676   4.776   5.956   5.948 -1.4795  2.3691 -1.8506
17421TIP3   OH273677   6.188   4.813  12.246  0.1412  0.8901 -0.0304
17421TIP3    H173678   6.175   4.718  12.242  2.3173  0.4499  1.8398
17421TIP3    H273679   6.258   4.831  12.183  0.3671  1.0854  0.2692
17422TIP3   OH273680   6.366   6.523  13.515  0.1428  0.3177  0.3856
17422TIP3    H173681   6.351   6.617  13.507  0.5949  0.3261 -0.3583
17422TIP3    H273682   6.455   6.510  13.483 -0.0255 -0.4041  0.2112
17423TIP3   OH273683   5.435   5.438  15.825  0.6739 -0.1610 -0.0509
17423TIP3    H173684   5.346   5.417  15.796  0.5607 -0.5182  0.5493
17423TIP3    H273685   5.433   5.424  15.920  1.0254  1.0349  0.1486
17424TIP3   OH273686   3.226   1.003   0.147 -0.2408  0.5884  0.1178
17424TIP3    H173687   3.292   1.073   0.154  1.4223 -0.8466 -0.6783
17424TIP3    H273688   3.146   1.048   0.119  1.0333  2.0739 -1.2392
17425TIP3   OH273689   2.357   6.618  14.642 -0.0790  0.2393  0.7616
17425TIP3    H173690   2.268   6.583  14.647 -0.1000  0.3528  1.2843
17425TIP3    H273691   2.351   6.694  14.584  0.0533 -0.8770 -0.7295
17426TIP3   OH273692   6.045   4.135  14.319 -0.0745 -0.2979  0.4641
17426TIP3    H173693   5.949   4.135  14.309  0.0041  1.3003 -0.4411
17426TIP3    H273694   6.076   4.083  14.245 -0.2943 -2.2383  1.6844
17427TIP3   OH273695   0.608   2.559   0.133  0.4037  0.0762 -0.0756
17427TIP3    H173696   0.703   2.561   0.143  0.2707  0.4938  1.2690
17427TIP3    H273697   0.576   2.619   0.200 -0.8738 -1.0975  0.4007
17428TIP3   OH273698   0.665   6.533  10.852 -0.6700 -0.1431  0.0698
17428TIP3    H173699   0.573   6.552  10.832 -0.5833 -0.8579 -1.0264
17428TIP3    H273700   0.665   6.442  10.881  0.0104 -0.9740 -2.3620
17429TIP3   OH273701   1.243   6.613   5.092  0.0839  0.1278  0.1786
17429TIP3    H173702   1.301   6.539   5.076 -0.2440  0.1836 -1.3581
17429TIP3    H273703   1.301   6.684   5.119  0.8419  0.3805 -1.9855
17430TIP3   OH273704   2.649   0.457   4.160  0.0563  0.3809  0.3771
17430TIP3    H173705   2.580   0.413   4.110 -0.8736  0.6570  1.4014
17430TIP3    H273706   2.721   0.467   4.097  0.6872 -3.4890  0.3780
17431TIP3   OH273707   3.803   6.340  11.192 -0.1576 -0.2652 -0.3592
17431TIP3    H173708   3.862   6.405  11.154  0.8258 -1.0661 -0.2382
17431TIP3    H273709   3.716   6.377  11.181  0.4163  1.2501  0.0545
17432TIP3   OH273710   5.693   6.270  14.296 -0.5634  0.3512 -0.3198
17432TIP3    H173711   5.636   6.347  14.288  0.0795  0.9177  0.3895
17432TIP3    H273712   5.723   6.254  14.207 -0.5040  1.0928 -0.4428
17433TIP3   OH273713   5.518   0.742  13.197  0.0163 -0.1096 -0.3985
17433TIP3    H173714   5.475   0.772  13.117  1.9807 -2.9031 -2.6093
17433TIP3    H273715   5.568   0.817  13.227 -0.8206  1.0043 -1.7521
17434TIP3   OH273716   1.520   4.724  14.407 -0.2792 -0.2464 -0.1657
17434TIP3    H173717   1.533   4.637  14.369 -1.1407 -0.8701  0.9428
17434TIP3    H273718   1.435   4.719  14.450 -0.4816  1.2575 -0.3645
17435TIP3   OH273719   2.392   4.696  13.310 -0.5573  0.3259  1.2671
17435TIP3    H173720   2.369   4.610  13.276  1.5250  1.1448 -2.4480
17435TIP3    H273721   2.470   4.681  13.364  0.9798  0.0990 -0.9546
17436TIP3   OH273722   2.031   4.420   0.439 -0.2133  0.4797 -0.0711
17436TIP3    H173723   1.955   4.425   0.498 -0.4665  0.6738 -0.4126
17436TIP3    H273724   2.004   4.467   0.361 -0.1692 -0.4375 -0.6533
17437TIP3   OH273725   0.287   1.667   2.927  0.1000  0.2951 -0.2986
17437TIP3    H173726   0.214   1.706   2.977 -0.1439  0.2690 -0.6311
17437TIP3    H273727   0.245   1.602   2.871  0.2120  1.1947 -1.4408
17438TIP3   OH273728   2.458   5.845  15.176  0.2235 -0.0356 -0.1366
17438TIP3    H173729   2.474   5.900  15.253 -0.6285 -0.2403  0.1883
17438TIP3    H273730   2.457   5.756  15.211 -0.1146 -0.1318 -0.3927
17439TIP3   OH273731   1.449   1.464  13.703  0.0016 -0.3742  0.0881
17439TIP3    H173732   1.371   1.498  13.658 -0.1144 -1.2608 -0.4029
17439TIP3    H273733   1.414   1.416  13.778  0.1749  0.7438  0.8907
17440TIP3   OH273734   6.356   3.294  15.429  0.2580  0.9062 -0.1385
17440TIP3    H173735   6.425   3.252  15.480  0.6593  1.5614 -0.1293
17440TIP3    H273736   6.285   3.309  15.492 -0.5004 -1.1157 -0.4785
17441TIP3   OH273737   2.166   5.532  10.594  0.5345  0.1812 -0.0064
17441TIP3    H173738   2.213   5.457  10.556  1.3425 -0.1239  1.5118
17441TIP3    H273739   2.182   5.604  10.534 -1.9879 -1.3279 -2.6100
17442TIP3   OH273740   0.354   0.935   0.327  0.1165 -0.6854 -0.0817
17442TIP3    H173741   0.327   0.889   0.247  0.1250  1.0752 -1.1095
17442TIP3    H273742   0.368   1.025   0.300 -2.1664  0.4956  2.3505
17443TIP3   OH273743   2.630   2.630  11.069 -0.0196 -0.2445 -0.1400
17443TIP3    H173744   2.698   2.694  11.088  0.1346 -0.4618  0.0524
17443TIP3    H273745   2.630   2.622  10.974 -1.6508  1.7618 -0.3304
17444TIP3   OH273746   3.037   4.870   1.180 -0.2204  0.4619 -0.2933
17444TIP3    H173747   3.130   4.891   1.165 -0.2283 -0.0037 -1.0490
17444TIP3    H273748   3.005   4.941   1.234 -0.0542  2.0110 -2.1592
17445TIP3   OH273749   6.337   3.073   0.290 -0.3826 -0.3085  0.2597
17445TIP3    H173750   6.317   3.016   0.365 -1.1392 -0.8580 -0.3496
17445TIP3    H273751   6.302   3.026   0.215  1.2672 -0.2373 -0.5786
17446TIP3   OH273752   0.232   1.184  12.314  0.3520  0.3614  0.3599
17446TIP3    H173753   0.286   1.262  12.306  1.4808 -0.4412 -0.0530
17446TIP3    H273754   0.245   1.155  12.405 -0.8599  1.2139  0.8088
17447TIP3   OH273755   4.902   0.162  14.380 -0.1472 -0.1298  0.5218
17447TIP3    H173756   4.865   0.100  14.317  1.2599 -1.9296  1.3876
17447TIP3    H273757   4.827   0.199  14.425 -1.0150 -1.6281  0.3515
17448TIP3   OH273758   0.005   3.936  12.300  0.3138  0.4721  0.1915
17448TIP3    H173759  -0.057   3.988  12.250 -1.0974 -0.0355  1.3590
17448TIP3    H273760   0.049   3.999  12.358  0.7571  0.8039 -0.5037
17449TIP3   OH273761   1.283   4.075  14.077 -0.6059  0.0873  0.3127
17449TIP3    H173762   1.339   4.102  14.150  0.0199  0.0103 -0.1303
17449TIP3    H273763   1.221   4.013  14.115  0.6230 -1.0416  0.4974
17450TIP3   OH273764   5.698   0.227   2.966  0.7106 -0.2569 -0.4743
17450TIP3    H173765   5.613   0.227   3.009  1.1353 -1.9365  0.4175
17450TIP3    H273766   5.690   0.292   2.896 -0.0779  2.3754  1.9567
17451TIP3   OH273767   2.413   4.851   0.202 -0.2206 -0.4908 -0.7070
17451TIP3    H173768   2.347   4.883   0.264  0.1308 -2.2552  0.5966
17451TIP3    H273769   2.496   4.862   0.247  0.0955 -1.2532 -1.1047
17452TIP3   OH273770   2.904   3.688   1.934  0.2480 -0.0559 -0.4173
17452TIP3    H173771   2.866   3.694   2.021 -2.0085 -1.6999 -1.2520
17452TIP3    H273772   2.949   3.603   1.933  1.3229  0.5082 -0.4516
17453TIP3   OH273773   4.628   4.695  15.327  0.5617 -0.2770 -0.3087
17453TIP3    H173774   4.609   4.702  15.421 -3.1312  2.2309 -1.1348
17453TIP3    H273775   4.575   4.621  15.297  0.6519 -0.2071 -0.6406
17454TIP3   OH273776   6.462   0.764  13.901 -0.5045  0.3705 -0.2176
17454TIP3    H173777   6.440   0.813  13.821 -2.2490  0.4094  0.2709
17454TIP3    H273778   6.379   0.758  13.949  0.5337  0.3562  1.6038
17455TIP3   OH273779   4.980   6.172   0.082  0.1501 -0.1686 -0.6642
17455TIP3    H173780   5.034   6.250   0.083 -2.9763  2.0859  1.3819
17455TIP3    H273781   5.015   6.119   0.010  3.7689  2.0218 -0.6173
17456TIP3   OH273782   1.137   4.741  11.440  0.3862 -0.1207  0.0377
17456TIP3    H173783   1.228   4.727  11.469  0.4322 -1.9874 -0.9888
17456TIP3    H273784   1.093   4.775  11.518  2.1157  1.4870  0.3598
17457TIP3   OH273785   0.500   4.216  14.875  0.1424 -0.2904 -0.2075
17457TIP3    H173786   0.578   4.187  14.828 -0.2677  0.2933 -1.2587
17457TIP3    H273787   0.430   4.159  14.843 -0.4040  0.9820 -1.3203
17458TIP3   OH273788   6.357   5.852   3.431  0.0787 -0.0798  0.2850
17458TIP3    H173789   6.349   5.940   3.393 -1.0693  0.2568  1.2764
17458TIP3    H273790   6.451   5.840   3.443  0.2127  1.2833  0.7463
17459TIP3   OH273791   3.387   6.314   3.179  0.2088 -0.7251 -0.3230
17459TIP3    H173792   3.362   6.351   3.264 -0.9396 -0.5352 -0.7423
17459TIP3    H273793   3.425   6.229   3.200  1.7781  0.1595  0.5524
17460TIP3   OH273794   6.551   1.674   2.959 -0.5646  0.1301 -0.2797
17460TIP3    H173795   6.518   1.629   2.882  0.5740 -0.7100 -0.2898
17460TIP3    H273796   6.497   1.752   2.966 -0.8332  0.0936 -1.7869
17461TIP3   OH273797   4.026   3.706   4.743  0.2460  0.1662 -0.1119
17461TIP3    H173798   4.096   3.721   4.807 -1.0278  1.9602  0.9191
17461TIP3    H273799   3.949   3.687   4.796 -0.2468 -1.0385 -1.2197
17462TIP3   OH273800   1.587   3.296   2.634 -0.2599  0.3489 -0.1308
17462TIP3    H173801   1.637   3.286   2.714 -1.2374 -2.5736  0.1963
17462TIP3    H273802   1.635   3.361   2.583  1.7122  0.4432  1.7877
17463TIP3   OH273803   5.612   3.764  12.843 -0.0249  0.1031  0.6983
17463TIP3    H173804   5.565   3.711  12.907 -1.0417 -0.4199 -0.4624
17463TIP3    H273805   5.649   3.701  12.782 -0.5017  0.6755 -0.1918
17464TIP3   OH273806   5.322   1.613   2.840 -0.2322  1.1144 -0.2897
17464TIP3    H173807   5.405   1.661   2.835  0.7843 -0.6719 -0.9358
17464TIP3    H273808   5.255   1.679   2.822  0.9580  2.7990  1.1730
17465TIP3   OH273809   1.583   6.257   4.706 -0.1018  0.5552  0.1034
17465TIP3    H173810   1.646   6.297   4.646 -0.1329 -0.4389 -0.6044
17465TIP3    H273811   1.623   6.267   4.792  1.9493 -1.7162 -0.5162
17466TIP3   OH273812   0.050   3.983   5.674 -0.1954 -0.4376  0.2719
17466TIP3    H173813   0.090   3.896   5.665 -0.7279 -0.6234 -0.2735
17466TIP3    H273814  -0.044   3.966   5.680 -0.3790  0.1784 -0.8511
17467TIP3   OH273815   3.949   0.587  14.135 -0.3266 -0.3458 -0.4497
17467TIP3    H173816   3.858   0.583  14.106 -0.2858  0.7747 -0.7365
17467TIP3    H273817   3.952   0.531  14.212 -1.5538  0.6770  0.3429
17468TIP3   OH273818   2.304   6.257  13.771  0.2204  0.0481  0.3001
17468TIP3    H173819   2.324   6.206  13.692 -0.2913  0.5783 -0.1741
17468TIP3    H273820   2.209   6.268  13.770  0.3879  1.6485 -0.0148
17469TIP3   OH273821   4.777   1.136  14.846 -0.1295 -0.1643 -0.1855
17469TIP3    H173822   4.819   1.057  14.811  0.5695 -0.4040  1.1589
17469TIP3    H273823   4.848   1.199  14.855 -0.4282  0.1336  0.1129
17470TIP3   OH273824   1.569   4.112   1.372  0.0924 -0.5581  0.0450
17470TIP3    H173825   1.643   4.112   1.432 -1.8368 -0.6507  2.5187
17470TIP3    H273826   1.545   4.019   1.363 -0.7249 -0.4089  0.5811
17471TIP3   OH273827   5.990   0.030   4.212  0.4133  0.3703  0.3271
17471TIP3    H173828   6.036   0.032   4.296  0.0458  1.4097  0.5116
17471TIP3    H273829   6.044  -0.026   4.157  3.3673  3.6166 -0.2743
17472TIP3   OH273830   6.017   2.477  10.680 -0.8456  0.6596  0.0928
17472TIP3    H173831   5.930   2.499  10.713 -1.4187  0.2219 -1.0957
17472TIP3    H273832   6.014   2.498  10.587  0.3491  0.7166  0.0537
17473TIP3   OH273833   1.589   6.227   3.803 -0.4612 -0.5423 -0.2115
17473TIP3    H173834   1.539   6.159   3.757 -0.0552 -0.3375 -0.9623
17473TIP3    H273835   1.641   6.269   3.734  0.5468 -0.5783  0.5119
17474TIP3   OH273836   0.396   3.165   4.834 -0.0196  0.7835  0.2018
17474TIP3    H173837   0.308   3.203   4.834 -1.9839 -3.4894 -0.2379
17474TIP3    H273838   0.407   3.131   4.745  1.0937 -0.7664  0.9132
17475TIP3   OH273839   4.787   3.275  13.448 -0.1063 -0.6421  0.0430
17475TIP3    H173840   4.835   3.301  13.370 -0.6043 -1.2414 -0.4691
17475TIP3    H273841   4.853   3.273  13.518  0.0712  1.2824 -0.0492
17476TIP3   OH273842   2.125   5.908   4.805 -0.3198 -0.3302 -0.0304
17476TIP3    H173843   2.031   5.893   4.803 -0.1858 -1.5855  1.8867
17476TIP3    H273844   2.163   5.820   4.805  0.7749  0.1228  1.7291
17477TIP3   OH273845   3.028   5.552   6.080  0.1938  0.5574  0.0062
17477TIP3    H173846   2.956   5.490   6.093  2.3461 -2.1869 -0.7314
17477TIP3    H273847   3.013   5.588   5.993 -1.2822  1.4106  0.5888
17478TIP3   OH273848   4.623   1.740   4.049 -0.1316  0.8214  0.1133
17478TIP3    H173849   4.575   1.814   4.085  1.3432  0.9442  1.9057
17478TIP3    H273850   4.581   1.663   4.087  0.7372  0.9079  1.2686
17479TIP3   OH273851   5.893   2.555   1.340 -0.0296  0.1080  0.2850
17479TIP3    H173852   5.906   2.600   1.257 -1.5849 -0.1456 -0.1034
17479TIP3    H273853   5.941   2.608   1.403  0.7299  0.5897 -0.6834
17480TIP3   OH273854   1.509   6.084  17.022 -0.2923 -0.7948 -0.1397
17480TIP3    H173855   1.469   6.098  17.107 -2.2556  1.0232 -1.3243
17480TIP3    H273856   1.445   6.117  16.959  2.7166  1.5161 -2.1553
17481TIP3   OH273857   1.994   1.722  16.330 -0.0130  0.1210 -0.1263
17481TIP3    H173858   1.899   1.713  16.321  0.0273 -2.3909  1.4769
17481TIP3    H273859   2.030   1.674  16.256  0.0173 -0.8820  0.5282
17482TIP3   OH273860   4.835   6.174  15.785  0.5630 -0.4112 -0.3634
17482TIP3    H173861   4.751   6.187  15.740  1.5373  0.0946 -2.0720
17482TIP3    H273862   4.895   6.147  15.716  2.0347  0.1141  0.6871
17483TIP3   OH273863   3.342   4.084  13.849  0.2448 -0.0915  0.4156
17483TIP3    H173864   3.320   4.171  13.883 -1.3767 -0.4137  0.1971
17483TIP3    H273865   3.280   4.068  13.779  1.3847 -0.8898 -0.4309
17484TIP3   OH273866   2.525   6.110   6.180  0.5025  0.4268  0.0063
17484TIP3    H173867   2.527   6.162   6.261  1.1363  1.3946 -0.6270
17484TIP3    H273868   2.434   6.079   6.174  0.4584  0.3066  1.1038
17485TIP3   OH273869   2.027   3.015   4.494 -0.0521  0.8431  0.5953
17485TIP3    H173870   2.062   3.021   4.583 -2.5588  2.0537  1.5460
17485TIP3    H273871   1.973   2.935   4.496 -2.5916  2.5043  1.1334
17486TIP3   OH273872   1.332   5.933  16.668 -0.1752  0.2507  0.3120
17486TIP3    H173873   1.364   6.023  16.654  1.1904 -0.4387 -1.1398
17486TIP3    H273874   1.399   5.877  16.628 -1.2760 -1.4037  0.7360
17487TIP3   OH273875   3.438   4.614  12.475  0.0410  0.1050  0.3158
17487TIP3    H173876   3.417   4.557  12.550 -0.9391  0.3062  0.1982
17487TIP3    H273877   3.465   4.553  12.407 -1.8325 -0.3178 -0.0923
17488TIP3   OH273878   6.058   5.128   4.748 -0.5913  0.4400 -0.1380
17488TIP3    H173879   6.080   5.069   4.677 -2.5943 -1.2263  0.5640
17488TIP3    H273880   6.096   5.088   4.826  0.0050  1.2819  0.0126
17489TIP3   OH273881   2.572   5.927   1.254  0.0257 -0.1154  0.6079
17489TIP3    H173882   2.638   5.887   1.198  0.3754 -0.5487  1.3165
17489TIP3    H273883   2.550   6.009   1.210 -0.1482 -0.7256 -0.4603
17490TIP3   OH273884   0.319   1.032   4.248  0.2484  0.0509  0.1292
17490TIP3    H173885   0.348   1.121   4.266  0.8086 -0.0205 -0.3914
17490TIP3    H273886   0.399   0.978   4.256  0.2101 -0.1921 -0.9880
17491TIP3   OH273887   6.395   6.252  10.862  0.1006 -0.0586 -0.3305
17491TIP3    H173888   6.487   6.261  10.837  0.5639 -1.9108  0.6315
17491TIP3    H273889   6.380   6.158  10.866 -1.6917  0.2200  0.1104
17492TIP3   OH273890   3.016   5.985   2.311 -0.2504 -0.1899  0.2309
17492TIP3    H173891   3.003   5.952   2.222 -0.6706 -1.5249  0.7880
17492TIP3    H273892   3.003   6.080   2.303  4.5090  0.4075 -2.0533
17493TIP3   OH273893   6.259   3.371  12.219  0.4077 -0.2819 -0.3210
17493TIP3    H173894   6.296   3.456  12.245 -0.5209  0.1808 -0.4854
17493TIP3    H273895   6.259   3.319  12.300  0.7085 -0.0231 -0.1530
17494TIP3   OH273896   3.322   5.378  11.128 -0.3236 -0.6123 -0.4351
17494TIP3    H173897   3.352   5.442  11.063  0.0793 -2.8063 -2.4965
17494TIP3    H273898   3.403   5.350  11.171 -0.3413 -0.7249 -0.4758
17495TIP3   OH273899   5.597   4.665   4.744  0.1685 -0.3519  0.5185
17495TIP3    H173900   5.691   4.649   4.730 -0.2687 -0.3413 -2.7331
17495TIP3    H273901   5.563   4.581   4.774  0.7025 -1.2316 -1.2487
17496TIP3   OH273902   1.234   1.092  13.140  1.0157  0.6127  0.3078
17496TIP3    H173903   1.321   1.055  13.150  0.7685  0.0119  0.2979
17496TIP3    H273904   1.206   1.066  13.053  1.4865  2.2496 -0.3560
17497TIP3   OH273905   0.966   4.808  11.678 -0.0218  0.3114  0.1505
17497TIP3    H173906   0.877   4.825  11.649  0.0871 -1.8098 -1.5285
17497TIP3    H273907   0.963   4.819  11.773 -1.7397  1.5627 -0.0179
17498TIP3   OH273908   2.292   6.615   3.195 -0.2191  0.5270  0.4443
17498TIP3    H173909   2.324   6.593   3.282 -0.8433  3.0764  1.3822
17498TIP3    H273910   2.291   6.532   3.148  0.8619 -0.7756  2.6156
17499TIP3   OH273911   5.224   6.049  16.382 -0.0650 -0.0789  0.4058
17499TIP3    H173912   5.131   6.064  16.363  0.7451  1.4186 -2.7070
17499TIP3    H273913   5.268   6.126  16.346  2.6025 -1.9332 -0.3927
17500TIP3   OH273914   0.637   0.469   2.900 -0.2022  0.1780 -0.2258
17500TIP3    H173915   0.689   0.485   2.979  2.9450 -1.7270 -1.7692
17500TIP3    H273916   0.570   0.406   2.927  2.4785 -2.5134  0.4608
17501TIP3   OH273917   5.315   0.277   2.711  1.0650 -0.5707 -0.6027
17501TIP3    H173918   5.373   0.323   2.651  1.0842  0.3402  0.1134
17501TIP3    H273919   5.362   0.196   2.731  0.6376 -1.3308 -2.5464
17502TIP3   OH273920   4.841   3.922  16.191  0.1992 -0.0643  0.1946
17502TIP3    H173921   4.859   3.989  16.258 -0.8507  0.2672  0.1526
17502TIP3    H273922   4.928   3.889  16.167  0.5818 -0.2930  1.8275
17503TIP3   OH273923   4.812   2.007  14.218 -0.5149 -0.2958  0.0061
17503TIP3    H173924   4.827   2.000  14.313  1.8543 -0.9283 -0.3731
17503TIP3    H273925   4.821   2.101  14.200  2.7615 -0.5619 -0.0988
17504TIP3   OH273926   5.219   3.149  16.105  0.7038  0.1078 -0.1593
17504TIP3    H173927   5.234   3.085  16.035  1.4327  0.6870 -0.5406
17504TIP3    H273928   5.286   3.216  16.091  1.0119  0.1080  1.2509
17505TIP3   OH273929   1.357   1.192  16.675  0.1549  0.2054 -0.6213
17505TIP3    H173930   1.287   1.250  16.645  0.3302  0.8291  0.1435
17505TIP3    H273931   1.404   1.244  16.741 -0.1452 -1.0769  0.6163
17506TIP3   OH273932   4.477   1.925  13.322  0.1086 -0.0007 -0.1246
17506TIP3    H173933   4.411   1.968  13.267  0.7645 -0.0998 -1.0064
17506TIP3    H273934   4.457   1.832  13.316  0.9427 -0.1164 -1.2208
17507TIP3   OH273935   0.607   0.130   3.062 -0.1432  0.2710  0.0521
17507TIP3    H173936   0.567   0.062   3.008  0.1317 -1.1699  1.6290
17507TIP3    H273937   0.537   0.194   3.076 -1.4382 -1.3694  1.3561
17508TIP3   OH273938   2.211   1.904   0.684 -0.4777 -0.1212 -0.1021
17508TIP3    H173939   2.298   1.944   0.690 -0.0487 -1.0218 -0.3061
17508TIP3    H273940   2.164   1.939   0.760 -0.6363  2.0288 -1.1496
17509TIP3   OH273941   3.081   4.055  11.319 -0.0766 -0.0462 -0.2306
17509TIP3    H173942   3.042   4.030  11.235  2.2700 -0.1126 -1.3291
17509TIP3    H273943   3.175   4.051  11.304  0.3905 -0.2728  2.4783
17510TIP3   OH273944   5.127   3.476  12.403  0.0763  0.5189 -0.2409
17510TIP3    H173945   5.144   3.408  12.337  0.9857  1.2617 -0.7906
17510TIP3    H273946   5.035   3.497  12.393  0.1115  0.3256 -1.0016
17511TIP3   OH273947   2.439   2.515   2.057  0.1600  0.1575 -0.3550
17511TIP3    H173948   2.348   2.516   2.029 -0.1803 -0.5261  0.7173
17511TIP3    H273949   2.489   2.513   1.975 -0.7750  0.6975 -0.9534
17512TIP3   OH273950   4.626   3.011   5.593 -0.1088 -0.4892  0.4034
17512TIP3    H173951   4.571   3.069   5.541 -0.8849  0.0335  1.7797
17512TIP3    H273952   4.664   3.068   5.660  0.5765 -1.2149  0.6356
17513TIP3   OH273953   0.817   3.186  11.468 -0.3977  0.4503  0.1809
17513TIP3    H173954   0.782   3.161  11.383  0.2501 -1.3983  0.4487
17513TIP3    H273955   0.897   3.234  11.448  0.8987 -1.8357 -0.2013
17514TIP3   OH273956   3.157   6.129   0.304  0.3976 -0.5718 -0.0063
17514TIP3    H173957   3.122   6.048   0.267  0.5474 -1.1626  1.1004
17514TIP3    H273958   3.141   6.195   0.238 -1.9464 -1.0322  0.0693
17515TIP3   OH273959   1.116   2.675   3.325  0.3829 -0.4392  0.9827
17515TIP3    H173960   1.156   2.736   3.388 -0.0317  0.8965 -0.0185
17515TIP3    H273961   1.135   2.713   3.239 -0.3253 -1.4589  0.3566
17516TIP3   OH273962   0.394   5.599  14.420  0.0897  0.2741  0.2515
17516TIP3    H173963   0.298   5.600  14.415  0.0572 -0.9534  0.6224
17516TIP3    H273964   0.415   5.518  14.465  1.3127  0.5455  0.1780
17517TIP3   OH273965   1.964   5.440   3.460  0.1557  0.9126  0.4346
17517TIP3    H173966   1.978   5.365   3.403  0.8384  2.2719 -1.2237
17517TIP3    H273967   1.968   5.404   3.549 -1.8605 -1.3816 -0.3603
17518TIP3   OH273968   2.977   3.652  13.930  0.5923 -0.1376  0.0075
17518TIP3    H173969   2.883   3.668  13.919  1.1372  2.2101 -1.7170
17518TIP3    H273970   2.989   3.643  14.024 -1.4389 -1.0074  0.2136
17519TIP3   OH273971   1.582   1.739  12.870  0.1193 -0.6111 -0.2599
17519TIP3    H173972   1.591   1.831  12.894  0.9758 -0.9452  0.7728
17519TIP3    H273973   1.488   1.723  12.872  0.1061 -0.5163  2.6236
17520TIP3   OH273974   5.487   5.470  12.822 -0.1208 -0.0865  0.2894
17520TIP3    H173975   5.455   5.455  12.911 -2.0127  0.6313 -0.2335
17520TIP3    H273976   5.431   5.414  12.767 -0.6337  1.3487 -0.6719
17521TIP3   OH273977   1.856   2.319   3.545 -0.5686  0.4382  0.3409
17521TIP3    H173978   1.811   2.404   3.548  0.6715  1.1224 -0.4661
17521TIP3    H273979   1.785   2.255   3.548 -1.5134  1.4946  1.1006
17522TIP3   OH273980   5.326   3.174   6.653 -0.1994 -0.0985 -0.7004
17522TIP3    H173981   5.241   3.176   6.609 -0.2655 -0.6274 -0.5917
17522TIP3    H273982   5.344   3.082   6.668  0.3545  0.0180 -0.6394
17523TIP3   OH273983   6.207   5.892   2.159 -0.2377 -0.1965  0.8289
17523TIP3    H173984   6.221   5.813   2.211  0.0345  0.6001  1.9928
17523TIP3    H273985   6.294   5.923   2.137 -0.3598 -0.9628 -0.8035
17524TIP3   OH273986   5.780   5.935  13.385  0.0224 -0.2829 -0.1440
17524TIP3    H173987   5.691   5.905  13.404 -0.3543  1.7112  1.3752
17524TIP3    H273988   5.773   6.030  13.379  2.1268 -0.0653  0.3481
17525TIP3   OH273989   5.750   1.293  11.236 -1.1292 -0.0614 -0.2236
17525TIP3    H173990   5.774   1.383  11.212 -1.3765 -0.0723 -0.5102
17525TIP3    H273991   5.655   1.293  11.238 -1.1382 -0.4012 -0.5454
17526TIP3   OH273992   0.528   4.812  13.018 -0.3828  0.4855  0.5878
17526TIP3    H173993   0.563   4.872  12.952  1.1212 -1.0277 -0.0061
17526TIP3    H273994   0.571   4.838  13.099  0.0106  0.4341  0.3965
17527TIP3   OH273995   4.984   3.278   1.249 -0.1808 -0.3363 -0.3590
17527TIP3    H173996   5.014   3.346   1.310  0.6574 -0.5758 -0.5023
17527TIP3    H273997   5.015   3.308   1.163 -2.4340  0.6502 -0.8883
17528TIP3   OH273998   6.546   2.376  10.585  0.0700 -0.1746  0.5222
17528TIP3    H173999   6.603   2.453  10.580 -0.3074  0.1441  1.1112
17528TIP3    H274000   6.606   2.302  10.570 -0.0082  0.3378 -2.8083
17529TIP3   OH274001   3.142   3.999   4.780 -0.3435  0.2548 -0.1194
17529TIP3    H174002   3.114   3.971   4.693 -1.8688  0.4622  0.2890
17529TIP3    H274003   3.221   4.051   4.765 -0.8197  0.6046 -1.4239
17530TIP3   OH274004   3.963   3.954  12.759  0.1809 -0.0058  0.0792
17530TIP3    H174005   3.939   4.036  12.803  1.0437 -0.6371  1.7892
17530TIP3    H274006   4.058   3.947  12.773  0.1437 -1.1884 -0.2373
17531TIP3   OH274007   0.148   4.426  10.976  0.1717 -0.5273 -0.1121
17531TIP3    H174008   0.225   4.467  11.015 -0.4736  2.4921 -1.8260
17531TIP3    H274009   0.081   4.432  11.044  0.4587  0.1139  0.1212
17532TIP3   OH274010   6.571   1.277  14.532  0.3977 -0.2713 -0.4785
17532TIP3    H174011   6.577   1.348  14.467 -1.1423  0.4139  0.0963
17532TIP3    H274012   6.531   1.318  14.608 -1.1280 -1.9225 -0.3670
17533TIP3   OH274013   4.281   4.822   1.415 -0.4078  0.0380  0.3463
17533TIP3    H174014   4.197   4.862   1.437 -0.5451  0.1118 -0.2812
17533TIP3    H274015   4.294   4.756   1.482 -0.6262  0.5099  0.8577
17534TIP3   OH274016   3.427   3.219   0.615  0.0857 -0.0059 -0.0615
17534TIP3    H174017   3.505   3.245   0.663 -0.2189  1.5930 -0.4121
17534TIP3    H274018   3.450   3.134   0.577  1.0347 -0.3400  1.2277
17535TIP3   OH274019   6.430   2.252   5.687  0.6183  0.2337  0.4632
17535TIP3    H174020   6.363   2.320   5.696  1.6390  1.1320  1.3646
17535TIP3    H274021   6.381   2.170   5.683 -0.7058  1.0908 -1.8863
17536TIP3   OH274022   1.505   1.010   4.199 -0.0932  0.5080  0.4342
17536TIP3    H174023   1.463   0.943   4.254  0.6147  1.7692  2.5611
17536TIP3    H274024   1.541   1.073   4.261  0.3781  2.2062 -1.5131
17537TIP3   OH274025   5.048   3.276  14.407 -0.1166 -0.6150  0.5233
17537TIP3    H174026   5.113   3.301  14.342 -1.7098  1.0007 -0.5010
17537TIP3    H274027   5.094   3.282  14.491  0.8521  1.2317 -0.1096
17538TIP3   OH274028   6.549   2.209  10.994  0.2102  0.4388 -0.3889
17538TIP3    H174029   6.486   2.263  10.946 -0.1709  1.7693  1.5567
17538TIP3    H274030   6.528   2.119  10.968 -0.5769  1.0657 -1.9918
17539TIP3   OH274031   3.778   3.067   5.973  0.0524 -0.6957 -0.1319
17539TIP3    H174032   3.861   3.111   5.990 -1.0378  0.4045  2.7173
17539TIP3    H274033   3.766   3.008   6.048 -1.8046 -0.7170 -0.4189
17540TIP3   OH274034   3.283   1.518   3.281  0.1070 -0.3245 -0.3116
17540TIP3    H174035   3.215   1.568   3.327  0.1300 -1.6204  1.2030
17540TIP3    H274036   3.361   1.574   3.284 -0.3397  0.3007 -0.2276
17541TIP3   OH274037   5.168   1.662   0.174  0.3527  0.7155 -0.6211
17541TIP3    H174038   5.141   1.715   0.248  0.0783  0.5943 -0.6332
17541TIP3    H274039   5.220   1.591   0.212  1.2182  1.3235 -0.6633
17542TIP3   OH274040   0.161   0.811   1.556  0.0343 -0.1886 -0.2877
17542TIP3    H174041   0.118   0.730   1.531 -0.6165  0.1656 -0.3142
17542TIP3    H274042   0.094   0.878   1.548  0.4060  0.2644  0.3041
17543TIP3   OH274043   5.982   2.943  16.472 -0.0711  0.6482 -0.4119
17543TIP3    H174044   6.033   2.987  16.540 -1.9575 -0.6383  1.9331
17543TIP3    H274045   5.901   2.995  16.465 -1.2062 -0.9412  0.5600
17544TIP3   OH274046   2.516   5.796  13.836  0.3222  0.6633 -0.0212
17544TIP3    H174047   2.499   5.883  13.799  0.1791  0.7996  0.3538
17544TIP3    H274048   2.429   5.758  13.848  0.3022  1.0269  1.1206
17545TIP3   OH274049   0.649   5.173   6.205 -1.0074 -0.5924 -0.1120
17545TIP3    H174050   0.590   5.184   6.130 -0.1242 -1.5260 -0.9526
17545TIP3    H274051   0.641   5.081   6.228  1.5476 -1.1734 -1.4324
17546TIP3   OH274052   6.226   4.779   1.395  0.3309 -0.2070  0.1286
17546TIP3    H174053   6.147   4.833   1.391  0.1809 -0.4380 -0.0692
17546TIP3    H274054   6.222   4.725   1.315  0.2546 -0.8190  0.5397
17547TIP3   OH274055   3.767   6.020  16.445 -0.1770 -0.3316 -0.0717
17547TIP3    H174056   3.775   6.104  16.491 -1.4188  0.6079 -1.5008
17547TIP3    H274057   3.672   6.006  16.437  0.0146 -0.9341 -1.5023
17548TIP3   OH274058   4.102   3.752   6.320  0.5235  0.1463  0.2809
17548TIP3    H174059   4.017   3.768   6.360  1.3781  2.3516  1.3696
17548TIP3    H274060   4.100   3.661   6.293 -2.0252  0.0574  0.6417
17549TIP3   OH274061   5.710   2.685   1.581 -0.1448 -0.0540  0.0834
17549TIP3    H174062   5.802   2.689   1.556 -0.2930  0.2665 -0.4127
17549TIP3    H274063   5.701   2.601   1.626  0.8586  0.8512  2.0142
17550TIP3   OH274064   5.611   5.068  12.528  0.4375 -0.3648 -0.1674
17550TIP3    H174065   5.649   5.012  12.596  3.8570 -0.6572 -2.1941
17550TIP3    H274066   5.575   5.007  12.464 -1.5951 -0.1091  0.7077
17551TIP3   OH274067   4.166   2.054  11.597  1.1941 -0.0305 -0.4066
17551TIP3    H174068   4.106   2.011  11.659  0.2239  1.7319 -0.0852
17551TIP3    H274069   4.242   1.997  11.594  0.2930 -1.3256  0.6735
17552TIP3   OH274070   0.719   5.193   2.667 -0.1873 -0.5084  0.4503
17552TIP3    H174071   0.708   5.200   2.762  1.5958 -2.6675  0.8623
17552TIP3    H274072   0.683   5.107   2.646  1.2266 -0.8633 -0.5325
17553TIP3   OH274073   1.022   2.172  16.869 -0.2947 -0.1097 -0.2250
17553TIP3    H174074   1.072   2.248  16.896 -2.6050  1.4367 -0.1378
17553TIP3    H274075   1.048   2.156  16.779  1.0963  0.0369  0.1464
17554TIP3   OH274076   4.621   5.323  15.647  0.0018  0.0184 -0.6201
17554TIP3    H174077   4.644   5.381  15.575 -1.3374 -1.3423 -2.1986
17554TIP3    H274078   4.569   5.377  15.706  0.7824  1.0448 -0.8618
17555TIP3   OH274079   6.581   0.077   3.784  0.7657  0.1871  0.5083
17555TIP3    H174080   6.600   0.165   3.816  1.6815  0.2383 -0.1453
17555TIP3    H274081   6.487   0.067   3.794  0.5789  1.4690  0.0142
17556TIP3   OH274082   5.050   1.055  16.486 -0.1268  0.0065 -0.0289
17556TIP3    H174083   5.090   1.068  16.573  0.9219 -0.2982 -0.4602
17556TIP3    H274084   4.982   0.989  16.501 -0.9350  0.9987  0.8384
17557TIP3   OH274085   4.457   5.788  12.843 -0.1071  0.4658 -0.3153
17557TIP3    H174086   4.493   5.768  12.756 -1.3114 -3.2401 -0.0637
17557TIP3    H274087   4.379   5.841  12.825 -0.5268 -0.5366 -1.5432
17558TIP3   OH274088   3.730   0.162  14.817  0.1967  0.0787 -0.6202
17558TIP3    H174089   3.676   0.220  14.870  1.5616 -0.4051  1.3554
17558TIP3    H274090   3.765   0.218  14.748  1.4086  1.6167  1.1954
17559TIP3   OH274091   0.487   2.760   4.687 -0.6194 -0.4051  0.1552
17559TIP3    H174092   0.512   2.669   4.703  0.6613  0.1204  1.2387
17559TIP3    H274093   0.459   2.792   4.772  1.4032  0.9630  0.3284
17560TIP3   OH274094   0.689   2.616   6.419  0.4946  0.3595  0.0083
17560TIP3    H174095   0.716   2.524   6.419 -1.0447 -0.1482  2.8245
17560TIP3    H274096   0.604   2.616   6.373  0.5405  0.3862 -0.0764
17561TIP3   OH274097   0.984   5.879   1.796  0.6438  0.3936 -0.0835
17561TIP3    H174098   1.012   5.823   1.723 -0.3068  0.6828 -0.6672
17561TIP3    H274099   0.895   5.850   1.816  1.3106 -0.4859  1.7526
17562TIP3   OH274100   2.541   6.594   2.945 -0.2039  0.0219 -0.0835
17562TIP3    H174101   2.603   6.636   3.003  1.9474 -1.6657 -1.0863
17562TIP3    H274102   2.551   6.640   2.861  2.2841 -2.4904 -1.2339
17563TIP3   OH274103   3.554   6.539  15.752 -0.1650  0.8405  0.2422
17563TIP3    H174104   3.585   6.628  15.734  0.7198  0.8451  1.7433
17563TIP3    H274105   3.493   6.550  15.825 -0.3094  0.2636  0.2057
17564TIP3   OH274106   3.430   2.713   1.103 -0.3993 -0.5256 -0.0785
17564TIP3    H174107   3.422   2.808   1.096  2.1237 -0.1703  1.0618
17564TIP3    H274108   3.512   2.693   1.058  0.8713 -1.6846  2.6077
17565TIP3   OH274109   1.833   2.978  14.397 -0.6269 -0.0527 -0.0515
17565TIP3    H174110   1.891   3.026  14.338  0.8473 -0.1625  1.2805
17565TIP3    H274111   1.843   2.887  14.372  0.4694 -0.1613  0.7550
17566TIP3   OH274112   3.555   1.598  15.801  0.4232 -0.1138  0.0819
17566TIP3    H174113   3.645   1.595  15.833  0.4969 -0.0815 -0.1247
17566TIP3    H274114   3.508   1.535  15.856  1.0756 -1.9637 -1.4170
17567TIP3   OH274115   5.306   5.630  16.105  0.2784 -0.2572 -0.2635
17567TIP3    H174116   5.380   5.589  16.059  1.6723  1.6214  0.1966
17567TIP3    H274117   5.300   5.717  16.065  0.6113  0.9077  2.1291
17568TIP3   OH274118   0.210   1.527   2.512  0.4861  0.1419  0.1559
17568TIP3    H174119   0.178   1.586   2.580 -0.4707 -1.2412  0.9292
17568TIP3    H274120   0.131   1.499   2.465  0.9597 -0.2858 -0.4040
17569TIP3   OH274121   3.920   1.291   5.120  0.3543 -0.3422 -0.0825
17569TIP3    H174122   4.003   1.299   5.167  1.3946 -1.4605 -1.6675
17569TIP3    H274123   3.942   1.310   5.028 -1.1569 -0.5667 -0.5152
17570TIP3   OH274124   3.111   4.729  16.470 -0.0395  0.6780  0.1765
17570TIP3    H174125   3.163   4.791  16.419 -0.8420  0.9621 -0.3024
17570TIP3    H274126   3.154   4.645  16.454  0.4561  0.9529  0.0267
17571TIP3   OH274127   6.293   1.211  17.076  0.5299 -0.2362 -0.1731
17571TIP3    H174128   6.224   1.149  17.100  1.4151 -0.8637  0.8024
17571TIP3    H274129   6.284   1.222  16.982 -0.8944 -0.3153 -0.0549
17572TIP3   OH274130   4.336   3.980  10.708 -0.4262 -0.2477 -0.3658
17572TIP3    H174131   4.400   3.927  10.756  1.1715  1.5469 -0.4349
17572TIP3    H274132   4.273   4.008  10.774 -0.2626 -0.7411  0.0033
17573TIP3   OH274133   0.648   5.505  11.540 -0.3218 -0.4817 -0.1082
17573TIP3    H174134   0.705   5.512  11.616  1.0912 -0.0118 -1.1841
17573TIP3    H274135   0.583   5.574  11.551 -0.4998 -0.8113  0.9631
17574TIP3   OH274136   3.959   4.212  16.177  0.1947  0.1747 -0.7847
17574TIP3    H174137   3.992   4.134  16.132 -1.1997  0.5758 -2.5751
17574TIP3    H274138   3.984   4.284  16.120  0.7535  0.9649  0.4539
17575TIP3   OH274139   5.869   2.057  13.246  0.5106 -0.0669  0.8663
17575TIP3    H174140   5.946   2.073  13.301  1.0889  0.7248 -0.1527
17575TIP3    H274141   5.895   1.984  13.190  1.5547  1.8764 -1.3142
17576TIP3   OH274142   6.751   2.509   3.488  0.2851 -0.3991 -0.3023
17576TIP3    H174143   6.833   2.462   3.471 -0.4227 -1.6088 -0.4214
17576TIP3    H274144   6.686   2.440   3.500 -0.4819  0.5409  0.9911
17577TIP3   OH274145   5.241   3.741  14.816 -0.9759 -0.4688  0.6437
17577TIP3    H174146   5.222   3.653  14.847 -0.0286 -0.3211  1.6894
17577TIP3    H274147   5.257   3.730  14.722 -1.1517 -1.3629  0.7113
17578TIP3   OH274148   4.787   6.091  13.238  0.8109 -0.0885  0.0681
17578TIP3    H174149   4.835   6.045  13.169  1.2208  1.6564 -0.8368
17578TIP3    H274150   4.697   6.063  13.228  1.0885 -0.8416 -0.3411
17579TIP3   OH274151   3.245   5.788   3.435 -0.3733  0.2185 -0.3475
17579TIP3    H174152   3.258   5.793   3.340  0.6879  3.4159 -0.1131
17579TIP3    H274153   3.297   5.712   3.463  1.3141  0.7107 -2.0362
17580TIP3   OH274154   6.591   0.388   4.793  0.2265 -0.0611  0.1065
17580TIP3    H174155   6.622   0.363   4.706 -2.0593 -0.1754 -0.7292
17580TIP3    H274156   6.592   0.483   4.794  2.0817 -0.0785  0.6654
17581TIP3   OH274157   1.888   1.356   0.568  0.5389  0.2103 -0.4181
17581TIP3    H174158   1.883   1.414   0.491  0.1463 -1.0815 -1.3850
17581TIP3    H274159   1.852   1.273   0.537  1.4011 -0.6516  0.8626
17582TIP3   OH274160   5.575   3.354   5.612 -0.9886  0.1213  0.8025
17582TIP3    H174161   5.670   3.349   5.622 -0.8547  1.5259  0.2373
17582TIP3    H274162   5.541   3.294   5.679  0.2933 -0.6632  0.7629
17583TIP3   OH274163   3.208   6.749  11.373 -0.5017  0.5706 -0.1518
17583TIP3    H174164   3.204   6.717  11.463  1.9104  0.4364 -0.0571
17583TIP3    H274165   3.301   6.766  11.358 -1.1281  2.7470 -1.8749
17584TIP3   OH274166   6.637   5.601  11.609 -0.0065 -0.1078  0.4093
17584TIP3    H174167   6.696   5.666  11.648  0.3591  0.0928 -0.4848
17584TIP3    H274168   6.557   5.651  11.591  0.8160  0.4920 -1.7380
17585TIP3   OH274169   1.190   2.357  14.614 -0.0442  0.6414 -0.2299
17585TIP3    H174170   1.231   2.366  14.528 -0.4851 -0.3409 -0.5462
17585TIP3    H274171   1.142   2.275  14.609 -1.8467  1.6443  0.2243
17586TIP3   OH274172   0.883   0.626  17.037  1.1564 -0.4214 -0.1703
17586TIP3    H174173   0.802   0.595  16.996 -0.9045  2.0924  1.8073
17586TIP3    H274174   0.941   0.647  16.964 -0.8360 -0.1024 -1.7126
17587TIP3   OH274175   3.207   3.321  11.207 -0.3585  0.1212 -0.8487
17587TIP3    H174176   3.166   3.237  11.185 -1.5026  0.8425 -1.4836
17587TIP3    H274177   3.278   3.298  11.268 -1.6980 -1.1291  0.2680
17588TIP3   OH274178   1.576   6.076   0.903  0.4903 -0.2880  0.6294
17588TIP3    H174179   1.652   6.065   0.846  0.1057 -1.8718  0.3750
17588TIP3    H274180   1.557   5.987   0.933 -0.6204  0.2441  1.5285
17589TIP3   OH274181   0.728   4.331  15.609 -0.0167 -0.1083  0.6076
17589TIP3    H174182   0.701   4.240  15.601 -1.2369  0.3242 -0.2966
17589TIP3    H274183   0.646   4.380  15.611  0.6690  1.2367 -2.1995
17590TIP3   OH274184   1.591   5.207   6.473 -0.6977 -0.0693 -0.3034
17590TIP3    H174185   1.635   5.221   6.556  0.1846 -1.3347 -0.5487
17590TIP3    H274186   1.579   5.294   6.437  0.2215  0.3791  0.4749
17591TIP3   OH274187   5.952   3.384   5.522 -0.2629  0.5246  0.2044
17591TIP3    H174188   5.881   3.447   5.535  0.9221  1.8921  0.2524
17591TIP3    H274189   6.010   3.426   5.458 -0.5692 -1.4937 -1.4240
17592TIP3   OH274190   6.604   3.302   0.549  0.0677  0.0648  0.3064
17592TIP3    H174191   6.699   3.315   0.557 -0.1906  1.2610  1.5653
17592TIP3    H274192   6.594   3.246   0.472  1.6128  2.5326 -1.7558
17593TIP3   OH274193   4.543   5.074  11.656  0.0323 -0.0037  0.1709
17593TIP3    H174194   4.485   4.999  11.668 -1.6648  1.1936 -0.2847
17593TIP3    H274195   4.584   5.060  11.571  0.6247 -1.0064  0.6218
17594TIP3   OH274196   5.108   1.905   1.219 -0.4128  0.6394  0.0041
17594TIP3    H174197   5.118   1.838   1.287 -0.0715 -0.8289 -1.4732
17594TIP3    H274198   5.127   1.988   1.264 -1.9917 -0.1185  2.1346
17595TIP3   OH274199   0.680   1.644   0.863 -0.2551  0.3976 -0.2743
17595TIP3    H174200   0.645   1.608   0.944 -2.4860  1.1251 -0.8820
17595TIP3    H274201   0.627   1.605   0.794  0.2767  1.3583 -1.2577
17596TIP3   OH274202   6.689   1.859   4.683 -0.0731  0.0986  0.1705
17596TIP3    H174203   6.659   1.850   4.773  1.2848  0.3350  0.6646
17596TIP3    H274204   6.715   1.770   4.657 -1.5493 -0.1764 -0.3906
17597TIP3   OH274205   3.413   1.858   3.454  0.1892 -0.0765 -0.6103
17597TIP3    H174206   3.469   1.892   3.523  0.0827  2.4880 -1.7307
17597TIP3    H274207   3.464   1.786   3.416  0.6441 -0.8963  1.4756
17598TIP3   OH274208   0.163   3.429  11.587  0.5083  0.1777  0.5441
17598TIP3    H174209   0.129   3.507  11.544  0.6898  0.3284  0.6747
17598TIP3    H274210   0.258   3.439  11.583  0.5764 -0.8503 -0.9672
17599TIP3   OH274211   4.401   5.501  12.172  0.1049  0.1661 -0.2168
17599TIP3    H174212   4.396   5.408  12.191  0.5233 -0.0058 -0.9098
17599TIP3    H274213   4.316   5.522  12.133 -0.5204  0.3881  1.2369
17600TIP3   OH274214   1.280   1.004  11.734  0.1507  0.4209 -0.5060
17600TIP3    H174215   1.209   0.939  11.730  2.0331 -1.5812 -3.7664
17600TIP3    H274216   1.351   0.959  11.779  0.6043  1.1275 -0.5201
17601TIP3   OH274217   3.859   2.318  11.777  0.0226  0.6545  0.1793
17601TIP3    H174218   3.768   2.316  11.807 -0.2175  0.8430 -0.5261
17601TIP3    H274219   3.870   2.404  11.738  0.6963  0.8730  0.8248
17602TIP3   OH274220   4.763   0.538  13.620  0.2522  0.5307 -0.0841
17602TIP3    H174221   4.756   0.509  13.711  1.4749 -0.3658 -0.2622
17602TIP3    H274222   4.844   0.498  13.589 -0.7091 -0.0314 -1.8912
17603TIP3   OH274223   1.249   3.449  15.903 -0.3051 -0.2298 -0.0023
17603TIP3    H174224   1.254   3.364  15.860 -1.1323 -1.0742  1.5063
17603TIP3    H274225   1.201   3.505  15.842  2.2292 -0.1649 -2.0068
17604TIP3   OH274226   1.887   1.211  11.719 -0.1816 -0.3818 -0.5579
17604TIP3    H174227   1.943   1.205  11.796  0.7989 -0.4052 -1.2604
17604TIP3    H274228   1.847   1.125  11.712  1.1174 -0.9561 -1.0990
17605TIP3   OH274229   2.286   0.073  12.236  0.1669  0.3612 -0.2646
17605TIP3    H174230   2.340   0.152  12.240 -0.3866  0.7284  0.0870
17605TIP3    H274231   2.325   0.013  12.300 -1.4240  1.6467  2.0064
17606TIP3   OH274232   0.051   3.566  12.571  0.1101  0.3035  0.3299
17606TIP3    H174233   0.110   3.497  12.541 -2.5192 -2.0982  0.4658
17606TIP3    H274234   0.016   3.604  12.490 -0.1509 -0.0237  0.2935
17607TIP3   OH274235   6.432   5.491   4.209 -0.3762  0.8199 -0.0786
17607TIP3    H174236   6.459   5.424   4.272 -2.4894  0.1882  0.2072
17607TIP3    H274237   6.422   5.571   4.260  3.3261  1.7297 -0.6220
17608TIP3   OH274238   3.910   1.869  13.965 -0.7169  0.1063  0.0501
17608TIP3    H174239   3.982   1.877  13.901 -1.1658  1.3879 -0.3273
17608TIP3    H274240   3.936   1.797  14.022  0.0560 -0.5679 -1.1263
17609TIP3   OH274241   6.079   5.881   3.582  0.3922 -0.1159  0.2994
17609TIP3    H174242   6.136   5.928   3.522  0.2197  0.3690  0.5091
17609TIP3    H274243   6.138   5.833   3.639  0.5381 -1.0526 -0.6377
17610TIP3   OH274244   5.995   2.757  13.818 -0.2432 -0.0717 -0.0456
17610TIP3    H174245   5.918   2.780  13.765 -0.1172 -1.4630 -0.8668
17610TIP3    H274246   6.027   2.841  13.852 -0.2763  0.8789 -2.2479
17611TIP3   OH274247   0.624   4.669  12.597 -0.5093 -0.3891 -0.1131
17611TIP3    H174248   0.625   4.758  12.563 -0.7588 -0.8631 -1.3898
17611TIP3    H274249   0.711   4.656  12.636  0.2900 -0.3040 -1.8317
17612TIP3   OH274250   3.278   6.104   4.957  0.2395  0.4106 -0.3764
17612TIP3    H174251   3.332   6.039   5.002  1.7438  1.3643 -0.7847
17612TIP3    H274252   3.323   6.187   4.971 -1.6234  1.3636  0.0576
17613TIP3   OH274253   2.053   0.049  17.026  0.3253 -0.3670  0.2386
17613TIP3    H174254   2.091  -0.022  17.078  1.0282  0.4220  0.8106
17613TIP3    H274255   2.127   0.088  16.980 -0.0703 -0.0575 -0.1394
17614TIP3   OH274256   6.771   6.171  13.864  0.8190  0.3523  0.5411
17614TIP3    H174257   6.702   6.193  13.926 -0.9205 -0.2916 -1.1101
17614TIP3    H274258   6.755   6.080  13.841  0.8750  0.8119 -1.4870
17615TIP3   OH274259   4.556   3.303  11.144 -0.0813 -1.0907 -0.1332
17615TIP3    H174260   4.481   3.299  11.204 -1.5447 -0.8872 -1.9014
17615TIP3    H274261   4.517   3.299  11.057  1.8613  0.7826 -1.1248
17616TIP3   OH274262   5.690   4.603   2.641  0.2388 -0.2700 -0.2857
17616TIP3    H174263   5.737   4.595   2.558  0.6043 -2.2209  0.0753
17616TIP3    H274264   5.674   4.697   2.651  3.0900  0.3376 -0.9593
17617TIP3   OH274265   6.636   3.783   6.202  0.0219  0.0212 -0.2777
17617TIP3    H174266   6.711   3.825   6.245 -0.6673  0.1408  0.8505
17617TIP3    H274267   6.563   3.797   6.263 -0.2685 -2.6503  0.0233
17618TIP3   OH274268   2.663   5.425  15.660 -0.2260  0.0021 -0.3923
17618TIP3    H174269   2.718   5.433  15.737 -0.2299  0.4488 -0.4340
17618TIP3    H274270   2.699   5.350  15.613 -0.6818 -0.7244  0.4070
17619TIP3   OH274271   0.447   3.823  13.277  1.1779 -0.3514 -0.5537
17619TIP3    H174272   0.540   3.841  13.260  2.6468 -3.0831  3.8156
17619TIP3    H274273   0.425   3.882  13.349  0.0913 -1.0786 -0.2905
17620TIP3   OH274274   5.918   5.415  10.643 -0.1182  0.3954  0.2194
17620TIP3    H174275   5.933   5.509  10.651 -0.7270  0.5086  0.0120
17620TIP3    H274276   5.849   5.406  10.577 -0.0924 -0.1939  0.2661
17621TIP3   OH274277   2.444   2.273  16.855 -0.2166 -0.5742  0.0502
17621TIP3    H174278   2.524   2.311  16.891 -1.0075  2.1282 -0.9416
17621TIP3    H274279   2.405   2.225  16.928  1.1713 -0.0591  1.1513
17622TIP3   OH274280   5.708   0.800   5.777 -0.3740 -0.5206  0.7113
17622TIP3    H174281   5.765   0.726   5.799  1.2066  0.4416 -0.0671
17622TIP3    H274282   5.715   0.807   5.682  0.5890  1.5052  0.9177
17623TIP3   OH274283   1.220   4.646   3.455 -0.1190  0.5198 -0.5170
17623TIP3    H174284   1.143   4.685   3.497 -1.8994 -2.0574 -1.1973
17623TIP3    H274285   1.267   4.603   3.526 -0.2813  0.5826 -0.3707
17624TIP3   OH274286   5.897   2.020   0.084  0.5649  0.7255 -0.2407
17624TIP3    H174287   5.878   2.078   0.158  1.2618 -0.2956  0.7606
17624TIP3    H274288   5.976   2.057   0.044  1.3608  0.1390  0.7666
17625TIP3   OH274289   2.533   3.150   2.322 -0.8579 -0.0640 -0.0595
17625TIP3    H174290   2.544   3.176   2.414 -0.6984  0.8863 -0.3356
17625TIP3    H274291   2.560   3.059   2.319 -0.8384 -0.0956  0.8370
17626TIP3   OH274292   4.574   4.011   6.233  0.6185  0.2771  0.4697
17626TIP3    H174293   4.615   4.027   6.318 -1.8952  1.6493  1.4988
17626TIP3    H274294   4.488   3.973   6.255 -0.4971  1.6566 -1.3780
17627TIP3   OH274295   5.560   6.724   0.996 -0.4619 -0.3024 -0.0662
17627TIP3    H174296   5.500   6.693   0.929 -0.0898  3.0558 -2.0643
17627TIP3    H274297   5.647   6.706   0.962 -0.2747 -2.2803  1.3918
17628TIP3   OH274298   4.326   6.225  11.823  0.1331 -0.2344  0.3644
17628TIP3    H174299   4.375   6.155  11.780 -0.7956 -0.1559 -0.8388
17628TIP3    H274300   4.391   6.270  11.877  0.8982 -1.5372  0.5502
17629TIP3   OH274301   5.711   4.733   2.090 -0.1111 -0.1115 -0.2306
17629TIP3    H174302   5.748   4.646   2.074  2.4630  0.6569  1.2559
17629TIP3    H274303   5.776   4.793   2.054 -1.0829  1.2465  0.2574
17630TIP3   OH274304   3.632   4.722   3.204 -0.4429 -0.5750 -0.5804
17630TIP3    H174305   3.593   4.675   3.276 -1.3828 -1.0944 -1.4228
17630TIP3    H274306   3.563   4.728   3.138  0.1486  0.5929 -1.1138
17631TIP3   OH274307   5.319   5.862   3.976 -0.1451  0.3109 -0.3823
17631TIP3    H174308   5.276   5.942   4.006 -1.3817 -0.3835 -0.2762
17631TIP3    H274309   5.359   5.886   3.893 -0.7737  0.9599 -0.5008
17632TIP3   OH274310   1.073   4.070   5.160 -0.2206 -0.3590 -0.0723
17632TIP3    H174311   1.031   4.019   5.229 -1.1242 -1.9209 -1.7284
17632TIP3    H274312   1.076   4.011   5.085  0.7296  1.3004 -1.3795
17633TIP3   OH274313   4.129   3.363   3.145  0.3538 -0.2021 -0.3154
17633TIP3    H174314   4.170   3.431   3.092 -0.0924  1.0566  0.9501
17633TIP3    H274315   4.186   3.355   3.222 -0.0429 -0.6953 -0.0715
17634TIP3   OH274316   4.247   1.935   0.202  0.5158 -0.5044 -0.2400
17634TIP3    H174317   4.163   1.976   0.221  0.9419  0.2173  0.1050
17634TIP3    H274318   4.261   1.873   0.273  0.3376 -0.5260 -0.2253
17635TIP3   OH274319   1.863   4.889  15.505 -0.1170  0.0572  0.1442
17635TIP3    H174320   1.953   4.872  15.535 -0.5187  0.9897  1.9932
17635TIP3    H274321   1.836   4.808  15.462  1.1079 -0.7385  0.8383
17636TIP3   OH274322   5.701   2.765   0.642 -0.5579 -0.0146 -0.3827
17636TIP3    H174323   5.719   2.689   0.587 -0.3286  0.6248 -1.1895
17636TIP3    H274324   5.606   2.765   0.652 -0.3875 -2.0745  2.0146
17637TIP3   OH274325   1.177   1.756  12.571 -0.6887 -0.2925 -0.5725
17637TIP3    H174326   1.088   1.788  12.579 -0.6873 -0.5308  0.3790
17637TIP3    H274327   1.169   1.660  12.570 -0.4330 -0.3167 -0.3716
17638TIP3   OH274328   0.442   2.853   0.703 -0.0011  0.0684  0.4396
17638TIP3    H174329   0.371   2.856   0.638 -0.8187 -0.7255  1.2733
17638TIP3    H274330   0.516   2.815   0.656 -0.6377 -0.6515  0.0076
17639TIP3   OH274331   2.969   3.708   5.289  0.0908 -0.0903 -0.4521
17639TIP3    H174332   2.909   3.770   5.330 -0.7419 -2.0696  1.4055
17639TIP3    H274333   2.915   3.659   5.228  0.9378  1.5639 -2.6045
17640TIP3   OH274334   1.164   0.361   2.333 -0.1142 -0.3944 -0.1160
17640TIP3    H174335   1.190   0.443   2.291  0.3202 -1.5006 -2.0744
17640TIP3    H274336   1.076   0.344   2.299  0.2510 -1.3152 -0.6190
17641TIP3   OH274337   5.250   0.189   4.530  0.0349 -0.8074 -0.0793
17641TIP3    H174338   5.236   0.121   4.464 -0.0431 -0.1730 -0.7282
17641TIP3    H274339   5.310   0.251   4.489 -1.0786  0.3020 -0.0922
17642TIP3   OH274340   5.720   1.463  12.268 -0.4848  0.2619  0.4285
17642TIP3    H174341   5.667   1.455  12.347  0.8617 -2.2911  1.1361
17642TIP3    H274342   5.703   1.382  12.220  0.7568  0.6076 -0.6077
17643TIP3   OH274343   3.294   2.665   6.439  0.0349  0.5100  0.3103
17643TIP3    H174344   3.328   2.577   6.424  1.4617  0.9356  0.9314
17643TIP3    H274345   3.220   2.673   6.379  0.0870 -0.9945  0.0249
17644TIP3   OH274346   0.514   3.923  14.712 -0.1166  0.3952  0.0714
17644TIP3    H174347   0.458   3.863  14.761  0.5734  1.1633  1.8393
17644TIP3    H274348   0.458   3.956  14.642 -1.5916  0.4436  1.2524
17645TIP3   OH274349   1.192   2.363  16.779 -0.7575  0.5986  0.1055
17645TIP3    H174350   1.175   2.409  16.697  2.9065  0.3877 -0.8962
17645TIP3    H274351   1.284   2.384  16.799 -0.2857 -2.7748  1.8779
17646TIP3   OH274352   5.231   4.763  16.653 -0.2492 -0.1146 -0.0463
17646TIP3    H174353   5.258   4.686  16.602 -0.9687  0.0591 -0.7133
17646TIP3    H274354   5.274   4.837  16.610 -1.7006  0.1620 -1.1035
17647TIP3   OH274355   0.439   3.822   0.665  0.0800 -0.9349 -0.1846
17647TIP3    H174356   0.507   3.774   0.713  0.2751 -1.7065 -1.2206
17647TIP3    H274357   0.369   3.759   0.652  0.4010 -0.9893 -1.6944
17648TIP3   OH274358   0.450   2.199   5.716 -0.7455  0.1742 -0.2703
17648TIP3    H174359   0.367   2.163   5.746 -0.6779  1.2884  1.3357
17648TIP3    H274360   0.426   2.277   5.666 -0.6633  0.7607  0.5888
17649TIP3   OH274361   4.554   3.230  12.662  0.0774  0.3224 -0.4938
17649TIP3    H174362   4.530   3.140  12.638 -0.6183  0.3523  0.0908
17649TIP3    H274363   4.482   3.284  12.630 -0.1999  0.5107  0.4518
17650TIP3   OH274364   5.870   0.730  15.984 -0.3055  0.3550 -0.2992
17650TIP3    H174365   5.942   0.701  15.928 -0.2161  1.8125 -0.9651
17650TIP3    H274366   5.912   0.772  16.058 -0.4327 -1.0852  0.5884
17651TIP3   OH274367   1.533   2.500   6.129  0.2094  0.6568  0.0942
17651TIP3    H174368   1.527   2.422   6.075  3.6705 -0.6674  1.4467
17651TIP3    H274369   1.478   2.481   6.205  1.1807 -0.5734  0.5082
17652TIP3   OH274370   2.342   4.902  14.069 -0.4459  0.2564 -0.6457
17652TIP3    H174371   2.393   4.961  14.124 -0.9586 -0.2586  0.3899
17652TIP3    H274372   2.275   4.866  14.127 -1.0046 -0.2860 -1.6056
17653TIP3   OH274373   3.606   2.279  11.892  0.4262 -0.0063  0.0571
17653TIP3    H174374   3.537   2.247  11.950 -0.1596 -3.6283 -2.4544
17653TIP3    H274375   3.564   2.350  11.842 -1.2279 -1.4234 -0.6617
17654TIP3   OH274376   2.558   2.656  12.696  0.1873 -0.0614 -0.0469
17654TIP3    H174377   2.567   2.603  12.775 -3.1168  0.4394  0.7404
17654TIP3    H274378   2.634   2.634  12.643  1.7901 -1.3607  2.7110
17655TIP3   OH274379   6.149   1.993  15.582  0.2839 -0.1829 -0.0700
17655TIP3    H174380   6.122   1.967  15.493  0.0357  1.3197 -0.4534
17655TIP3    H274381   6.241   2.017  15.573  0.6131 -1.2730  0.3586
17656TIP3   OH274382   4.120   5.915   2.703 -0.1891 -0.6718  0.4623
17656TIP3    H174383   4.155   5.853   2.639 -1.9153  0.4133 -1.5547
17656TIP3    H274384   4.059   5.863   2.755  0.0821 -1.1907  0.2722
17657TIP3   OH274385   4.830   6.376   5.255 -0.0661  0.7502 -0.2454
17657TIP3    H174386   4.822   6.427   5.335 -0.9383  0.0985  0.1001
17657TIP3    H274387   4.923   6.355   5.249 -0.4127 -1.8139  2.2918
17658TIP3   OH274388   4.949   3.561  14.659  0.5824 -0.1710  0.0136
17658TIP3    H174389   4.905   3.636  14.619  0.9776  1.3839  2.3925
17658TIP3    H274390   4.889   3.488  14.646 -0.0625  0.6572 -1.8295
17659TIP3   OH274391   5.518   5.268   0.885  0.1359 -0.7662  0.4071
17659TIP3    H174392   5.458   5.198   0.907  0.1952 -1.7559 -2.3086
17659TIP3    H274393   5.597   5.249   0.935 -0.6196 -1.3573  1.3928
17660TIP3   OH274394   3.212   1.851  14.840 -0.2949  0.1675 -0.0837
17660TIP3    H174395   3.234   1.944  14.840  2.6525 -0.4961 -1.9676
17660TIP3    H274396   3.260   1.814  14.914  2.1923 -0.6197 -2.0208
17661TIP3   OH274397   2.135   3.923   0.697 -0.1441 -0.1681  0.7189
17661TIP3    H174398   2.184   3.966   0.767  2.4903  0.5175 -1.4547
17661TIP3    H274399   2.064   3.984   0.678  0.9996  1.1972  0.6418
17662TIP3   OH274400   2.307   3.478  17.005 -0.8779 -0.3315 -0.2699
17662TIP3    H174401   2.325   3.528  17.085 -0.4282 -0.0987 -0.5114
17662TIP3    H274402   2.216   3.450  17.015 -0.6305 -0.8492  0.6227
17663TIP3   OH274403   4.607   5.988  11.259 -0.1712  0.2026  0.5304
17663TIP3    H174404   4.522   5.945  11.244 -0.2265  0.5930 -0.2974
17663TIP3    H274405   4.667   5.916  11.276 -0.4971 -0.1357  0.2683
17664TIP3   OH274406   1.165   6.387   1.757  0.6167  0.2334  0.0133
17664TIP3    H174407   1.244   6.439   1.744  1.7753 -1.0972  1.5552
17664TIP3    H274408   1.116   6.432   1.825  1.7990 -0.8630  1.6133
17665TIP3   OH274409   1.193   4.662   3.188  0.0484  0.3923  0.4308
17665TIP3    H174410   1.197   4.656   3.284 -1.5702  1.3262  0.5816
17665TIP3    H274411   1.278   4.698   3.163  0.4090  0.3540  1.5511
17666TIP3   OH274412   2.617   5.594   5.737  0.3511 -0.1054 -0.5323
17666TIP3    H174413   2.669   5.517   5.713  0.8639  0.2769 -0.6493
17666TIP3    H274414   2.678   5.668   5.730  0.0619  0.2225  0.3064
17667TIP3   OH274415   1.783   4.159   3.695  0.5526  0.0028  0.7205
17667TIP3    H174416   1.859   4.158   3.752 -0.6636 -0.6148  2.3582
17667TIP3    H274417   1.755   4.250   3.693  0.2031 -0.0879  1.6354
17668TIP3   OH274418   3.301   5.301  16.241  0.4723  0.0212  0.8243
17668TIP3    H174419   3.343   5.349  16.312  1.1982 -1.5317  1.4638
17668TIP3    H274420   3.334   5.343  16.161 -0.4999  1.9015  1.3666
17669TIP3   OH274421   4.932   6.238   0.878 -0.1476  0.4705 -0.2076
17669TIP3    H174422   4.877   6.315   0.891 -0.3921  0.5241 -1.5233
17669TIP3    H274423   4.871   6.166   0.864  0.1019  0.5834 -1.9603
17670TIP3   OH274424   5.320   6.353   4.021 -0.0221 -0.6283 -0.6465
17670TIP3    H174425   5.253   6.286   4.016 -2.0479  1.2958 -0.2464
17670TIP3    H274426   5.381   6.332   3.951  0.0327 -3.5300  0.2186
17671TIP3   OH274427   0.180   4.224   5.988 -0.1605 -0.4260 -0.3654
17671TIP3    H174428   0.200   4.253   6.077 -3.8173  0.0812  0.3686
17671TIP3    H274429   0.185   4.304   5.935 -0.2529 -0.3101 -0.1977
17672TIP3   OH274430   5.672   3.400   2.025  0.0210 -0.0202  0.0606
17672TIP3    H174431   5.679   3.309   2.055 -1.0427 -0.0029  0.3878
17672TIP3    H274432   5.722   3.450   2.089  2.1237 -0.5549 -1.1084
17673TIP3   OH274433   4.502   2.813  11.705  0.5320  0.0794 -0.5967
17673TIP3    H174434   4.469   2.827  11.794 -0.3781 -0.0020 -0.9181
17673TIP3    H274435   4.502   2.900  11.665  1.2358  0.1640 -0.4226
17674TIP3   OH274436   4.142   5.616  14.565 -0.1162 -0.4791  0.0899
17674TIP3    H174437   4.160   5.523  14.578 -2.3211 -0.9876 -0.3608
17674TIP3    H274438   4.091   5.642  14.642  0.6700  0.4249  0.3207
17675TIP3   OH274439   1.068   2.327  14.135  0.5945 -0.1138  0.0510
17675TIP3    H174440   0.987   2.276  14.134 -0.0775  0.9355  0.1599
17675TIP3    H274441   1.090   2.340  14.042 -0.0533  0.6674  0.0007
17676TIP3   OH274442   3.529   2.646  14.965  0.1182 -0.4653  0.0631
17676TIP3    H174443   3.594   2.635  15.034 -0.2492 -1.3901  0.2638
17676TIP3    H274444   3.445   2.649  15.011 -0.1651 -1.5457 -0.3705
17677TIP3   OH274445   0.292   5.037  13.013  0.1990  0.3966 -0.0431
17677TIP3    H174446   0.376   5.044  12.967 -0.1342  0.6606 -0.6218
17677TIP3    H274447   0.264   5.127  13.024 -0.1705  0.2943 -0.1550
17678TIP3   OH274448   1.826   5.652   4.771 -0.3662  0.0652 -0.1039
17678TIP3    H174449   1.786   5.724   4.722  0.8180  0.1019 -1.0359
17678TIP3    H274450   1.916   5.648   4.739 -0.4331 -1.8663 -0.0942
17679TIP3   OH274451   5.310   2.107  14.707 -0.8571  0.6644  0.0365
17679TIP3    H174452   5.256   2.066  14.774 -0.9541 -0.5038 -0.7460
17679TIP3    H274453   5.287   2.200  14.711 -3.7177  0.0576 -1.0014
17680TIP3   OH274454   5.805   3.005   0.702 -0.4830 -0.4977  0.0475
17680TIP3    H174455   5.779   2.923   0.661  0.5137  0.0428 -1.7359
17680TIP3    H274456   5.725   3.039   0.740 -1.0490 -1.9674  0.2079
17681TIP3   OH274457   0.216   2.696  15.323 -0.1348  0.5547 -0.5248
17681TIP3    H174458   0.129   2.730  15.305 -0.0280  0.3158 -1.5338
17681TIP3    H274459   0.267   2.772  15.348 -0.4808  0.7918 -0.5355
17682TIP3   OH274460   4.957   3.780  12.793 -0.2467 -0.2529 -0.0185
17682TIP3    H174461   5.028   3.738  12.843 -0.5618  0.3055  0.9099
17682TIP3    H274462   4.935   3.716  12.725  0.4071 -0.8875  0.3521
17683TIP3   OH274463   4.460   1.592   1.837  0.1371 -0.7481 -0.1688
17683TIP3    H174464   4.553   1.583   1.856  0.3699 -1.1882 -1.4842
17683TIP3    H274465   4.456   1.620   1.746 -1.0056 -0.0666  0.0797
17684TIP3   OH274466   2.338   2.792  14.963 -0.5103 -0.0536 -0.3714
17684TIP3    H174467   2.326   2.773  14.870 -1.6171  0.2691 -0.2976
17684TIP3    H274468   2.420   2.748  14.986 -1.1177 -1.5800 -1.0840
17685TIP3   OH274469   3.708   3.517  17.101 -0.9713  0.1024  0.0568
17685TIP3    H174470   3.660   3.599  17.096 -0.2121  0.5443 -0.1148
17685TIP3    H274471   3.660   3.465  17.165 -1.2214  0.8436  0.4851
17686TIP3   OH274472   5.154   4.402  17.079  0.2740  0.0220 -0.1804
17686TIP3    H174473   5.059   4.398  17.089  0.4895  0.2317  2.4165
17686TIP3    H274474   5.176   4.494  17.092  0.8767 -0.0909 -0.3737
17687TIP3   OH274475   4.597   0.744  13.965  0.0740  0.3994  0.1850
17687TIP3    H174476   4.532   0.788  14.020 -0.3235  1.7726 -1.3248
17687TIP3    H274477   4.552   0.665  13.934  0.1258 -0.1202  1.4041
17688TIP3   OH274478   0.210   4.997   5.657  0.0428 -0.5684  0.3801
17688TIP3    H174479   0.186   4.983   5.565  0.8522 -0.7091  0.1862
17688TIP3    H274480   0.144   4.950   5.707 -0.9263  0.2577 -0.1059
17689TIP3   OH274481   1.632   6.356   1.049 -0.1325 -0.3801  0.3538
17689TIP3    H174482   1.573   6.412   1.100 -0.1526  2.0662 -2.2238
17689TIP3    H274483   1.590   6.270   1.049 -3.7543  1.2700 -1.3378
17690TIP3   OH274484   5.818   4.560  12.143  0.0631  0.1833 -0.1782
17690TIP3    H174485   5.881   4.526  12.080  2.6828 -0.1797  2.5158
17690TIP3    H274486   5.843   4.652  12.154 -0.0591  0.1133  0.6922
17691TIP3   OH274487   0.874   1.068  15.816  0.1772 -0.1432 -0.0700
17691TIP3    H174488   0.905   0.979  15.830  1.4400  0.8244  3.9568
17691TIP3    H274489   0.932   1.122  15.870 -0.3130  3.1882 -2.7108
17692TIP3   OH274490   3.149   1.403  14.828  0.5671 -0.3509 -0.0463
17692TIP3    H174491   3.096   1.471  14.870  0.7600 -0.3174  0.1402
17692TIP3    H274492   3.223   1.390  14.887 -0.5780 -2.2789  1.0170
17693TIP3   OH274493   6.183   5.586  14.884  0.5211  0.1352 -0.1618
17693TIP3    H174494   6.238   5.545  14.817 -1.0484 -0.1790 -1.3012
17693TIP3    H274495   6.120   5.518  14.909 -1.0164  1.2741 -0.8130
17694TIP3   OH274496   0.923   0.185   1.805  0.1912  0.1793  0.1816
17694TIP3    H174497   0.973   0.104   1.794  1.4580  0.9539  0.1726
17694TIP3    H274498   0.941   0.212   1.895 -1.4737 -0.3650  0.6931
17695TIP3   OH274499   3.592   0.340  14.995 -0.1964 -0.2306 -0.6749
17695TIP3    H174500   3.548   0.413  14.952  1.0021  1.0673  0.2650
17695TIP3    H274501   3.660   0.381  15.049  0.9039 -2.0629 -0.6163
17696TIP3   OH274502   0.028   3.295   0.087  0.1757 -0.3349  0.1872
17696TIP3    H174503  -0.051   3.283   0.138 -0.4647 -0.3208 -0.7807
17696TIP3    H274504   0.031   3.218   0.029 -0.2539  0.6759 -1.2187
17697TIP3   OH274505   6.027   3.088   3.267  0.4935  0.2006 -0.1809
17697TIP3    H174506   6.071   3.006   3.288 -0.3358 -0.5098 -1.1769
17697TIP3    H274507   5.952   3.062   3.213  0.4544  1.6548 -0.8439
17698TIP3   OH274508   2.329   5.260  14.850 -0.0296  0.0189 -0.2154
17698TIP3    H174509   2.236   5.239  14.845 -0.1818  0.6707 -0.1971
17698TIP3    H274510   2.340   5.332  14.787 -0.0016  1.5207  1.4456
17699TIP3   OH274511   2.858   3.908   6.966  0.7089  0.3910  0.1351
17699TIP3    H174512   2.888   3.818   6.954  2.8576  1.0402  0.3929
17699TIP3    H274513   2.873   3.950   6.881  0.4544  0.6971  0.2401
17700TIP3   OH274514   3.232   3.155  13.063 -0.7334  0.4027 -0.4993
17700TIP3    H174515   3.184   3.200  12.993 -1.0307  2.0320  0.7274
17700TIP3    H274516   3.321   3.192  13.059 -1.2499  1.9330  1.1761
17701TIP3   OH274517   4.475   2.138  16.651  0.6364 -0.9086  0.6106
17701TIP3    H174518   4.424   2.185  16.717  1.5669 -1.2864  1.6373
17701TIP3    H274519   4.411   2.085  16.604 -0.6494  2.4204 -1.5348
17702TIP3   OH274520   5.981   4.321  15.673  0.6127  0.2826 -0.1102
17702TIP3    H174521   6.053   4.381  15.695  0.2444 -0.1082  2.3135
17702TIP3    H274522   5.961   4.277  15.756 -3.9835  2.0373 -0.1817
17703TIP3   OH274523   0.785   3.166  14.167  0.1267 -0.0195 -0.0142
17703TIP3    H174524   0.743   3.233  14.221 -1.4858 -1.5707  0.6853
17703TIP3    H274525   0.716   3.136  14.107  0.8851 -0.9104 -0.4610
17704TIP3   OH274526   6.172   3.349   6.535  0.5042 -0.5795 -0.7027
17704TIP3    H174527   6.258   3.391   6.532 -0.5484  1.8884  1.4441
17704TIP3    H274528   6.110   3.421   6.525 -1.3281 -2.3527 -2.4423
17705TIP3   OH274529   3.309   4.381  11.324  0.1894  0.4811 -1.1325
17705TIP3    H174530   3.326   4.316  11.393  0.3434  0.1785 -1.4535
17705TIP3    H274531   3.303   4.329  11.244  0.8139  0.9140 -1.4662
17706TIP3   OH274532   0.044   3.374  15.626  0.0829 -0.7332 -0.0050
17706TIP3    H174533   0.127   3.367  15.579  1.7141 -0.4200  2.7135
17706TIP3    H274534   0.011   3.460  15.602  0.4095 -0.9361 -1.2694
17707TIP3   OH274535   2.344   4.011  13.624  0.1484  0.1026  0.4238
17707TIP3    H174536   2.420   3.961  13.657 -0.3002 -1.7277 -1.2192
17707TIP3    H274537   2.358   4.100  13.657  3.0788 -0.1660  0.0764
17708TIP3   OH274538   1.421   5.653   0.496 -0.1322 -0.1659 -0.6341
17708TIP3    H174539   1.327   5.642   0.483 -0.5092  1.5412  0.4439
17708TIP3    H274540   1.437   5.623   0.585  0.3750 -0.5572 -0.8514
17709TIP3   OH274541   2.030   3.908   5.201  0.0886 -0.2965  0.1633
17709TIP3    H174542   2.047   3.899   5.295 -0.7358 -1.4688  0.2054
17709TIP3    H274543   2.092   3.848   5.160  0.5501  0.3238 -0.0614
17710TIP3   OH274544   3.699   4.751   2.087 -0.0358  0.1003 -0.6493
17710TIP3    H174545   3.763   4.814   2.122 -1.5139  1.7366 -0.8250
17710TIP3    H274546   3.711   4.673   2.141  1.0634  0.9177  0.3342
17711TIP3   OH274547   5.466   4.904   4.692  0.3662 -0.6191  0.2991
17711TIP3    H174548   5.518   4.835   4.734  0.3881 -0.2448  0.8986
17711TIP3    H274549   5.390   4.858   4.656 -0.3300 -0.7704  1.9205
17712TIP3   OH274550   3.209   5.688  14.682  0.3384 -0.0189  0.0370
17712TIP3    H174551   3.217   5.652  14.770  1.6340  3.2520  1.3363
17712TIP3    H274552   3.209   5.783  14.694 -0.8548  0.5069 -3.3873
17713TIP3   OH274553   2.242   5.718  13.825 -1.0242  0.4484  0.6091
17713TIP3    H174554   2.208   5.684  13.742 -1.0492 -2.4621  1.7442
17713TIP3    H274555   2.171   5.702  13.888  0.5121 -1.0936  1.9853
17714TIP3   OH274556   3.714   4.669  14.906 -0.1960 -0.0660 -0.0116
17714TIP3    H174557   3.704   4.646  14.999 -1.2795  0.1479 -0.0622
17714TIP3    H274558   3.720   4.585  14.861 -1.7879 -0.2253  0.0439
17715TIP3   OH274559   5.471   2.057  14.960  0.0894  0.4185  0.3573
17715TIP3    H174560   5.470   2.097  14.872  1.3651 -1.7748 -0.6857
17715TIP3    H274561   5.435   1.970  14.947  0.4565  0.0149  2.0085
17716TIP3   OH274562   0.726   6.029  16.570 -0.0250 -0.1401  0.5357
17716TIP3    H174563   0.674   6.107  16.550  0.2169  0.5315  2.4819
17716TIP3    H274564   0.785   6.020  16.495 -1.3120  0.4596 -0.5742
17717TIP3   OH274565   1.918   1.966   0.208  0.0752  0.2208  0.2203
17717TIP3    H174566   2.013   1.969   0.216  0.1419  0.5783 -0.6328
17717TIP3    H274567   1.902   1.917   0.127 -0.3767  2.7065 -1.2572
17718TIP3   OH274568   6.049   4.163  17.132 -0.4419 -0.5545 -0.2058
17718TIP3    H174569   6.010   4.100  17.072 -1.2180 -0.7002  0.4503
17718TIP3    H274570   6.090   4.110  17.200 -0.9914 -0.3552  0.2841
17719TIP3   OH274571   2.176   0.474   1.768 -0.2320 -0.2331  0.7437
17719TIP3    H174572   2.135   0.520   1.841  0.5326  0.4096  0.7803
17719TIP3    H274573   2.240   0.416   1.810 -0.6491 -0.7565  0.6530
17720TIP3   OH274574   2.792   3.379   2.513  0.2491 -1.4233 -0.6286
17720TIP3    H174575   2.781   3.457   2.459  1.7033  0.5813  1.8917
17720TIP3    H274576   2.715   3.378   2.570  1.6789 -0.1123  1.3846
17721TIP3   OH274577   4.131   4.278  16.957 -0.0357  0.1218  0.3188
17721TIP3    H174578   4.180   4.359  16.963 -0.2550  0.3355 -0.6573
17721TIP3    H274579   4.098   4.276  16.867 -1.1334 -0.4051  0.7209
17722TIP3   OH274580   2.557   6.053   4.983 -0.3883  0.0143  0.4152
17722TIP3    H174581   2.521   6.125   4.932  0.1957 -1.3774 -2.0371
17722TIP3    H274582   2.484   6.024   5.038 -1.5750  0.4029 -0.9197
17723TIP3   OH274583   2.703   6.676  15.484  1.0580  0.5385 -0.1847
17723TIP3    H174584   2.704   6.583  15.504  2.8819  0.1963 -1.7603
17723TIP3    H274585   2.671   6.681  15.394  1.3120  1.4226 -0.2318
17724TIP3   OH274586   0.483   1.494  12.908  0.0052  0.0301 -0.0822
17724TIP3    H174587   0.575   1.512  12.895  0.2081 -0.1650  1.0408
17724TIP3    H274588   0.459   1.540  12.988 -0.7645 -0.2596 -0.1303
17725TIP3   OH274589   1.354   4.034   5.103 -0.1783 -0.2320  0.0773
17725TIP3    H174590   1.372   3.965   5.040 -0.2863 -0.0766 -0.1248
17725TIP3    H274591   1.259   4.041   5.107 -0.1616  0.1905 -0.2190
17726TIP3   OH274592   2.680   6.142  14.789 -0.2368 -0.2309  0.0340
17726TIP3    H174593   2.624   6.065  14.800 -1.6977  0.5108 -2.0244
17726TIP3    H274594   2.719   6.131  14.703 -0.7190  1.5019 -0.4097
17727TIP3   OH274595   2.314   0.991   3.310 -0.2586 -0.6496  0.3768
17727TIP3    H174596   2.363   1.004   3.391  0.5691 -0.9706 -0.0612
17727TIP3    H274597   2.223   0.984   3.337 -0.0189 -0.4126  1.2425
17728TIP3   OH274598   4.460   6.776  11.731 -0.4695  0.3367  0.1820
17728TIP3    H174599   4.542   6.752  11.774  0.9825  1.6519 -1.8160
17728TIP3    H274600   4.468   6.742  11.642 -2.5683 -0.4732  0.2511
17729TIP3   OH274601   5.708   0.786  16.949 -0.1240  0.5035  0.3163
17729TIP3    H174602   5.792   0.779  16.905  0.4395  1.9971  1.1133
17729TIP3    H274603   5.683   0.878  16.939 -1.4725  0.1588  0.4269
17730TIP3   OH274604   0.913   3.720   1.033  0.4597  0.4115 -0.5871
17730TIP3    H174605   0.883   3.645   0.982 -0.9171 -0.3148  1.2474
17730TIP3    H274606   0.833   3.767   1.056  0.9823  0.2645  1.5965
17731TIP3   OH274607   4.845   5.167  16.069 -0.3843 -0.3416  0.3026
17731TIP3    H174608   4.847   5.248  16.018 -1.7354 -0.1461  0.5422
17731TIP3    H274609   4.767   5.175  16.123  1.1415 -0.4348  2.5930
17732TIP3   OH274610   1.660   0.800   2.634  0.6766 -0.1629  0.6723
17732TIP3    H174611   1.682   0.878   2.583  0.3300 -0.2970  0.3168
17732TIP3    H274612   1.629   0.737   2.569  0.3136 -0.3643  1.0391
17733TIP3   OH274613   1.260   2.490   3.523 -0.5732 -0.1781  0.4971
17733TIP3    H174614   1.233   2.560   3.462  0.6774 -0.7419 -0.7600
17733TIP3    H274615   1.179   2.453   3.556 -1.2785  0.4465 -0.5095
17734TIP3   OH274616   1.665   1.904  13.514 -0.0396  0.3559 -0.2103
17734TIP3    H174617   1.653   1.996  13.492 -1.6715  0.0330 -0.7516
17734TIP3    H274618   1.757   1.897  13.541  0.4137  1.8959 -1.3129
17735TIP3   OH274619   1.188   1.256   0.687 -0.1002  0.2555  0.1845
17735TIP3    H174620   1.208   1.163   0.690  0.1024  0.2756 -0.3875
17735TIP3    H274621   1.259   1.298   0.736  1.2449  0.3152 -1.7344
17736TIP3   OH274622   2.498   1.228  17.035 -0.0806 -0.0284 -0.3843
17736TIP3    H174623   2.572   1.168  17.037  1.0771  1.3154 -1.6478
17736TIP3    H274624   2.444   1.198  16.962  0.0722 -0.0425 -0.4939
17737TIP3   OH274625   2.321   6.088  13.526 -0.1696  0.1990  0.2616
17737TIP3    H174626   2.379   6.159  13.498  0.6205 -0.6660 -0.3179
17737TIP3    H274627   2.336   6.017  13.463 -3.8319  0.8981 -1.5765
17738TIP3   OH274628   3.182   2.694  15.921 -0.2943  0.4321 -0.5260
17738TIP3    H174629   3.128   2.709  15.844 -0.3405  0.7670 -0.4300
17738TIP3    H274630   3.270   2.724  15.895 -0.4810  1.2958 -0.1881
17739TIP3   OH274631   5.480   0.883  11.342 -0.1827 -0.3816  0.0928
17739TIP3    H174632   5.402   0.876  11.287 -0.2923 -0.3291  0.2385
17739TIP3    H274633   5.552   0.893  11.281 -0.2992 -0.3611 -0.0422
17740TIP3   OH274634   6.622   0.752  11.090 -0.0013 -0.2461  0.3053
17740TIP3    H174635   6.680   0.755  11.014 -0.9513  1.1362 -0.3799
17740TIP3    H274636   6.655   0.821  11.148 -0.1834 -0.3208  0.4991
17741TIP3   OH274637   6.447   1.433   0.228  0.8768 -0.1753 -0.2353
17741TIP3    H174638   6.484   1.345   0.216 -5.0527 -2.9619 -0.2381
17741TIP3    H274639   6.435   1.466   0.139  1.2094 -0.2585 -0.3117
17742TIP3   OH274640   3.564   3.182  11.631 -0.2079  0.0976 -0.0182
17742TIP3    H174641   3.491   3.207  11.688  0.0149  0.1658  0.2368
17742TIP3    H274642   3.632   3.152  11.691 -0.3620 -0.8382 -0.2999
17743TIP3   OH274643   1.829   2.947   1.838  0.1600 -0.1653  0.1591
17743TIP3    H174644   1.902   2.992   1.795 -1.0298  0.7218 -1.0208
17743TIP3    H274645   1.825   2.985   1.925  1.1920 -0.3112  0.2705
17744TIP3   OH274646   5.740   2.084   0.896 -0.3034  0.6144  0.2218
17744TIP3    H174647   5.725   2.147   0.825 -1.0723  1.4181  1.0958
17744TIP3    H274648   5.713   2.130   0.975 -0.1097 -0.5371  0.9618
17745TIP3   OH274649   2.742   3.372   6.701 -0.2032  0.9653  0.2456
17745TIP3    H174650   2.825   3.378   6.749 -0.0064 -1.1402  0.2101
17745TIP3    H274651   2.741   3.451   6.646  2.2951  0.4838 -0.5617
17746TIP3   OH274652   3.991   4.148   2.054  0.4778 -0.1360 -0.2016
17746TIP3    H174653   4.018   4.215   2.117 -0.7913  0.4119 -0.2194
17746TIP3    H274654   4.073   4.110   2.023  1.1416 -0.1438  1.4886
17747TIP3   OH274655   0.888   1.037   1.518  0.5096 -0.0269 -0.5052
17747TIP3    H174656   0.936   1.112   1.552 -0.8416  1.7753 -2.4352
17747TIP3    H274657   0.854   1.067   1.433 -1.4492 -2.2557 -0.5572
17748TIP3   OH274658   4.898   1.781  10.462  0.9555  0.3610 -0.4163
17748TIP3    H174659   4.926   1.772  10.371  0.1696 -0.9258 -0.5549
17748TIP3    H274660   4.979   1.777  10.513  1.2107 -1.6636 -0.9157
17749TIP3   OH274661   2.338   1.324  10.241  0.3778 -0.3794  0.0329
17749TIP3    H174662   2.351   1.368  10.157  0.0618 -0.5079 -0.0850
17749TIP3    H274663   2.323   1.396  10.303  2.1186 -0.2045  0.2652
17750TIP3   OH274664   6.272   4.588  14.059 -0.0009  0.0831 -0.0801
17750TIP3    H174665   6.283   4.568  14.153  1.3584  1.4840  0.0688
17750TIP3    H274666   6.245   4.680  14.057  1.6628  0.5641 -1.1423
17751TIP3   OH274667   2.646   4.718   5.521  0.3325  0.2816 -0.4723
17751TIP3    H174668   2.728   4.756   5.551  1.0606 -1.4064 -0.2904
17751TIP3    H274669   2.599   4.696   5.601 -0.3500  1.3242 -0.5754
17752TIP3   OH274670   1.361   6.341   5.100  0.3157  0.2482 -0.2329
17752TIP3    H174671   1.414   6.266   5.126 -0.7765 -1.0522 -1.6680
17752TIP3    H274672   1.414   6.386   5.034  0.1227 -0.4227 -0.8538
17753TIP3   OH274673   0.160   1.251   1.157 -0.0190  0.3926  0.1397
17753TIP3    H174674   0.112   1.211   1.084  1.6378 -1.3659 -0.0309
17753TIP3    H274675   0.251   1.227   1.141  0.9161  3.3869  0.6456
17754TIP3   OH274676   0.852   6.076  15.332 -0.5565 -0.4074 -0.1547
17754TIP3    H174677   0.793   6.054  15.260 -2.1643  2.0138  0.3749
17754TIP3    H274678   0.833   6.010  15.399  0.2009 -2.0380 -1.4984
17755TIP3   OH274679   0.628   1.581  13.632  0.6021 -0.3388  0.1654
17755TIP3    H174680   0.624   1.490  13.663 -0.6177 -0.2205  0.3997
17755TIP3    H274681   0.567   1.583  13.558  2.0613 -0.1611 -1.0468
17756TIP3   OH274682   2.799   4.723   2.610 -0.0638 -0.2831  0.4156
17756TIP3    H174683   2.838   4.668   2.678  1.0394  0.5723  0.4813
17756TIP3    H274684   2.757   4.661   2.550  2.0620 -1.2569 -0.0933
17757TIP3   OH274685   3.810   1.625  12.509 -0.2555 -0.0732  0.2319
17757TIP3    H174686   3.773   1.690  12.570 -1.1493 -1.4381  1.1971
17757TIP3    H274687   3.741   1.612  12.444  0.0723  0.2050 -0.1759
17758TIP3   OH274688   5.745   4.012   5.204 -0.0530  0.0181  0.4411
17758TIP3    H174689   5.744   4.028   5.109  0.2015 -0.5557  0.3376
17758TIP3    H274690   5.730   4.098   5.243 -0.3184  0.2308 -0.1253
17759TIP3   OH274691   4.455   3.022   4.681 -0.3862 -0.0988  0.1150
17759TIP3    H174692   4.489   2.980   4.602 -0.9664 -0.3761  0.0141
17759TIP3    H274693   4.469   2.957   4.751 -2.6094 -1.0637 -0.2978
17760TIP3   OH274694   6.657   6.596  14.699  0.2810 -0.2686 -0.3836
17760TIP3    H174695   6.631   6.593  14.791 -0.1325  1.1973 -0.4430
17760TIP3    H274696   6.642   6.507  14.667 -1.1629 -0.3695  0.5277
17761TIP3   OH274697   5.905   1.030  14.647 -0.1268 -0.0679  0.1135
17761TIP3    H174698   5.974   1.004  14.586 -1.4764  0.0560 -1.4831
17761TIP3    H274699   5.849   0.952  14.654 -2.5695  1.3718 -2.4543
17762TIP3   OH274700   4.839   4.992   4.562 -0.7104  0.3895  0.4531
17762TIP3    H174701   4.823   5.075   4.517 -0.3155 -0.5027 -1.3834
17762TIP3    H274702   4.933   4.991   4.580 -0.7267  0.3878  0.5360
17763TIP3   OH274703   6.287   6.258  15.005  0.0699  0.5616 -0.2769
17763TIP3    H174704   6.193   6.250  15.018  0.1036  0.0385 -0.3242
17763TIP3    H274705   6.308   6.190  14.941  0.4985  0.5843 -0.1630
17764TIP3   OH274706   4.653   4.395  16.830 -0.1924  0.0588 -0.1722
17764TIP3    H174707   4.598   4.367  16.757 -1.0264  1.3980 -0.0682
17764TIP3    H274708   4.675   4.486  16.810  0.8385 -0.0378  0.4797
17765TIP3   OH274709   1.858   4.419  13.403 -0.3201 -0.2728 -0.0957
17765TIP3    H174710   1.848   4.494  13.346 -2.3459  2.2409  3.3439
17765TIP3    H274711   1.940   4.435  13.450  0.1272 -1.1161 -0.5708
17766TIP3   OH274712   0.917   4.838   4.483 -0.1749  0.2323  0.6543
17766TIP3    H174713   0.956   4.767   4.432  0.3532 -0.1787  1.6172
17766TIP3    H274714   0.824   4.835   4.461  0.3629  1.5074 -2.0056
17767TIP3   OH274715   2.433   5.451   4.369  0.1036 -0.0020  0.2800
17767TIP3    H174716   2.419   5.484   4.281  0.4604  0.3721  0.3656
17767TIP3    H274717   2.345   5.424   4.398 -0.3573  1.7386  0.5670
17768TIP3   OH274718   1.827   2.402  15.257 -0.3033  0.1248  0.1403
17768TIP3    H174719   1.903   2.454  15.281  0.8960 -1.4821 -0.1041
17768TIP3    H274720   1.796   2.441  15.174 -0.4488  1.4782  0.8128
17769TIP3   OH274721   4.855   0.118   2.874  0.3734 -0.5651  0.0812
17769TIP3    H174722   4.827   0.044   2.820  0.8873 -0.8152  0.1597
17769TIP3    H274723   4.858   0.082   2.963  3.3793 -1.2248 -0.2405
17770TIP3   OH274724   3.032   1.139  15.835  0.1583 -0.5314  0.3552
17770TIP3    H174725   3.044   1.225  15.794 -0.6125  1.0826  3.4101
17770TIP3    H274726   2.961   1.099  15.784  0.0992  0.8660 -0.7125
17771TIP3   OH274727   0.694   6.621  13.372  0.3285 -0.0581 -0.7150
17771TIP3    H174728   0.615   6.663  13.405 -0.1276 -1.1391 -0.4061
17771TIP3    H274729   0.743   6.691  13.329 -0.0385  0.9475  0.4830
17772TIP3   OH274730   3.311   0.595  15.941 -0.0995  0.1919  0.2684
17772TIP3    H174731   3.406   0.585  15.933 -0.2257  0.6967 -2.4292
17772TIP3    H274732   3.277   0.506  15.935  0.0989  0.1911 -1.2660
17773TIP3   OH274733   1.615   1.077  16.079  1.0946 -0.2377  0.1446
17773TIP3    H174734   1.696   1.028  16.070 -0.2193 -2.0147 -2.7771
17773TIP3    H274735   1.563   1.027  16.143  1.1965 -0.6458 -0.0911
17774TIP3   OH274736   6.472   2.813  16.492 -0.4068  0.1447 -0.4348
17774TIP3    H174737   6.478   2.907  16.474  0.2123 -0.0146 -1.0781
17774TIP3    H274738   6.396   2.784  16.443 -1.4995  0.5798  0.9528
17775TIP3   OH274739   3.348   5.582   4.598 -0.0665  0.0367  0.1943
17775TIP3    H174740   3.258   5.574   4.565 -0.1678  2.9889 -0.3706
17775TIP3    H274741   3.339   5.627   4.682  0.8648 -0.0340  0.3421
17776TIP3   OH274742   3.630   2.418   0.922  0.0747  0.8671  0.1783
17776TIP3    H174743   3.634   2.513   0.932  0.7451  1.0238 -1.4054
17776TIP3    H274744   3.548   2.402   0.874  0.7452  0.7955 -0.9701
17777TIP3   OH274745   1.877   3.200   6.138 -0.4066  0.0834 -0.1613
17777TIP3    H174746   1.889   3.246   6.221  0.2645  1.8291 -1.2176
17777TIP3    H274747   1.837   3.116   6.163  0.6100  0.2144  2.0079
17778TIP3   OH274748   4.800   6.708  12.099 -0.0111 -0.2258  0.6180
17778TIP3    H174749   4.808   6.615  12.083 -0.0575 -0.3784  1.4336
17778TIP3    H274750   4.827   6.719  12.191  0.3254  0.6024  0.4296
17779TIP3   OH274751   4.193   0.649  17.227 -0.0208 -0.0819 -0.3367
17779TIP3    H174752   4.174   0.633  17.135 -0.1236  0.2006 -0.3629
17779TIP3    H274753   4.192   0.562  17.267 -2.0106 -0.0391 -0.2220
17780TIP3   OH274754   0.835   5.771  16.445  0.1198  0.3787 -0.5863
17780TIP3    H174755   0.829   5.823  16.365 -1.0554  1.4695  0.1969
17780TIP3    H274756   0.879   5.828  16.508 -0.8565  0.3192  0.1708
17781TIP3   OH274757   4.746   5.927  12.352 -0.3424 -0.1073  0.4334
17781TIP3    H174758   4.839   5.942  12.336 -0.3619  1.8728  1.9677
17781TIP3    H274759   4.729   5.840  12.316  1.7478  0.1395 -1.2431
17782TIP3   OH274760   4.647   0.535  13.313  0.0634  0.4522  0.4262
17782TIP3    H174761   4.582   0.605  13.327 -0.3489  0.1356  0.1012
17782TIP3    H274762   4.681   0.517  13.400 -0.6291  0.2892  0.6642
17783TIP3   OH274763   3.868   0.197  13.173  0.7998  0.1622  0.2733
17783TIP3    H174764   3.938   0.214  13.110 -0.6710  1.1395 -1.1386
17783TIP3    H274765   3.848   0.104  13.162  1.6884 -0.0578  0.4931
17784TIP3   OH274766   5.851   5.458  12.896  0.3153  0.4989 -0.0121
17784TIP3    H174767   5.835   5.400  12.822 -4.0760  2.0016 -0.4000
17784TIP3    H274768   5.890   5.536  12.857 -0.5685  0.6929 -0.4984
17785TIP3   OH274769   5.292   5.268   4.567  0.5837 -0.5598 -0.1983
17785TIP3    H174770   5.362   5.261   4.501  1.7567 -0.0041  0.9602
17785TIP3    H274771   5.211   5.261   4.517  1.4183  1.4025 -1.9201
17786TIP3   OH274772   6.082   4.507  11.270 -0.2102 -0.2352  0.8534
17786TIP3    H174773   6.177   4.512  11.281 -0.3055 -0.9872  2.1656
17786TIP3    H274774   6.064   4.413  11.269 -0.7721 -0.1297 -1.1087
17787TIP3   OH274775   3.766   1.150  10.577 -0.2277  0.3288  0.3600
17787TIP3    H174776   3.858   1.125  10.583 -0.2115  0.5233  0.9397
17787TIP3    H274777   3.734   1.148  10.667 -1.0001 -0.5069  0.0694
17788TIP3   OH274778   5.896   4.510  15.952  0.0770 -0.5789 -0.4122
17788TIP3    H174779   5.836   4.463  15.894 -1.2826  1.7301 -0.9119
17788TIP3    H274780   5.979   4.510  15.904 -1.1075  1.5631 -2.5542
17789TIP3   OH274781   4.879   1.550   4.340 -0.0516 -0.0293 -0.3975
17789TIP3    H174782   4.901   1.593   4.257 -0.1044 -0.0217 -0.4073
17789TIP3    H274783   4.824   1.613   4.385  1.6598  0.8391  0.5405
17790TIP3   OH274784   6.700   6.174   3.743 -0.1584  0.2464  0.2311
17790TIP3    H174785   6.655   6.146   3.823  0.4110  0.5187  0.6491
17790TIP3    H274786   6.696   6.270   3.746 -0.4489  0.2507 -0.2481
17791TIP3   OH274787   5.635   0.096  12.331 -0.5084  0.2492  0.8563
17791TIP3    H174788   5.701   0.164  12.315 -1.0613  0.5466 -0.2585
17791TIP3    H274789   5.685   0.021  12.361  0.2744  0.6808  0.6552
17792TIP3   OH274790   1.855   0.603  16.449 -0.4378  0.1704 -0.3639
17792TIP3    H174791   1.905   0.657  16.388 -1.4974  0.7903 -0.6892
17792TIP3    H274792   1.888   0.514  16.436  0.9355  0.6436 -0.2075
17793TIP3   OH274793   4.113   6.292  13.396  0.4096 -0.1211 -0.4039
17793TIP3    H174794   4.081   6.337  13.475  0.8899  1.0609 -0.8838
17793TIP3    H274795   4.033   6.258  13.355 -0.1081  1.5901 -0.8404
17794TIP3   OH274796   2.313   0.617   3.641 -0.0736  0.2206  0.4415
17794TIP3    H174797   2.341   0.545   3.585 -0.0510 -0.3400  1.1579
17794TIP3    H274798   2.280   0.574   3.720  1.2621  1.0513  1.4760
17795TIP3   OH274799   0.739   5.811  15.472 -0.0641  0.2478  0.5310
17795TIP3    H174800   0.713   5.720  15.463  0.9008 -0.0619  0.7411
17795TIP3    H274801   0.657   5.860  15.474 -0.5665 -0.5384 -0.4017
17796TIP3   OH274802   3.151   5.115   5.555 -0.1074  0.1308  0.2059
17796TIP3    H174803   3.201   5.166   5.618 -0.5744  0.1396  0.5775
17796TIP3    H274804   3.186   5.026   5.563 -3.1225 -0.8717  3.7231
17797TIP3   OH274805   5.946   0.262  17.135  0.2011  0.0520 -0.1073
17797TIP3    H174806   5.982   0.315  17.206  0.5560  1.2949 -1.2113
17797TIP3    H274807   6.015   0.260  17.069 -0.1988 -0.9488 -0.5049
17798TIP3   OH274808   3.633   0.892  12.522  0.1691 -0.4403 -0.0384
17798TIP3    H174809   3.708   0.848  12.561 -1.0799 -2.5050  0.1236
17798TIP3    H274810   3.601   0.830  12.456 -2.2710 -0.2595  0.9121
17799TIP3   OH274811   4.640   4.304   4.503 -0.2015  0.2693 -0.3648
17799TIP3    H174812   4.616   4.261   4.586 -2.2750  0.2833 -0.9326
17799TIP3    H274813   4.569   4.366   4.487 -0.5494 -0.7587 -2.9027
17800TIP3   OH274814   0.367   2.238  12.048 -0.1414  0.3168 -0.0989
17800TIP3    H174815   0.329   2.169  11.993  1.3447 -0.2363 -0.4654
17800TIP3    H274816   0.340   2.216  12.137  0.8244 -1.1125 -0.1319
17801TIP3   OH274817   3.802   0.147   0.622  0.5968  0.3135 -0.5696
17801TIP3    H174818   3.725   0.188   0.662  0.2776 -0.3897 -0.4520
17801TIP3    H274819   3.796   0.055   0.648 -0.3340 -0.4527 -3.2893
17802TIP3   OH274820   0.022   5.932  12.216  0.5484  0.1305  0.0222
17802TIP3    H174821  -0.005   6.013  12.172 -0.4867 -0.1654  0.1011
17802TIP3    H274822   0.080   5.962  12.287  0.8485  0.7312 -0.4745
17803TIP3   OH274823   2.898   6.049  17.094  0.9106  0.4284  0.4919
17803TIP3    H174824   2.971   5.995  17.063  0.6422  0.5469 -0.3679
17803TIP3    H274825   2.821   5.993  17.081  0.5503  1.2496 -1.0352
17804TIP3   OH274826   4.854   0.526   5.519 -0.1094  0.0037 -0.3251
17804TIP3    H174827   4.812   0.539   5.434  0.3362 -0.5737 -0.6371
17804TIP3    H274828   4.893   0.611   5.539 -0.0571  0.0879 -0.7849
17805TIP3   OH274829   3.370   3.481  14.200  0.3340  0.5543  0.5315
17805TIP3    H174830   3.442   3.418  14.194  0.4962  0.8727 -0.7977
17805TIP3    H274831   3.414   3.566  14.210  0.1193  0.4237  3.1563
17806TIP3   OH274832   3.299   0.586   5.356  0.0182  0.0032  0.4328
17806TIP3    H174833   3.337   0.648   5.294  1.1165 -0.6623  0.4315
17806TIP3    H274834   3.263   0.641   5.425  0.4204  0.6760  0.1136
17807TIP3   OH274835   5.181   5.446  16.507  0.2999  0.3290 -0.2206
17807TIP3    H174836   5.148   5.458  16.595  1.3991 -2.6087  0.6805
17807TIP3    H274837   5.269   5.484  16.508 -0.0865  1.2133 -0.3384
17808TIP3   OH274838   0.056   6.581   1.122 -0.3460 -0.7347 -0.5717
17808TIP3    H174839   0.052   6.549   1.032 -1.6482 -0.8715 -0.4771
17808TIP3    H274840   0.125   6.529   1.163 -1.4073 -2.3900 -0.8367
17809TIP3   OH274841   3.363   1.897  16.034 -0.1682  0.2727 -0.0773
17809TIP3    H174842   3.387   1.909  16.125 -0.8567  2.9960 -0.1952
17809TIP3    H274843   3.404   1.971  15.988 -1.3930  0.0192 -1.6441
17810TIP3   OH274844   1.191   0.152   5.112 -0.1926  0.2170 -0.1330
17810TIP3    H174845   1.187   0.059   5.091 -1.0303  0.1765  0.2025
17810TIP3    H274846   1.106   0.173   5.149  0.3361  0.8985  0.7197
17811TIP3   OH274847   6.518   1.164   0.229 -0.2549 -0.4410  0.3053
17811TIP3    H174848   6.502   1.143   0.321 -0.0185 -3.6846 -0.3199
17811TIP3    H274849   6.431   1.161   0.189 -0.0688 -1.6351 -0.0343
17812TIP3   OH274850   5.844   6.174   2.486 -0.0504  0.1634 -0.3619
17812TIP3    H174851   5.897   6.207   2.559  0.4900  0.3966 -0.8551
17812TIP3    H274852   5.816   6.087   2.515  0.3347  0.1676  0.0414
17813TIP3   OH274853   0.218   1.189   1.617  0.6770 -0.7673 -0.3477
17813TIP3    H174854   0.166   1.172   1.538  0.8475 -0.5052 -0.5199
17813TIP3    H274855   0.161   1.240   1.674  1.1918  0.6691 -1.0923
17814TIP3   OH274856   2.719   4.067   3.004  0.0937 -0.3296  0.3851
17814TIP3    H174857   2.664   4.116   2.942 -1.5751 -1.0189  1.3086
17814TIP3    H274858   2.793   4.038   2.951  0.2722  1.7488 -0.5737
17815TIP3   OH274859   3.962   1.284   4.478 -0.0003  0.3243  0.2413
17815TIP3    H174860   3.933   1.373   4.459 -0.6982  0.1654  0.5381
17815TIP3    H274861   4.008   1.256   4.399 -0.5146  0.6455 -0.1708
17816TIP3   OH274862   5.259   5.597  11.225  0.1934 -0.0203 -0.4186
17816TIP3    H174863   5.286   5.664  11.162  1.5111  0.3211  0.4921
17816TIP3    H274864   5.300   5.516  11.194  1.6926  0.3461  0.5317
17817TIP3   OH274865   1.262   2.060   0.205  0.0706  0.1168 -0.1259
17817TIP3    H174866   1.250   1.999   0.279  1.2534 -0.7514 -0.6402
17817TIP3    H274867   1.173   2.090   0.186 -0.4338 -0.7691  0.7133
17818TIP3   OH274868   1.568   3.960  15.702  0.4706  0.0555  0.2793
17818TIP3    H174869   1.483   3.924  15.727  0.2939  0.0164 -0.3598
17818TIP3    H274870   1.612   3.979  15.785  0.0849 -0.4990  0.6129
17819TIP3   OH274871   4.986   1.248  15.942 -0.4412  0.3734 -0.3528
17819TIP3    H174872   5.045   1.283  15.875  2.2824 -1.4270  1.0029
17819TIP3    H274873   4.955   1.165  15.905 -0.8857  0.5483 -0.3795
17820TIP3   OH274874   6.723   5.287  11.939 -0.8840  0.0119 -0.3599
17820TIP3    H174875   6.700   5.279  11.846 -1.5629  0.9588 -0.2804
17820TIP3    H274876   6.793   5.351  11.941  0.3909 -1.3462 -0.3878
17821TIP3   OH274877   5.509   4.921   4.144 -0.3647  0.0361 -1.0250
17821TIP3    H174878   5.589   4.882   4.180 -1.7698 -0.7637  1.3646
17821TIP3    H274879   5.492   4.872   4.063  1.2629 -0.1057 -1.2914
17822TIP3   OH274880   1.910   4.128  11.354  0.1813 -0.1624  0.2294
17822TIP3    H174881   1.960   4.058  11.397 -2.0139 -0.6976  2.0096
17822TIP3    H274882   1.838   4.082  11.310 -0.0011  0.7867 -0.4683
17823TIP3   OH274883   2.944   1.167   6.003 -0.9192 -0.1841  0.6528
17823TIP3    H174884   2.877   1.228   6.033  0.7089  2.0104 -0.0431
17823TIP3    H274885   3.009   1.166   6.074  0.7418  1.5954 -0.7734
17824TIP3   OH274886   0.455   4.884  13.854  0.1246 -0.0888  0.3982
17824TIP3    H174887   0.388   4.889  13.922 -0.3417 -0.4186 -0.0289
17824TIP3    H274888   0.464   4.974  13.822 -0.3097 -0.0854  0.2732
17825TIP3   OH274889   2.847   4.111  12.024 -0.0147 -0.2251  0.2325
17825TIP3    H174890   2.880   4.052  12.092 -0.5919 -0.4436  0.3228
17825TIP3    H274891   2.755   4.088  12.015 -0.1492  0.4138  0.0029
17826TIP3   OH274892   4.183   0.078   5.934  0.3833  0.0499 -0.5921
17826TIP3    H174893   4.102   0.116   5.900 -0.0372 -1.3746 -1.2217
17826TIP3    H274894   4.156  -0.003   5.977  1.4388 -0.3022 -0.5705
17827TIP3   OH274895   0.345   6.596   4.179 -0.0457  0.8165 -0.6332
17827TIP3    H174896   0.397   6.648   4.118  0.0871 -0.0621 -1.2811
17827TIP3    H274897   0.265   6.576   4.131  0.0631  0.1129 -0.5270
17828TIP3   OH274898   2.475   5.741  10.504  0.1038 -0.6365 -0.1183
17828TIP3    H174899   2.454   5.763  10.595  1.7059  0.9304 -0.1079
17828TIP3    H274900   2.396   5.764  10.455 -0.5446 -0.9106  0.7827
17829TIP3   OH274901   4.185   3.764  10.886  0.4499  0.3945  0.1619
17829TIP3    H174902   4.191   3.698  10.817 -1.8187 -0.6678  0.9389
17829TIP3    H274903   4.112   3.820  10.860 -0.5124 -0.0937  1.7603
17830TIP3   OH274904   0.391   2.995   2.827  0.2551 -0.3235  0.0788
17830TIP3    H174905   0.413   3.088   2.820 -1.7210  0.1420 -0.3034
17830TIP3    H274906   0.307   2.995   2.874 -0.2738 -1.8514 -0.8627
17831TIP3   OH274907   6.604   0.007  11.052 -0.0867 -0.3490  0.3577
17831TIP3    H174908   6.564   0.056  10.979  0.9349 -1.2357 -0.8261
17831TIP3    H274909   6.573   0.051  11.130  1.7885  3.0209 -0.6934
17832TIP3   OH274910   4.611   6.186  17.125 -0.0949  0.0181  0.2066
17832TIP3    H174911   4.578   6.101  17.098 -1.1352  0.4586  0.0721
17832TIP3    H274912   4.667   6.214  17.052 -0.6603 -0.0491 -0.2616
17833TIP3   OH274913   1.929   1.332   1.090  0.1702 -0.0236 -0.3892
17833TIP3    H174914   1.870   1.272   1.136 -1.1101  0.5485 -1.2580
17833TIP3    H274915   1.871   1.397   1.050  1.5708  2.1525  1.0262
17834TIP3   OH274916   5.606   3.943  11.777  0.1795  0.1251 -0.1195
17834TIP3    H174917   5.573   3.994  11.851 -0.9764 -0.1607 -0.4186
17834TIP3    H274918   5.532   3.888  11.751  1.3032 -1.4662 -0.0263
17835TIP3   OH274919   2.904   2.944  11.383  0.3795 -0.3952 -0.0076
17835TIP3    H174920   2.938   2.973  11.299  0.0084 -0.5167 -0.2003
17835TIP3    H274921   2.881   3.024  11.429 -1.3059 -0.4076 -0.8182
17836TIP3   OH274922   1.058   5.953  12.199  0.3873  0.0714  0.0130
17836TIP3    H174923   1.090   5.876  12.246  0.7559  0.7413  0.8638
17836TIP3    H274924   1.109   6.026  12.235  0.4707  0.6334 -1.2111
17837TIP3   OH274925   0.583   1.574  15.141 -0.0411  0.2164  0.3172
17837TIP3    H174926   0.678   1.584  15.137  0.0818 -1.2179 -0.9117
17837TIP3    H274927   0.550   1.662  15.160  1.4410  1.0027 -0.6743
17838TIP3   OH274928   4.215   1.074  15.642  0.3918 -0.0135  0.0525
17838TIP3    H174929   4.219   1.050  15.734 -0.5463 -0.7604 -0.0987
17838TIP3    H274930   4.162   1.153  15.640  1.0404  0.4305  0.2301
17839TIP3   OH274931   4.774   6.430  12.053  0.6259  0.2920  0.4394
17839TIP3    H174932   4.682   6.440  12.027  0.4893  0.9195  1.1610
17839TIP3    H274933   4.790   6.336  12.046  0.4162  0.3551 -1.3188
17840TIP3   OH274934   6.298   2.117   1.276 -0.1874  0.4382 -0.5486
17840TIP3    H174935   6.278   2.137   1.184  2.4025  0.5034 -1.1343
17840TIP3    H274936   6.230   2.055   1.302 -0.2153 -0.5804 -2.9027
17841TIP3   OH274937   6.386   2.936  16.771  0.6618 -0.1468  0.6231
17841TIP3    H174938   6.397   2.940  16.676  0.7769 -0.8811  0.5991
17841TIP3    H274939   6.430   2.855  16.797 -0.4251 -0.5779  1.1435
17842TIP3   OH274940   2.733   6.541   5.455 -0.2596  0.1109  0.5824
17842TIP3    H174941   2.772   6.477   5.395 -2.3908  0.7514 -1.5988
17842TIP3    H274942   2.764   6.625   5.423 -0.9778  0.4198  0.6762
17843TIP3   OH274943   3.537   6.054  16.945 -0.4090 -0.2824 -0.5156
17843TIP3    H174944   3.550   6.129  16.887 -0.1703 -0.1127 -0.2423
17843TIP3    H274945   3.624   6.036  16.980 -0.4311 -0.8221 -0.7508
17844TIP3   OH274946   3.017   3.105   2.748  0.0829 -0.0187 -0.4454
17844TIP3    H174947   2.973   3.033   2.793  0.1502 -0.2060 -0.6800
17844TIP3    H274948   3.107   3.102   2.780 -0.1414  0.5505  0.2626
17845TIP3   OH274949   4.427   6.604   5.270 -0.0577 -0.2198 -0.6561
17845TIP3    H174950   4.412   6.689   5.312  2.1661 -0.0227 -0.1925
17845TIP3    H274951   4.485   6.623   5.197  0.2855 -1.3164 -0.6815
17846TIP3   OH274952   1.868   4.676  15.828 -0.1467 -0.5684  0.0672
17846TIP3    H174953   1.943   4.710  15.878 -1.1906  1.5847  0.2144
17846TIP3    H274954   1.819   4.754  15.803 -1.7368 -1.8953 -1.0069
17847TIP3   OH274955   1.434   3.164  12.817 -0.0957  0.2937 -0.4340
17847TIP3    H174956   1.445   3.259  12.826  0.1644  0.3612 -1.3982
17847TIP3    H274957   1.521   3.128  12.834 -1.0401 -0.1499  4.3153
17848TIP3   OH274958   1.707   6.721   5.456  0.4002  0.5283 -0.3863
17848TIP3    H174959   1.782   6.764   5.415  0.0877  1.2647 -0.1921
17848TIP3    H274960   1.737   6.701   5.544  0.0792  1.5982 -0.0327
17849TIP3   OH274961   2.956   3.532  13.418 -0.2694  0.5544  1.1664
17849TIP3    H174962   2.895   3.466  13.450  1.7712 -1.1744  1.5247
17849TIP3    H274963   2.913   3.568  13.340 -1.3543 -1.2362  0.9236
17850TIP3   OH274964   1.451   1.367  10.729  0.4368  0.0482  0.0007
17850TIP3    H174965   1.484   1.420  10.656  0.3234 -0.7602 -0.6481
17850TIP3    H274966   1.419   1.287  10.687 -1.1274  0.2665  0.7637
17851TIP3   OH274967   4.677   5.166  13.112 -0.2724  0.8007 -0.4278
17851TIP3    H174968   4.700   5.235  13.174 -0.6007  0.4063  0.1296
17851TIP3    H274969   4.655   5.213  13.031  0.1395  1.3124 -0.2446
17852TIP3   OH274970   6.480   2.556   3.095 -0.2677 -0.0775  0.0727
17852TIP3    H174971   6.454   2.526   3.182  0.6941 -1.6496 -0.1771
17852TIP3    H274972   6.556   2.612   3.110 -0.1858 -0.2366  0.2385
17853TIP3   OH274973   1.674   2.957   4.960 -0.4146  0.2608  0.2989
17853TIP3    H174974   1.723   2.876   4.950 -1.0395  0.1007 -1.6596
17853TIP3    H274975   1.732   3.014   5.011  1.3664 -0.2924 -1.0606
17854TIP3   OH274976   3.089   5.383  14.871  0.8500  0.0304 -0.9237
17854TIP3    H174977   3.128   5.400  14.785 -1.4524  1.5287 -1.7292
17854TIP3    H274978   3.072   5.470  14.907  0.4768 -0.5881  0.4267
17855TIP3   OH274979   3.901   0.272   1.496  0.3469  0.2874  0.0165
17855TIP3    H174980   3.885   0.359   1.459 -0.4284  0.4025  0.6262
17855TIP3    H274981   3.872   0.278   1.587 -0.6135 -0.8742 -0.1920
17856TIP3   OH274982   5.946   3.863  17.182  0.1331  0.0765  0.0604
17856TIP3    H174983   5.882   3.883  17.113  0.7808 -2.1394 -1.2173
17856TIP3    H274984   5.943   3.768  17.190  1.4606  0.1692  1.7662
17857TIP3   OH274985   4.367   4.495   1.183 -0.4877  0.2819 -0.1939
17857TIP3    H174986   4.437   4.504   1.248  0.0727 -2.8490 -0.2992
17857TIP3    H274987   4.294   4.546   1.220  0.8105  1.0332  1.4151
17858TIP3   OH274988   4.123   0.739   6.064  0.0845  0.1969 -0.2325
17858TIP3    H174989   4.127   0.834   6.053 -0.7128  0.0654 -1.8438
17858TIP3    H274990   4.128   0.726   6.158  0.0101  1.8523  0.0237
17859TIP3   OH274991   4.729   3.365   3.044  0.2719  0.3265 -0.5023
17859TIP3    H174992   4.682   3.419   3.107 -0.4572  0.4839 -1.1676
17859TIP3    H274993   4.775   3.427   2.988 -0.9578  0.2934 -1.5710
17860TIP3   OH274994   5.383   2.750   6.542  0.2350  0.1683 -0.2638
17860TIP3    H174995   5.444   2.770   6.613 -2.2675  0.6434  1.8097
17860TIP3    H274996   5.394   2.822   6.480 -0.2216  1.7492  1.4537
17861TIP3   OH274997   6.195   3.669  14.855  0.2944  0.2463 -0.6670
17861TIP3    H174998   6.261   3.735  14.878  0.5160  0.3531 -1.5765
17861TIP3    H274999   6.111   3.710  14.875  0.4430  0.7105 -0.9877
17862TIP3   OH275000   4.368   1.424  12.386 -0.4003 -0.3781 -0.4265
17862TIP3    H175001   4.352   1.332  12.404 -2.3757  0.2088  1.1973
17862TIP3    H275002   4.463   1.433  12.383 -0.1345 -2.1047  1.5704
17863TIP3   OH275003   2.895   5.371  13.612 -0.1950 -0.1935  0.6252
17863TIP3    H175004   2.809   5.412  13.622 -0.4277 -0.6116  0.3421
17863TIP3    H275005   2.957   5.438  13.641 -0.5573  0.4457 -0.0589
17864TIP3   OH275006   3.993   0.719   3.324 -0.2207  0.3845  0.1441
17864TIP3    H175007   3.897   0.720   3.328 -0.2495 -0.2664 -0.1268
17864TIP3    H275008   4.020   0.802   3.362 -0.8988  0.6080  0.1517
17865TIP3   OH275009   5.291   1.745   1.994  0.3034  0.2234 -0.1109
17865TIP3    H175010   5.307   1.656   1.963 -2.1132 -0.0193 -0.7829
17865TIP3    H275011   5.372   1.791   1.978  0.9400 -1.3678 -1.5912
17866TIP3   OH275012   0.622   6.251   0.398  0.0183 -1.0446  0.2250
17866TIP3    H175013   0.695   6.309   0.418 -0.6627 -1.4654  4.3413
17866TIP3    H275014   0.545   6.308   0.401 -0.1908 -1.2796 -0.5202
17867TIP3   OH275015   0.967   6.485  16.456  0.0692 -0.4020 -0.5580
17867TIP3    H175016   0.931   6.475  16.368 -1.4353 -0.1037  0.0130
17867TIP3    H275017   0.925   6.416  16.508  0.6733 -0.3478  0.0207
17868TIP3   OH275018   5.601   2.743   2.495 -0.5933 -0.1773  0.1956
17868TIP3    H175019   5.528   2.725   2.436  0.4516  0.2408 -1.2340
17868TIP3    H275020   5.559   2.756   2.580 -2.1313 -0.5914 -0.4724
17869TIP3   OH275021   1.916   4.029  13.600  0.3920  0.2161  0.0998
17869TIP3    H175022   1.941   4.080  13.524  1.3546  0.1078  0.3414
17869TIP3    H275023   1.908   3.939  13.567  0.3581  0.2453  0.0284
17870TIP3   OH275024   0.973   4.362  12.019 -0.1098  0.3898  0.3366
17870TIP3    H175025   0.915   4.293  11.986 -0.9366  2.0446 -1.8240
17870TIP3    H275026   1.040   4.316  12.069 -1.2661 -1.8699 -0.1395
17871TIP3   OH275027   0.141   1.018   5.319  0.2474 -0.7042  0.5768
17871TIP3    H175028   0.186   1.101   5.303 -0.7458 -0.5062 -1.3212
17871TIP3    H275029   0.211   0.953   5.327  0.9503 -0.0102  0.0335
17872TIP3   OH275030   0.066   3.737   0.113  0.1587  0.9654  0.0506
17872TIP3    H175031   0.020   3.817   0.138 -1.0693  0.4354 -0.4497
17872TIP3    H275032   0.004   3.691   0.056  0.9336 -0.2268  0.1560
17873TIP3   OH275033   3.249   1.154  16.730  0.0415  0.3139  0.3586
17873TIP3    H175034   3.317   1.103  16.687  0.7221  0.2639  1.4807
17873TIP3    H275035   3.295   1.204  16.797 -1.2959 -1.2612  2.4962
17874TIP3   OH275036   6.131   4.332   0.914 -1.0571 -0.0662 -0.2227
17874TIP3    H175037   6.040   4.361   0.920 -0.7472  0.4695  2.3565
17874TIP3    H275038   6.137   4.257   0.974  0.4453  0.6225  0.5375
17875TIP3   OH275039   1.652   4.399   4.049  0.3740 -0.1291 -0.4712
17875TIP3    H175040   1.659   4.304   4.050  0.5035 -0.1246  0.7027
17875TIP3    H275041   1.740   4.430   4.070 -0.0159  0.2019  0.7497
17876TIP3   OH275042   0.443   4.618  15.231  0.7300  0.5803 -0.5063
17876TIP3    H175043   0.534   4.591  15.237  0.8914  0.3771 -3.2549
17876TIP3    H275044   0.396   4.539  15.205  0.0543  1.1037 -0.9080
17877TIP3   OH275045   6.711   5.412  15.488 -0.2949 -0.1661  0.0142
17877TIP3    H175046   6.692   5.412  15.394  0.5085  0.2750 -0.1562
17877TIP3    H275047   6.667   5.490  15.521  1.3528  0.9835 -0.4195
17878TIP3   OH275048   2.938   0.488  15.681 -0.2238 -0.3224 -0.4506
17878TIP3    H175049   3.007   0.428  15.651  1.0681  1.3021 -0.8434
17878TIP3    H275050   2.920   0.462  15.771  0.2966 -1.3261 -0.6356
17879TIP3   OH275051   1.640   0.082  15.272  0.5316 -0.1062 -0.1583
17879TIP3    H175052   1.633   0.127  15.356 -0.2044 -0.1000 -0.2189
17879TIP3    H275053   1.684   0.145  15.214 -0.6904  0.6184 -0.3058
17880TIP3   OH275054   5.286   0.312   1.036  1.2651  0.3295  0.0010
17880TIP3    H175055   5.315   0.238   1.090 -0.9671  0.4448  1.4681
17880TIP3    H275056   5.205   0.342   1.079 -0.4484  0.6085 -3.2382
17881TIP3   OH275057   4.249   0.436   4.916  0.4257 -0.4495  0.4499
17881TIP3    H175058   4.298   0.482   4.848  0.0960  0.0464  0.5469
17881TIP3    H275059   4.283   0.346   4.914 -1.6092 -1.2109 -2.3470
17882TIP3   OH275060   5.435   3.210  11.113  0.2632  0.0539 -0.2025
17882TIP3    H175061   5.390   3.294  11.118  3.0921  1.6074  0.6344
17882TIP3    H275062   5.367   3.147  11.091 -2.0573  2.4477 -0.1172
17883TIP3   OH275063   3.403   4.132  16.788  0.3645  0.0549  0.1111
17883TIP3    H175064   3.415   4.175  16.704 -0.1021 -0.8032 -0.3992
17883TIP3    H275065   3.485   4.085  16.803  0.0470 -0.6735 -0.3865
17884TIP3   OH275066   3.547   4.967   5.474 -0.0706 -0.0993  0.1609
17884TIP3    H175067   3.597   4.926   5.544 -0.4126  1.9432  1.6260
17884TIP3    H275068   3.457   4.971   5.507 -0.7930 -1.6366 -1.5241
17885TIP3   OH275069   2.359   0.278  12.481  0.8656 -0.0116  0.1484
17885TIP3    H175070   2.301   0.315  12.548 -0.2115 -1.1602 -0.1336
17885TIP3    H275071   2.434   0.338  12.479 -0.7501  2.0844 -0.1841
17886TIP3   OH275072   6.570   1.337   1.219 -0.3287 -0.7094  0.6912
17886TIP3    H175073   6.531   1.268   1.165  1.5744  0.8600 -2.8598
17886TIP3    H275074   6.664   1.321   1.215  0.2420  2.5685 -1.0415
17887TIP3   OH275075   0.730   2.284   2.727 -0.4300  0.2439  0.3965
17887TIP3    H175076   0.701   2.245   2.809 -0.0966 -1.8254 -0.4313
17887TIP3    H275077   0.825   2.272   2.727 -0.4688 -0.0652 -0.4480
17888TIP3   OH275078   4.337   3.668  14.766  0.1709 -0.3469 -0.1372
17888TIP3    H175079   4.286   3.709  14.836 -1.9934 -1.2543 -1.1375
17888TIP3    H275080   4.316   3.720  14.688  0.2727 -1.1252 -0.6848
17889TIP3   OH275081   0.384   5.818  15.074 -0.6587  0.4390 -0.0149
17889TIP3    H175082   0.318   5.817  15.143 -1.0741  0.4648 -0.4043
17889TIP3    H275083   0.346   5.874  15.006 -0.6654 -0.3359 -0.6589
17890TIP3   OH275084   0.177   2.712  14.602  0.0584 -0.7074 -0.0565
17890TIP3    H175085   0.129   2.691  14.522 -0.9465 -1.4916  0.7388
17890TIP3    H275086   0.229   2.633  14.620  1.8595  0.2240 -1.0448
17891TIP3   OH275087   3.080   2.894   2.525  0.8423  0.8384  0.6804
17891TIP3    H175088   3.099   2.940   2.443 -0.5650  2.6713  1.3397
17891TIP3    H275089   3.154   2.914   2.582  0.9713  1.0290  0.4474
17892TIP3   OH275090   1.476   5.205   0.013  0.4213  0.0034  0.1371
17892TIP3    H175091   1.555   5.203  -0.040 -0.2268  1.5253 -0.9118
17892TIP3    H275092   1.484   5.129   0.071  2.4195 -0.1201 -0.2667
17893TIP3   OH275093   5.189   4.133   1.008 -0.1922  0.0722 -0.5862
17893TIP3    H175094   5.162   4.044   0.984  0.8498 -1.2283  2.7066
17893TIP3    H275095   5.280   4.138   0.981  0.1951 -0.4393  0.5784
17894TIP3   OH275096   5.685   3.653  10.935  0.2327 -0.1901 -0.3962
17894TIP3    H175097   5.649   3.719  10.875  1.1190 -0.1210 -0.8566
17894TIP3    H275098   5.780   3.665  10.929  0.3117  0.0105  1.2511
17895TIP3   OH275099   4.992   3.969  11.785  0.4788 -0.0236 -0.7936
17895TIP3    H175100   4.996   4.016  11.868  2.6610 -3.1715  0.9713
17895TIP3    H275101   5.073   3.992  11.740 -0.3960  1.1563 -1.7994
17896TIP3   OH275102   3.883   1.030  11.591  0.5279  0.1033  0.2325
17896TIP3    H175103   3.882   0.953  11.533  0.4011  1.4283 -1.5916
17896TIP3    H275104   3.836   1.002  11.669 -0.1932 -1.4583 -0.7308
17897TIP3   OH275105   2.692   5.349   2.151  0.1202 -0.0884 -0.0454
17897TIP3    H175106   2.607   5.308   2.137  0.3729  0.3103 -3.1854
17897TIP3    H275107   2.748   5.279   2.185 -0.4347 -1.4224 -1.7978
17898TIP3   OH275108   4.272   0.499   1.780  0.4369 -0.1285 -0.5061
17898TIP3    H175109   4.293   0.547   1.700 -0.1656 -1.0022 -1.2001
17898TIP3    H275110   4.302   0.410   1.763 -0.5579 -0.5385 -0.1315
17899TIP3   OH275111   5.783   1.540  14.359  0.2321 -0.0372  0.3382
17899TIP3    H175112   5.817   1.544  14.449 -0.2001  2.5172  0.4062
17899TIP3    H275113   5.849   1.585  14.307  0.2557 -1.1135 -0.5933
17900TIP3   OH275114   5.547   0.154  13.372 -0.1629 -0.1505 -0.1425
17900TIP3    H175115   5.517   0.082  13.427  0.7200  0.4964  1.2265
17900TIP3    H275116   5.596   0.211  13.432 -0.5410  1.3970 -1.2644
17901TIP3   OH275117   1.313   6.366  13.001 -0.1335 -0.0616 -0.2868
17901TIP3    H175118   1.238   6.395  13.054  0.5751  0.7769  0.2759
17901TIP3    H275119   1.277   6.298  12.944 -1.0727 -0.4981  0.7931
17902TIP3   OH275120   5.955   1.369  10.347  0.2066  0.4361 -0.3857
17902TIP3    H175121   6.029   1.308  10.348  1.0076  1.3929 -0.7956
17902TIP3    H275122   5.973   1.430  10.419 -1.7570 -1.1452  1.5221
17903TIP3   OH275123   2.779   3.296  12.874 -0.1655  0.5475  0.3354
17903TIP3    H175124   2.740   3.261  12.954 -1.9632  1.8015  0.0481
17903TIP3    H275125   2.760   3.229  12.808  0.0507  0.1764  0.6454
17904TIP3   OH275126   2.164   0.949   0.132 -0.2575  0.3150 -0.2046
17904TIP3    H175127   2.224   0.880   0.159 -0.8698  0.1468  0.7342
17904TIP3    H275128   2.203   0.985   0.052  0.8242 -0.1317  0.1190
17905TIP3   OH275129   4.305   5.329   2.246  0.2955  0.1753 -0.2962
17905TIP3    H175130   4.309   5.252   2.303 -0.4631  0.5127  0.2100
17905TIP3    H275131   4.377   5.315   2.184 -0.2230 -1.2481 -0.5992
17906TIP3   OH275132   1.136   5.653   3.794 -0.7112 -0.1073  0.0052
17906TIP3    H175133   1.139   5.557   3.784  3.4388  0.0408 -1.2609
17906TIP3    H275134   1.138   5.686   3.704 -1.3478  1.1823  0.4609
17907TIP3   OH275135   2.765   2.834   4.282 -0.0095 -0.2142  0.0553
17907TIP3    H175136   2.681   2.830   4.327 -1.1172  1.3970 -1.7914
17907TIP3    H275137   2.766   2.756   4.226 -1.6905  1.4131 -2.2840
17908TIP3   OH275138   4.272   5.136   3.204 -0.2896 -0.0583  0.0944
17908TIP3    H175139   4.350   5.081   3.193 -0.3101  0.0394 -0.5630
17908TIP3    H275140   4.300   5.206   3.263  0.6252  0.9653 -1.5144
17909TIP3   OH275141   3.951   4.889   5.383  0.2720  0.1669 -0.0784
17909TIP3    H175142   3.909   4.818   5.334 -0.7277  2.1605 -2.2135
17909TIP3    H275143   4.045   4.871   5.376  0.0012 -1.2749 -0.0583
17910TIP3   OH275144   2.847   3.377   1.581 -0.0318  0.5922  0.3179
17910TIP3    H175145   2.773   3.341   1.532 -0.0524 -0.6542  1.2517
17910TIP3    H275146   2.884   3.303   1.628  0.4060  1.6325  1.6642
17911TIP3   OH275147   6.360   3.380   1.397  0.8474  0.0851 -0.2386
17911TIP3    H175148   6.336   3.442   1.328  2.6115  1.1378  0.0704
17911TIP3    H275149   6.454   3.370   1.389  0.7573 -1.6440  0.5169
17912TIP3   OH275150   3.608   6.561  15.480 -0.1333  0.2161  0.2354
17912TIP3    H175151   3.615   6.534  15.572  0.5441  0.1468  0.1626
17912TIP3    H275152   3.580   6.481  15.434  0.3315  0.0420  0.2577
17913TIP3   OH275153   5.071   0.369   5.569 -0.1658  0.8991 -0.0911
17913TIP3    H175154   5.012   0.294   5.571 -1.0628  1.5803  2.9260
17913TIP3    H275155   5.017   0.443   5.541  0.4187  0.6729 -1.8658
17914TIP3   OH275156   0.056   1.978  15.917  0.0303  0.1402 -0.1098
17914TIP3    H175157   0.007   2.033  15.857  0.6835  0.6932 -0.1418
17914TIP3    H275158   0.019   1.998  16.003 -0.4533 -0.1617 -0.2445
17915TIP3   OH275159   5.622   3.252  14.614  0.3635  0.0608 -0.0423
17915TIP3    H175160   5.614   3.291  14.701 -0.6870 -0.8332  0.2760
17915TIP3    H275161   5.631   3.327  14.556 -0.6537  0.7667  0.6753
17916TIP3   OH275162   0.872   5.345  14.784  0.3315 -0.2884  0.6943
17916TIP3    H175163   0.840   5.289  14.713 -2.0845  0.1478  1.4213
17916TIP3    H275164   0.855   5.295  14.863  0.2399  0.5254  1.1922
17917TIP3   OH275165   2.817   3.752   3.768 -0.1186 -0.6295  0.7997
17917TIP3    H175166   2.769   3.685   3.718 -0.6834  0.2595  0.1421
17917TIP3    H275167   2.798   3.731   3.860 -2.7921  0.4180  0.5510
17918TIP3   OH275168   2.282   3.470  11.745 -0.3295  0.5270  0.1489
17918TIP3    H175169   2.321   3.419  11.816 -0.5020  1.0489  0.6271
17918TIP3    H275170   2.206   3.512  11.784 -1.4148 -0.5294 -0.7969
17919TIP3   OH275171   3.985   2.165   1.464  0.3409 -0.0818 -0.0953
17919TIP3    H175172   3.895   2.179   1.493  0.0819 -1.5946 -0.1267
17919TIP3    H275173   4.013   2.250   1.431 -0.6215  0.7314  1.1414
17920TIP3   OH275174   5.911   0.922   0.210  0.0593  0.5639  0.3046
17920TIP3    H175175   6.000   0.899   0.186  0.1913 -1.9246  2.9367
17920TIP3    H275176   5.855   0.868   0.154  0.2976 -0.9762  1.5151
17921TIP3   OH275177   3.929   1.804  16.985  0.0170  0.1252 -0.5300
17921TIP3    H175178   4.006   1.812  17.042 -1.0615  2.1629  0.6662
17921TIP3    H275179   3.868   1.869  17.018 -2.6929 -2.1944 -0.7783
17922TIP3   OH275180   4.803   2.051  11.325 -0.8327 -0.0586 -0.0246
17922TIP3    H175181   4.772   1.970  11.367 -0.2189 -0.3137 -0.0587
17922TIP3    H275182   4.723   2.093  11.293 -1.2093 -0.3919  0.4554
17923TIP3   OH275183   2.645   0.706  14.422 -0.0211 -0.3306  0.1180
17923TIP3    H175184   2.732   0.741  14.443  0.5499 -0.1889 -2.3025
17923TIP3    H275185   2.587   0.749  14.484  1.4192  0.8177  0.7223
17924TIP3   OH275186   0.252   1.330  15.540 -0.2697  0.2873 -0.4797
17924TIP3    H175187   0.316   1.308  15.607  0.3420 -1.0632 -1.4842
17924TIP3    H275188   0.273   1.420  15.514  1.0381 -0.0517 -0.6030
17925TIP3   OH275189   4.961   2.433   3.071  0.4414  0.3963 -0.7439
17925TIP3    H175190   4.879   2.397   3.038  0.1188  0.7329 -0.3147
17925TIP3    H275191   5.018   2.439   2.994  0.4841 -0.9933 -0.8243
17926TIP3   OH275192   3.326   4.445   2.632  0.3620  0.1465 -0.0208
17926TIP3    H175193   3.418   4.466   2.616  0.3883 -0.1496 -0.2895
17926TIP3    H275194   3.312   4.463   2.725  0.4059  1.2185 -0.2202
17927TIP3   OH275195   5.891   3.841  14.305  0.7213 -0.0270 -0.2295
17927TIP3    H175196   5.845   3.885  14.234 -0.2245  0.7192  0.8363
17927TIP3    H275197   5.913   3.911  14.367 -1.7618 -1.1562  2.0242
17928TIP3   OH275198   5.925   3.283   2.918 -0.2435  0.4976 -0.0517
17928TIP3    H175199   5.993   3.275   2.984  0.4043  1.8349 -0.5389
17928TIP3    H275200   5.961   3.344   2.854 -1.5939  0.6254 -0.7072
17929TIP3   OH275201   0.553   1.607   4.302 -0.1250 -0.0853  0.3082
17929TIP3    H175202   0.581   1.679   4.359 -0.1514 -0.0652  0.2954
17929TIP3    H275203   0.595   1.625   4.218 -3.3628  2.1456 -0.9360
17930TIP3   OH275204   1.441   2.022  14.627  0.4108  0.0849  0.6467
17930TIP3    H175205   1.370   1.971  14.588 -0.9280  1.0253  1.8268
17930TIP3    H275206   1.498   2.044  14.553 -0.3780 -0.8955 -0.2657
17931TIP3   OH275207   5.385   3.646  10.618 -0.0947  0.7932 -0.3194
17931TIP3    H175208   5.333   3.679  10.545  0.4359 -0.3184 -1.2270
17931TIP3    H275209   5.394   3.720  10.677 -0.8416  1.6096 -1.2194
17932TIP3   OH275210   2.948   2.972   3.852 -0.2252  0.0636  0.3573
17932TIP3    H175211   2.854   2.961   3.840 -0.2122 -0.7769  0.9857
17932TIP3    H275212   2.975   2.896   3.904  1.1733 -0.9063 -1.7056
17933TIP3   OH275213   5.713   1.321  16.349 -0.4613  0.1306 -0.2786
17933TIP3    H175214   5.721   1.239  16.301 -0.9261  0.7336 -1.4164
17933TIP3    H275215   5.738   1.388  16.286 -1.1029  0.9397  0.3110
17934TIP3   OH275216   1.065   5.627  12.611 -0.2990  0.3774 -0.1989
17934TIP3    H175217   1.032   5.712  12.641  2.8713  0.9524  1.8098
17934TIP3    H275218   1.097   5.584  12.690  0.9867 -1.3982 -1.6443
17935TIP3   OH275219   6.343   4.476  16.205 -0.0092  0.7541  0.4786
17935TIP3    H175220   6.335   4.567  16.231  0.3245  1.1963 -0.9428
17935TIP3    H275221   6.369   4.430  16.285  0.3109  1.9684  1.0772
17936TIP3   OH275222   1.311   0.534   1.633 -0.3044  0.2154 -1.0042
17936TIP3    H175223   1.256   0.456   1.637 -2.2145  1.4722 -1.9413
17936TIP3    H275224   1.400   0.500   1.636 -1.0902 -1.8815  0.4255
17937TIP3   OH275225   3.376   6.239   4.026  0.4713  0.3333 -0.2575
17937TIP3    H175226   3.452   6.184   4.047  0.0932  0.3400  1.1956
17937TIP3    H275227   3.390   6.319   4.078 -1.0635 -0.1057  0.8414
17938TIP3   OH275228   1.739   3.396   2.239 -0.6601  0.2725  0.0717
17938TIP3    H175229   1.802   3.466   2.221  0.0347 -0.4725 -0.4746
17938TIP3    H275230   1.765   3.361   2.324  0.9689 -1.3709 -1.0466
17939TIP3   OH275231   0.767   6.029  11.735 -0.5461  0.3260 -0.0040
17939TIP3    H175232   0.822   6.056  11.661  0.0853  1.8578  0.9896
17939TIP3    H275233   0.829   5.993  11.799 -0.8818  0.6014  0.4811
17940TIP3   OH275234   3.344   0.087   0.996 -0.4101  0.7947 -0.1266
17940TIP3    H175235   3.406   0.122   1.061  1.1861 -1.1560 -0.5418
17940TIP3    H275236   3.281   0.157   0.983  0.6373  2.1316  1.7394
17941TIP3   OH275237   4.169   5.728   1.635  0.1139 -0.1523 -0.0772
17941TIP3    H175238   4.174   5.690   1.547  0.6643  0.6116 -0.3845
17941TIP3    H275239   4.260   5.747   1.657 -0.0735  0.1175  0.4581
17942TIP3   OH275240   6.321   0.128  14.689  0.2728 -0.3224 -0.3813
17942TIP3    H175241   6.235   0.135  14.731  1.1970 -0.1286  1.5086
17942TIP3    H275242   6.319   0.194  14.620 -1.0246 -0.1787 -0.2227
17943TIP3   OH275243   5.502   1.600  13.904 -0.1313 -0.1574 -0.2600
17943TIP3    H175244   5.454   1.682  13.903  0.2372  0.0571 -0.7030
17943TIP3    H275245   5.579   1.617  13.958 -0.0180 -0.1885 -0.4093
17944TIP3   OH275246   1.269   2.693  10.707  0.0848  0.2361 -0.0220
17944TIP3    H175247   1.360   2.716  10.725  0.7304 -2.4850  0.3943
17944TIP3    H275248   1.270   2.663  10.616 -0.0767 -1.2064  0.4327
17945TIP3   OH275249   5.531   1.275  12.987  0.5365  0.2220  0.2647
17945TIP3    H175250   5.490   1.238  13.066 -2.1697  0.0913 -1.1290
17945TIP3    H275251   5.520   1.370  12.997 -1.2112  0.1412 -0.6248
17946TIP3   OH275252   3.785   0.452   3.083  0.0178 -0.0713 -0.6621
17946TIP3    H175253   3.722   0.411   3.024 -0.0671 -0.0254 -0.6038
17946TIP3    H275254   3.750   0.434   3.171  0.3020 -0.3988 -0.6158
17947TIP3   OH275255   1.628   0.295   0.366 -0.1919 -0.2087  0.1325
17947TIP3    H175256   1.658   0.240   0.438 -0.0222  0.2477  0.4099
17947TIP3    H275257   1.644   0.384   0.395 -0.8226  0.0038 -0.1602
17948TIP3   OH275258   3.674   5.082  15.548  0.4433 -0.3035  0.1844
17948TIP3    H175259   3.630   5.145  15.490  1.3425 -0.0485 -0.2260
17948TIP3    H275260   3.675   5.000  15.498  3.3014  0.4932 -1.1497
17949TIP3   OH275261   3.345   6.615  16.768 -0.2777 -0.0746  0.0261
17949TIP3    H175262   3.347   6.706  16.797  1.7074  0.0415 -0.4032
17949TIP3    H275263   3.271   6.611  16.707 -1.5354  0.7799  1.4612
17950TIP3   OH275264   2.956   2.536   1.228  0.3611  0.0501 -0.6695
17950TIP3    H175265   3.029   2.488   1.190 -0.2045 -2.6080  1.4115
17950TIP3    H275266   2.983   2.554   1.318 -0.3829  1.6420 -0.7428
17951TIP3   OH275267   2.808   1.590  13.907 -0.1532 -0.0415 -0.2993
17951TIP3    H175268   2.829   1.500  13.929  0.6993  0.2754  0.1895
17951TIP3    H275269   2.888   1.639  13.925  0.1089  0.4789 -2.7119
17952TIP3   OH275270   0.659   5.808  14.805  0.1846 -0.1646 -0.3210
17952TIP3    H175271   0.641   5.742  14.872 -0.1202  0.5309  0.2984
17952TIP3    H275272   0.577   5.855  14.795 -0.1645 -1.1415 -2.2062
17953TIP3   OH275273   6.468   5.546   3.055 -0.2133 -0.3349 -0.3890
17953TIP3    H175274   6.425   5.629   3.075  2.2522  0.6140  1.2383
17953TIP3    H275275   6.438   5.486   3.123 -0.6989 -0.3187 -0.5847
17954TIP3   OH275276   3.238   5.291  16.591  0.3674  0.5697 -0.0251
17954TIP3    H175277   3.321   5.303  16.636  0.4403  1.4232 -0.3768
17954TIP3    H275278   3.203   5.208  16.626  1.2517  0.3258  0.2821
17955TIP3   OH275279   5.513   4.565  10.933 -0.3349 -0.4716 -0.1135
17955TIP3    H175280   5.551   4.652  10.932  0.2282 -0.7133 -0.1421
17955TIP3    H275281   5.588   4.507  10.951 -0.9269 -0.8326  1.2631
17956TIP3   OH275282   2.718   0.536   1.296 -0.4213  0.1421 -0.3613
17956TIP3    H175283   2.750   0.540   1.206 -1.2073 -2.3678 -0.7816
17956TIP3    H275284   2.790   0.496   1.345 -0.6498 -0.0629 -0.1924
17957TIP3   OH275285   3.890   4.477  13.955  0.0346  0.3962  0.4966
17957TIP3    H175286   3.859   4.386  13.951  0.3807  0.3642 -2.8213
17957TIP3    H275287   3.975   4.472  13.999 -0.2722 -0.7748  0.9736
17958TIP3   OH275288   2.582   1.445   3.869  0.2182 -0.8342  0.8083
17958TIP3    H175289   2.553   1.462   3.780 -3.3864 -0.0084  2.0532
17958TIP3    H275290   2.577   1.350   3.878 -0.5863 -0.8302  0.4641
17959TIP3   OH275291   2.634   0.653  16.354 -0.3703  0.5355 -0.4700
17959TIP3    H175292   2.543   0.643  16.327 -0.3272  0.0689 -0.4320
17959TIP3    H275293   2.676   0.700  16.282 -0.8388  1.5352 -0.1100
17960TIP3   OH275294   2.718   6.493  13.408 -0.5407  0.1594  0.3279
17960TIP3    H175295   2.626   6.516  13.418 -1.4593 -3.8018  2.0329
17960TIP3    H275296   2.724   6.455  13.320 -0.6374  0.1213  0.3369
17961TIP3   OH275297   5.692   1.828  13.751  0.1192  1.0087 -0.0838
17961TIP3    H175298   5.724   1.918  13.742 -2.3070  1.9878  0.5556
17961TIP3    H275299   5.653   1.809  13.665  0.5497  0.6119 -0.1891
17962TIP3   OH275300   2.154   2.665   1.401 -0.7107  0.2751  0.1140
17962TIP3    H175301   2.172   2.711   1.319  2.3033  1.0988  1.2024
17962TIP3    H275302   2.086   2.718   1.443  1.5686  2.9029  0.6076
17963TIP3   OH275303   4.656   1.257   5.926 -0.1165  0.4131  0.6215
17963TIP3    H175304   4.662   1.293   6.015 -0.5112 -0.5419  1.0473
17963TIP3    H275305   4.680   1.165   5.936 -1.9547 -0.1566  0.0727
17964TIP3   OH275306   3.304   2.314  15.640 -0.4302  0.3049 -0.2452
17964TIP3    H175307   3.358   2.292  15.564  0.6747 -1.3810  1.0178
17964TIP3    H275308   3.349   2.388  15.681  0.4932 -0.5686  0.3383
17965TIP3   OH275309   1.233   0.907  12.532  0.0246 -0.4384  0.5196
17965TIP3    H175310   1.241   0.967  12.458 -0.0483 -2.2718 -1.0023
17965TIP3    H275311   1.138   0.891  12.539  0.2079 -1.9436 -0.3651
17966TIP3   OH275312   0.937   5.361  15.264  0.5036  0.0038 -0.0057
17966TIP3    H175313   0.849   5.384  15.291  1.1696  0.8807  1.4561
17966TIP3    H275314   0.964   5.433  15.207  0.0833 -0.5338 -0.8939
17967TIP3   OH275315   4.488   0.497  13.579 -0.4873 -0.1416  0.0786
17967TIP3    H175316   4.582   0.510  13.592 -1.0293  2.6519  1.6726
17967TIP3    H275317   4.473   0.406  13.603  1.6809 -0.3325  0.8102
17968TIP3   OH275318   0.915   2.788  13.010 -0.0553  0.1727  0.4037
17968TIP3    H175319   0.937   2.852  12.943  1.0707  0.3910  0.9786
17968TIP3    H275320   0.882   2.713  12.961  0.0106  0.6268 -0.3478
17969TIP3   OH275321   2.978   5.552   6.381  0.0341  0.1473 -0.4851
17969TIP3    H175322   2.926   5.633   6.374 -2.0137 -0.8243  2.6149
17969TIP3    H275323   3.053   5.577   6.435 -1.5166 -0.3703  1.9973
17970TIP3   OH275324   4.934   3.275  12.803  0.0034  0.0347  0.1873
17970TIP3    H175325   4.916   3.187  12.838  4.0094 -0.4816  1.1653
17970TIP3    H275326   4.860   3.328  12.832 -1.9624 -2.7522  0.5052
17971TIP3   OH275327   3.278   5.971  13.218 -0.2551  0.2261  0.5583
17971TIP3    H175328   3.324   6.024  13.283  0.2228 -0.4719  0.7847
17971TIP3    H275329   3.188   5.965  13.251 -0.3945  1.1647  0.3695
17972TIP3   OH275330   5.364   3.847  11.681  0.2013  0.2913 -0.0857
17972TIP3    H175331   5.332   3.769  11.725 -0.2380 -0.9369 -2.4975
17972TIP3    H275332   5.316   3.919  11.722  0.1206 -0.7508  1.6952
17973TIP3   OH275333   6.625   5.373   3.654  0.3020 -0.1676 -0.0369
17973TIP3    H175334   6.707   5.328   3.673  0.7481  0.2981 -0.8104
17973TIP3    H275335   6.629   5.453   3.706 -1.0197 -1.5552  2.2469
17974TIP3   OH275336   5.046   1.086  11.682  0.8047  0.2113 -0.3789
17974TIP3    H175337   5.111   1.129  11.626 -0.1100 -1.2221 -2.6396
17974TIP3    H275338   4.962   1.114  11.647  0.2025 -0.2759  0.6587
17975TIP3   OH275339   3.942   6.670   1.099 -0.0682  0.0172 -0.2474
17975TIP3    H175340   3.892   6.736   1.147  1.9271  1.3220  0.0785
17975TIP3    H275341   4.030   6.707   1.091  0.7513 -2.0482 -1.1742
17976TIP3   OH275342   2.054   5.705   3.708 -0.1429 -0.1359 -0.4314
17976TIP3    H175343   1.960   5.688   3.703 -0.1907  0.0660 -0.2083
17976TIP3    H275344   2.087   5.677   3.623 -0.4219 -0.1003 -0.5528
17977TIP3   OH275345   3.315   5.239   5.768  0.2738  0.9523 -0.1793
17977TIP3    H175346   3.346   5.190   5.845 -2.6842 -1.9546 -0.7022
17977TIP3    H275347   3.280   5.320   5.804  0.3122  0.3118  1.3812
17978TIP3   OH275348   5.385   3.998  11.053 -0.2237 -0.1264 -0.6733
17978TIP3    H175349   5.438   3.938  11.000  0.3715  0.4929 -0.7892
17978TIP3    H275350   5.295   3.981  11.025 -0.1582 -1.6515 -0.0017
17979TIP3   OH275351   2.022   6.679  11.576  0.1512  0.1819 -0.5986
17979TIP3    H175352   2.006   6.636  11.492 -1.1347 -0.2874 -0.1348
17979TIP3    H275353   2.044   6.769  11.553 -0.4742  0.1255 -1.4361
17980TIP3   OH275354   2.735   6.000   6.326 -0.3572 -0.1318  0.3346
17980TIP3    H175355   2.740   6.086   6.366  0.5759  0.7711 -1.6166
17980TIP3    H275356   2.667   6.008   6.259  0.3615 -0.5978 -0.4792
17981TIP3   OH275357   6.058   3.720  12.754 -0.4076 -0.0736 -0.4878
17981TIP3    H175358   6.116   3.761  12.818  1.1963 -1.8888 -0.7184
17981TIP3    H275359   5.969   3.737  12.787  0.2271  2.8798 -0.2231
17982TIP3   OH275360   6.670   0.138  17.066 -0.2162  0.0626  0.3761
17982TIP3    H175361   6.605   0.176  17.125  0.6321  0.9456  0.7506
17982TIP3    H275362   6.623   0.067  17.021 -1.3904  0.5837  0.7574
17983TIP3   OH275363   2.624   3.880  11.427  0.7136  0.5573 -0.0807
17983TIP3    H175364   2.667   3.882  11.341  0.1019 -0.5286 -0.4259
17983TIP3    H275365   2.628   3.970  11.458  0.0782  1.1632 -1.6903
17984TIP3   OH275366   3.751   4.135   1.353 -0.4892 -0.0380  0.0880
17984TIP3    H175367   3.721   4.225   1.353  0.1019  0.1864 -1.6990
17984TIP3    H275368   3.697   4.092   1.286  0.0298 -0.7348  0.1108
17985TIP3   OH275369   5.078   0.061   1.125 -0.2011  0.5605  0.3398
17985TIP3    H175370   5.046   0.151   1.120 -1.2784  0.0262 -3.7326
17985TIP3    H275371   5.170   0.067   1.100 -0.6785  0.3852 -1.5582
17986TIP3   OH275372   0.422   6.392  16.250 -0.2665  0.3087  0.1348
17986TIP3    H175373   0.469   6.345  16.181  0.8797 -0.7910  1.6098
17986TIP3    H275374   0.469   6.475  16.259  0.4237 -0.1189  0.5156
17987TIP3   OH275375   0.728   5.488  12.830  0.5301 -0.4107 -0.3791
17987TIP3    H175376   0.757   5.397  12.843 -0.0198 -0.8900 -2.3506
17987TIP3    H275377   0.772   5.515  12.750  1.0162  1.2331  0.4222
17988TIP3   OH275378   5.990   0.548  13.792 -0.0908  0.1378 -0.2514
17988TIP3    H175379   6.014   0.560  13.884  0.5965 -1.2434 -0.2386
17988TIP3    H275380   5.951   0.631  13.766 -0.9702  0.2824  1.5026
17989TIP3   OH275381   5.977   4.678  14.450 -0.3459  0.2663  0.1654
17989TIP3    H175382   5.924   4.724  14.385 -1.7409 -1.0547  0.3373
17989TIP3    H275383   6.000   4.596  14.408  0.3021  0.1928  0.6644
17990TIP3   OH275384   2.571   0.490   1.799  0.2534  0.0481 -0.3547
17990TIP3    H175385   2.558   0.584   1.787 -1.0555 -0.1821 -0.7773
17990TIP3    H275386   2.488   0.458   1.833  1.4421 -0.5910  2.0741
17991TIP3   OH275387   1.701   5.840   4.606  0.1017 -0.6578 -0.8375
17991TIP3    H175388   1.612   5.807   4.593 -0.7173  1.3273 -0.5237
17991TIP3    H275389   1.719   5.892   4.528  0.3554  0.2722 -0.1732
17992TIP3   OH275390   0.628   5.050  14.229 -0.4181  0.0806 -0.5987
17992TIP3    H175391   0.539   5.070  14.259 -0.8960 -4.1620  1.0875
17992TIP3    H275392   0.616   4.986  14.160  1.2367  2.0187 -2.7461
17993TIP3   OH275393   3.098   0.463  11.590 -0.5755  0.5185  0.3233
17993TIP3    H175394   3.143   0.535  11.634 -0.3853  0.2953  0.4906
17993TIP3    H275395   3.024   0.442  11.647  0.0802 -0.2458  0.8831
17994TIP3   OH275396   4.258   2.808  10.817  0.6184  0.1028  0.2278
17994TIP3    H175397   4.230   2.722  10.848 -1.0834  1.0366  1.3120
17994TIP3    H275398   4.343   2.822  10.858  0.0123 -0.2229  1.6132
17995TIP3   OH275399   6.753   0.864  13.337 -0.3141  0.1770  0.4961
17995TIP3    H175400   6.701   0.940  13.363 -0.6199 -0.3366  1.3886
17995TIP3    H275401   6.688   0.801  13.306 -0.3252 -0.8033  2.4447
17996TIP3   OH275402   1.801   0.170   5.998 -0.1386 -0.0655 -0.3014
17996TIP3    H175403   1.741   0.215   6.058  0.0997  1.0491 -0.8822
17996TIP3    H275404   1.744   0.124   5.937 -0.3860 -0.8096  0.4877
17997TIP3   OH275405   5.248   4.589  16.433 -0.9741  0.6183 -0.5544
17997TIP3    H175406   5.191   4.550  16.367 -2.3158 -1.5103  1.7966
17997TIP3    H275407   5.336   4.587  16.394 -1.7711 -0.4008 -2.3315
17998TIP3   OH275408   1.482   0.819   2.127 -0.2475  0.2364 -0.6397
17998TIP3    H175409   1.432   0.830   2.208  0.1949  0.3758 -0.3861
17998TIP3    H275410   1.572   0.802   2.156 -0.0308  0.5761 -1.1034
17999TIP3   OH275411   1.105   5.934  15.200  0.1104  0.0489  0.3423
17999TIP3    H175412   1.060   5.993  15.261 -1.1271 -0.6891  0.1566
17999TIP3    H275413   1.036   5.877  15.166  1.1222 -0.8331 -0.2715
18000TIP3   OH275414   1.449   4.806  13.395 -0.1478  0.0216 -0.4089
18000TIP3    H175415   1.497   4.738  13.443 -1.8191 -1.5745 -0.9320
18000TIP3    H275416   1.375   4.827  13.452  1.1969  2.5668  0.4586
18001TIP3   OH275417   0.412   5.300  11.152  0.2621  0.3027  0.0660
18001TIP3    H175418   0.346   5.355  11.111 -0.7335  0.0063  1.2638
18001TIP3    H275419   0.423   5.227  11.091 -1.3797 -0.2607  0.4275
18002TIP3   OH275420   6.768   2.159  13.222  0.5773  0.2630  0.0725
18002TIP3    H175421   6.811   2.150  13.137  1.1364 -3.9107  0.6645
18002TIP3    H275422   6.837   2.144  13.286 -0.7833 -1.7575  1.1329
18003TIP3   OH275423   3.900   2.968  11.144 -0.5158 -0.6457  0.0458
18003TIP3    H175424   3.908   2.888  11.197 -0.7502 -2.3955 -2.4507
18003TIP3    H275425   3.985   2.977  11.101 -0.5972  0.2760  0.0729
18004TIP3   OH275426   0.695   5.535   6.063  0.0998  0.0716  0.3065
18004TIP3    H175427   0.608   5.546   6.101  0.1055 -1.9664  0.9861
18004TIP3    H275428   0.750   5.509   6.137  1.0533  0.3589 -0.2996
18005TIP3   OH275429   0.667   3.231   2.723 -0.6052 -0.3647  0.4583
18005TIP3    H175430   0.628   3.279   2.649  0.6434 -1.9815 -1.2684
18005TIP3    H275431   0.728   3.293   2.762 -1.9689  0.8327  0.7725
18006TIP3   OH275432   2.169   4.706   2.282  0.4152 -0.2045 -0.0684
18006TIP3    H175433   2.204   4.669   2.363  0.0199 -2.4467 -0.8810
18006TIP3    H275434   2.171   4.800   2.296  1.6188 -0.5025  2.0239
18007TIP3   OH275435   0.909   1.228   3.618 -0.2857  0.1628 -0.2606
18007TIP3    H175436   0.943   1.157   3.565 -0.1384  0.4298 -0.5263
18007TIP3    H275437   0.888   1.297   3.555 -1.3624 -0.0202 -0.1019
18008TIP3   OH275438   1.854   5.650  14.601 -0.0026  0.0546 -0.0635
18008TIP3    H175439   1.765   5.646  14.566  1.1701  1.6894 -3.4413
18008TIP3    H275440   1.894   5.567  14.575  0.7747  1.1438 -2.4530
18009TIP3   OH275441   3.066   1.327   3.264  0.4778  0.0528 -0.1993
18009TIP3    H175442   3.091   1.374   3.344  0.5107  1.1112 -0.8262
18009TIP3    H275443   3.127   1.358   3.198 -0.6170  0.4709 -1.0428
18010TIP3   OH275444   3.376   2.882   3.025 -0.2400 -1.0256 -0.0884
18010TIP3    H175445   3.438   2.947   2.993  1.7165 -2.5774  0.4712
18010TIP3    H275446   3.299   2.933   3.052  1.1514  1.0153  0.1034
18011TIP3   OH275447   6.518   3.746   0.308 -0.1913  0.2095  0.3987
18011TIP3    H175448   6.470   3.801   0.370 -0.1735 -0.5940  1.1322
18011TIP3    H275449   6.583   3.805   0.269 -1.4341  1.1768 -0.2376
18012TIP3   OH275450   3.105   2.902   3.628  0.4264 -0.4139 -0.4819
18012TIP3    H175451   3.123   2.809   3.636  2.5577  0.0327  0.2759
18012TIP3    H275452   3.051   2.923   3.705 -0.8072 -1.1746 -1.1282
18013TIP3   OH275453   6.225   5.174   1.387  1.0290 -0.1525  0.0121
18013TIP3    H175454   6.187   5.196   1.472  0.8798 -0.7925  0.1084
18013TIP3    H275455   6.307   5.223   1.384  0.1153  1.3910 -0.2720
18014TIP3   OH275456   2.465   5.684  17.238 -0.2069 -1.0300  0.0853
18014TIP3    H175457   2.518   5.644  17.307  3.8950 -0.0041 -2.3356
18014TIP3    H275458   2.425   5.609  17.193  2.0231 -2.0784 -0.2229
18015TIP3   OH275459   6.634   3.312   3.008 -0.2845  0.2397 -0.1949
18015TIP3    H175460   6.566   3.344   2.949  0.7055  1.9358 -0.4269
18015TIP3    H275461   6.715   3.321   2.959  0.1331 -1.9421  0.0190
18016TIP3   OH275462   1.885   3.279   1.436 -0.2624 -0.2586 -0.5688
18016TIP3    H175463   1.930   3.213   1.384  1.8933 -0.4991  1.5248
18016TIP3    H275464   1.944   3.354   1.437 -0.1731 -0.3208  1.6254
18017TIP3   OH275465   0.403   2.429   1.343  0.0016 -0.3014 -0.1646
18017TIP3    H175466   0.351   2.470   1.412 -1.3396  0.0013 -1.3188
18017TIP3    H275467   0.487   2.412   1.383 -0.2119  1.3864  1.0749
18018TIP3   OH275468   4.312   5.577  14.939  0.0910  0.3208  0.1201
18018TIP3    H175469   4.376   5.528  14.990  0.4640  0.3688 -0.2889
18018TIP3    H275470   4.334   5.556  14.848  0.2147  1.1898 -0.0545
18019TIP3   OH275471   2.861   0.452  10.915  0.4077  0.5010  0.0755
18019TIP3    H175472   2.869   0.363  10.880 -1.3009  0.3575 -0.0163
18019TIP3    H275473   2.810   0.441  10.995  1.8216  1.1825  1.0815
18020TIP3   OH275474   3.107   0.755  16.619  0.0307 -0.0180 -0.0340
18020TIP3    H175475   3.129   0.816  16.549 -1.9023 -0.0400 -0.6943
18020TIP3    H275476   3.188   0.706  16.635  0.2955 -0.6078 -2.8495
18021TIP3   OH275477   1.669   0.070  13.840  0.0305  0.2315  0.0661
18021TIP3    H175478   1.732   0.006  13.807 -0.2740  0.8537 -1.7796
18021TIP3    H275479   1.722   0.140  13.878  0.4199  0.2995 -0.6143
18022TIP3   OH275480   1.323   5.013  15.058  0.0784 -0.4617 -0.1089
18022TIP3    H175481   1.236   5.049  15.044  0.0892 -0.4422 -0.1258
18022TIP3    H275482   1.374   5.086  15.094  0.2926 -0.2662 -0.8002
18023TIP3   OH275483   3.437   1.840  13.234 -0.3566 -1.0027  0.7550
18023TIP3    H175484   3.528   1.855  13.212 -0.7543 -0.0007 -0.2455
18023TIP3    H275485   3.434   1.749  13.266  0.8768 -1.2125  0.2726
18024TIP3   OH275486   5.414   5.727   0.716  0.0667  0.1429  0.0299
18024TIP3    H175487   5.367   5.647   0.690 -0.3015  0.6749 -0.9747
18024TIP3    H275488   5.458   5.703   0.797 -0.5860 -0.8816  0.0988
18025TIP3   OH275489   6.661   2.363  11.983 -0.3150  0.2094 -0.1793
18025TIP3    H175490   6.578   2.363  11.934 -0.6676  1.0731  0.4055
18025TIP3    H275491   6.728   2.377  11.916 -0.9041  2.7896 -0.2749
18026TIP3   OH275492   3.036   1.141   4.271  0.0995 -0.2362 -0.2885
18026TIP3    H175493   3.025   1.153   4.366 -0.5297 -0.1589 -0.3732
18026TIP3    H275494   3.013   1.226   4.234 -0.3769 -0.4951 -0.5735
18027TIP3   OH275495   1.077   6.332  11.561  0.6197  0.2797  0.4544
18027TIP3    H175496   1.021   6.276  11.507  0.5715 -0.0565  0.8408
18027TIP3    H275497   1.071   6.293  11.648  1.0329  0.5629  0.6089
18028TIP3   OH275498   1.151   3.516  14.931 -0.5891 -0.1102  0.2961
18028TIP3    H175499   1.114   3.434  14.962  1.6921 -1.3208 -0.0548
18028TIP3    H275500   1.124   3.522  14.840 -2.1851  0.3909  0.7940
18029TIP3   OH275501   0.195   5.008  11.560  0.3349  0.5587 -0.3544
18029TIP3    H175502   0.119   4.958  11.528  1.3638 -1.1245 -0.2163
18029TIP3    H275503   0.223   5.059  11.484 -0.4268  0.5373 -0.6549
18030TIP3   OH275504   2.673   1.475  12.129 -0.2602  0.0899  0.1807
18030TIP3    H175505   2.685   1.569  12.144 -0.4329  0.0531  0.5515
18030TIP3    H275506   2.670   1.436  12.216 -0.7851 -0.1854  0.0476
18031TIP3   OH275507   3.173   4.445  16.787 -0.4871  0.3352  0.9956
18031TIP3    H175508   3.163   4.505  16.861  1.5744  1.1145  0.6787
18031TIP3    H275509   3.265   4.455  16.761 -0.6741 -1.4265 -0.3834
18032TIP3   OH275510   1.873   0.700  14.726  0.2107  0.5256  0.3277
18032TIP3    H175511   1.832   0.647  14.658  0.2366  0.4538  0.3686
18032TIP3    H275512   1.937   0.754  14.679  1.0157 -0.3194  0.4498
18033TIP3   OH275513   3.654   0.310  16.707  0.2047  0.1984  0.2112
18033TIP3    H175514   3.673   0.226  16.665 -0.6212  1.0643 -1.9570
18033TIP3    H275515   3.591   0.288  16.776 -0.8868 -0.8089 -1.0803
18034TIP3   OH275516   4.148   4.952   4.339  0.0823  0.4253 -0.5536
18034TIP3    H175517   4.137   4.879   4.400  1.8117  0.5696 -0.0477
18034TIP3    H275518   4.186   4.912   4.260  0.8676  0.7491 -0.3409
18035TIP3   OH275519   0.646   3.512  12.371  0.0092  0.3029  0.4200
18035TIP3    H175520   0.671   3.458  12.296 -1.2245  0.7787 -0.3600
18035TIP3    H275521   0.628   3.449  12.441  1.9015 -0.1011  0.5525
18036TIP3   OH275522   4.501   5.715   3.301  0.5293 -0.4660 -0.2495
18036TIP3    H175523   4.514   5.743   3.211  0.7242  1.0012  0.2197
18036TIP3    H275524   4.470   5.793   3.347  1.4315 -0.9129  1.1738
18037TIP3   OH275525   0.780   1.592   0.346 -0.0752 -0.0995  0.1667
18037TIP3    H175526   0.792   1.675   0.393 -1.6623 -0.9261  2.1216
18037TIP3    H275527   0.800   1.525   0.411  0.2932 -1.2707 -1.1334
18038TIP3   OH275528   2.898   0.810   0.968  0.4729  0.4500 -0.3526
18038TIP3    H175529   2.857   0.790   0.884 -1.2502 -0.2715  0.6377
18038TIP3    H275530   2.877   0.735   1.023 -0.8286  2.1863  1.5630
18039TIP3   OH275531   3.404   1.573  13.574  0.0279 -0.1962  0.3295
18039TIP3    H175532   3.403   1.481  13.547  1.2116 -0.5266  1.3552
18039TIP3    H275533   3.486   1.608  13.539  0.5751 -0.0854  1.6612
18040TIP3   OH275534   5.278   2.807  14.079 -0.1218 -0.2037 -0.6107
18040TIP3    H175535   5.210   2.873  14.067 -1.1682 -0.8532  1.4760
18040TIP3    H275536   5.355   2.857  14.106 -1.0427  0.1658  1.4473
18041TIP3   OH275537   5.896   2.968  12.779 -0.8593  0.3745  0.1014
18041TIP3    H175538   5.889   2.948  12.872  0.2436 -1.0711 -0.1098
18041TIP3    H275539   5.836   2.907  12.737  1.2030 -1.3392 -0.4065
18042TIP3   OH275540   0.325   2.191   5.345  0.2393 -0.4406 -0.1469
18042TIP3    H175541   0.250   2.220   5.293  2.4720  2.1574 -2.1146
18042TIP3    H275542   0.315   2.236   5.428 -0.6498 -0.5157 -0.2068
18043TIP3   OH275543   6.086   6.585  15.329 -0.6326  0.3926  0.3959
18043TIP3    H175544   6.141   6.639  15.386 -0.8860 -0.7995  1.8023
18043TIP3    H275545   6.084   6.499  15.372 -0.3941 -0.6885 -1.6982
18044TIP3   OH275546   2.001   3.814   1.910  0.2012  0.1066 -0.1485
18044TIP3    H175547   2.072   3.873   1.883 -1.1540  0.4752 -3.0897
18044TIP3    H275548   1.921   3.866   1.899 -0.7196 -1.0375  0.9642
18045TIP3   OH275549   1.768   1.890  11.384 -0.2283  0.4907 -0.0360
18045TIP3    H175550   1.784   1.810  11.434 -1.3197  1.0991  1.3104
18045TIP3    H275551   1.800   1.870  11.296  1.2249 -0.7778  0.7572
18046TIP3   OH275552   2.127   4.719   0.486 -0.5238  0.1102 -0.3815
18046TIP3    H175553   2.115   4.736   0.579  1.6585  0.2589 -0.1160
18046TIP3    H275554   2.106   4.626   0.475 -2.5772  0.5056 -0.0907
18047TIP3   OH275555   5.904   6.223  17.113  0.3244 -0.2056  0.2725
18047TIP3    H175556   5.851   6.242  17.035  1.1762  1.3657  0.0661
18047TIP3    H275557   5.841   6.225  17.185  0.0675  1.6972  0.0310
18048TIP3   OH275558   0.601   1.924  11.806 -0.0532  0.2472  0.2763
18048TIP3    H175559   0.661   1.960  11.871 -2.9074 -2.1383  4.4327
18048TIP3    H275560   0.629   1.833  11.795  0.0107  0.4542 -1.4229
18049TIP3   OH275561   4.058   6.527  16.754 -0.5902 -0.2638  0.2657
18049TIP3    H175562   3.989   6.567  16.702  0.5649 -0.8364 -1.7423
18049TIP3    H275563   4.023   6.440  16.776 -1.6393  0.4838  1.6521
18050TIP3   OH275564   2.652   2.563   3.119  0.2096  0.6702 -0.2623
18050TIP3    H175565   2.712   2.623   3.163 -0.3847  1.5765 -0.6889
18050TIP3    H275566   2.602   2.618   3.059 -2.0373  0.1840  1.0960
18051TIP3   OH275567   4.890   5.911   0.386 -0.2344  0.5333 -0.3593
18051TIP3    H175568   4.918   5.829   0.345 -0.2908 -0.4986  1.6168
18051TIP3    H275569   4.830   5.884   0.456 -0.6771  2.2951 -0.0364
18052TIP3   OH275570   6.547   2.311  15.635 -0.0201 -0.4490  0.3159
18052TIP3    H175571   6.467   2.364  15.641 -0.2065 -0.6928 -0.0384
18052TIP3    H275572   6.596   2.351  15.563  0.0555 -0.4707  0.3546
18053TIP3   OH275573   0.841   3.465   0.864 -0.2474 -0.0578  0.1552
18053TIP3    H175574   0.923   3.426   0.895  0.6390 -0.2222 -2.2617
18053TIP3    H275575   0.865   3.508   0.782 -1.5146  4.3747  1.9908
18054TIP3   OH275576   5.100   1.337   3.319 -0.5423 -0.2720 -0.2746
18054TIP3    H175577   5.007   1.323   3.340 -0.5953 -0.2798 -0.5063
18054TIP3    H275578   5.147   1.274   3.373 -0.8521 -2.1881 -2.1402
18055TIP3   OH275579   2.576   1.827   5.659  0.1548 -0.2648  0.1924
18055TIP3    H175580   2.500   1.772   5.642  1.1431 -2.1818  1.8364
18055TIP3    H275581   2.545   1.916   5.644 -2.2570 -1.0599  0.3176
18056TIP3   OH275582   6.754   3.973   0.525  0.3726 -0.3571 -0.1531
18056TIP3    H175583   6.705   4.013   0.597  1.7724 -1.2400  1.3275
18056TIP3    H275584   6.821   4.037   0.503  1.0414 -0.8184  0.5231
18057TIP3   OH275585   4.356   0.008  14.914 -0.1527  0.2737 -0.1039
18057TIP3    H175586   4.266   0.031  14.938 -0.9908 -0.9703 -1.9481
18057TIP3    H275587   4.372  -0.076  14.958  0.3978  0.8569  0.8370
18058TIP3   OH275588   5.787   6.057  14.942 -0.4093  0.7458 -0.0415
18058TIP3    H175589   5.766   5.966  14.965  0.4127  0.2833 -1.0934
18058TIP3    H275590   5.702   6.100  14.936 -1.0284 -0.7761 -2.9359
18059TIP3   OH275591   4.525   3.673   5.468  0.5487 -0.0251 -0.1033
18059TIP3    H175592   4.465   3.732   5.423  1.5452  0.6127 -0.6073
18059TIP3    H275593   4.604   3.674   5.414  1.5078  0.2118  1.3072
18060TIP3   OH275594   4.888   2.512  14.954  0.0550  0.0364 -0.1080
18060TIP3    H175595   4.919   2.426  14.924  4.0030  1.6673 -1.0530
18060TIP3    H275596   4.836   2.545  14.881 -0.5744 -1.0935 -0.1808
18061TIP3   OH275597   4.827   5.250  16.505  0.2637  0.5442 -0.1820
18061TIP3    H175598   4.795   5.253  16.596 -0.1139  0.9337 -0.3218
18061TIP3    H275599   4.794   5.167  16.471  1.2088 -0.0440  0.3294
18062TIP3   OH275600   5.171   1.768  16.539 -0.2581  0.0747 -0.0633
18062TIP3    H175601   5.261   1.788  16.512 -0.1959 -0.2294 -0.0794
18062TIP3    H275602   5.161   1.813  16.623  0.2360 -0.7061  0.4229
18063TIP3   OH275603   3.649   1.899  12.591  0.1170  0.8264  0.1599
18063TIP3    H175604   3.562   1.862  12.597  0.2580  0.5604  0.6030
18063TIP3    H275605   3.664   1.940  12.676  0.0872  1.6271 -0.2077
18064TIP3   OH275606   6.050   0.192   2.931 -0.1308  0.3952 -0.6046
18064TIP3    H175607   6.112   0.226   2.996  0.1757 -0.9974 -0.1450
18064TIP3    H275608   5.987   0.142   2.983 -0.3239 -0.0833 -1.2945
18065TIP3   OH275609   4.228   0.506  12.293  0.4685  0.0823 -0.6977
18065TIP3    H175610   4.137   0.518  12.319  0.3436 -1.7281 -0.2499
18065TIP3    H275611   4.233   0.415  12.265  1.6726  0.7187 -2.6545
18066TIP3   OH275612   0.101   4.157  15.162  0.8435 -1.0144  0.2583
18066TIP3    H175613   0.147   4.108  15.094 -0.1478 -2.2166  0.4489
18066TIP3    H275614   0.139   4.126  15.244  0.9549 -0.6871  0.3313
18067TIP3   OH275615   0.386   2.702  13.700 -0.1026  0.1507  0.1615
18067TIP3    H175616   0.376   2.753  13.620  1.7466  1.0199  0.4472
18067TIP3    H275617   0.348   2.756  13.769 -2.3999 -0.9321 -0.2086
18068TIP3   OH275618   2.891   1.995   3.359 -0.5611 -0.5440 -0.2098
18068TIP3    H175619   2.982   1.998   3.390 -0.4632  0.5098 -0.5990
18068TIP3    H275620   2.886   2.061   3.291 -1.6525 -0.5264 -0.1277
18069TIP3   OH275621   2.973   2.240   3.263  0.2758 -0.5309  0.0068
18069TIP3    H175622   3.027   2.311   3.297  1.4557 -2.2901  1.8825
18069TIP3    H275623   3.027   2.199   3.195 -0.4161  0.3421 -1.0952
18070TIP3   OH275624   5.688   0.614   6.621 -0.4125 -0.3269  0.0080
18070TIP3    H175625   5.615   0.554   6.605  0.7623 -1.6578 -0.4264
18070TIP3    H275626   5.678   0.683   6.555 -1.2731 -0.4881 -0.0352
18071TIP3   OH275627   1.750   5.774  16.103 -0.1130 -0.1768  0.2209
18071TIP3    H175628   1.675   5.734  16.060  0.9516 -0.4215 -1.4414
18071TIP3    H275629   1.788   5.832  16.038  1.3087 -0.2787  0.9314
18072TIP3   OH275630   3.094   4.393   4.561 -0.1588 -0.0624  0.4624
18072TIP3    H175631   3.087   4.346   4.478  0.4332 -3.1758  2.1066
18072TIP3    H275632   3.026   4.354   4.616  0.7735  0.5633  2.0890
18073TIP3   OH275633   5.108   1.458  14.511 -0.2086  0.1843 -0.6894
18073TIP3    H175634   5.061   1.488  14.589 -0.5267  1.2157 -1.2726
18073TIP3    H275635   5.201   1.463  14.536 -0.3181  0.3546 -0.3171
18074TIP3   OH275636   1.800   4.192   1.572 -0.2501  0.3911  0.1004
18074TIP3    H175637   1.797   4.186   1.476  1.4594 -1.0031  0.1217
18074TIP3    H275638   1.848   4.272   1.590 -3.0066  2.1894 -0.1701
18075TIP3   OH275639   1.860   5.080  12.162  0.4241 -0.4060 -0.0513
18075TIP3    H175640   1.913   5.147  12.206  1.1436  0.4983 -2.2131
18075TIP3    H275641   1.808   5.040  12.232  2.4266  0.1365  1.7895
18076TIP3   OH275642   1.214   4.144   3.547  0.3819 -0.1486 -0.2704
18076TIP3    H175643   1.156   4.107   3.480 -0.1341  0.8870 -0.4054
18076TIP3    H275644   1.194   4.237   3.548 -0.0782 -0.2382  1.7841
18077TIP3   OH275645   1.740   5.326   4.733 -0.6771 -0.2922 -0.4241
18077TIP3    H175646   1.672   5.321   4.800  0.7985  0.6904  1.1840
18077TIP3    H275647   1.809   5.378   4.773  0.9925 -1.2044 -2.0549
18078TIP3   OH275648   3.801   5.044  14.457 -0.6584 -0.0525 -0.3628
18078TIP3    H175649   3.784   5.114  14.394 -0.7774  0.0776 -0.1835
18078TIP3    H275650   3.725   4.986  14.448 -0.3325 -0.4112 -0.8556
18079TIP3   OH275651   1.708   3.324  11.449  0.0585  0.0520 -0.4405
18079TIP3    H175652   1.746   3.355  11.367 -0.0637  1.5657  0.0556
18079TIP3    H275653   1.629   3.276  11.423  0.7461 -0.6350 -1.2829
18080TIP3   OH275654   1.818   1.062   1.701 -0.2752 -0.1346 -0.0799
18080TIP3    H175655   1.777   0.978   1.681 -2.0524  0.5353  0.6471
18080TIP3    H275656   1.837   1.101   1.615 -0.8273 -0.6159 -0.4184
18081TIP3   OH275657   6.628   5.030  14.265 -0.1781  0.2190 -0.3593
18081TIP3    H175658   6.692   5.100  14.252 -0.4473  0.4184 -0.6347
18081TIP3    H275659   6.599   5.040  14.355 -1.0094  1.1430 -0.7190
18082TIP3   OH275660   4.566   3.443  14.057 -0.2588 -0.6431 -0.2787
18082TIP3    H175661   4.623   3.414  14.127  1.0845  1.4849 -0.4489
18082TIP3    H275662   4.607   3.523  14.024 -1.4524 -1.0017 -2.7585
18083TIP3   OH275663   4.588   1.764   5.183  0.2636  0.6086  1.1484
18083TIP3    H175664   4.542   1.786   5.264 -1.8484  0.0009  0.1287
18083TIP3    H275665   4.560   1.675   5.163  1.2369  0.5371  0.0528
18084TIP3   OH275666   5.230   5.450   1.811  0.5229 -0.0098  0.1900
18084TIP3    H175667   5.325   5.463   1.804  0.6851 -1.4725 -0.5671
18084TIP3    H275668   5.218   5.356   1.799 -0.6592 -0.4875  4.2469
18085TIP3   OH275669   3.061   0.980   4.060 -0.6050 -0.2477  0.3597
18085TIP3    H175670   3.104   0.897   4.079  2.4111  1.1955  0.0555
18085TIP3    H275671   3.091   1.039   4.129 -0.9762  1.1871 -0.6848
18086TIP3   OH275672   1.242   2.136  15.989 -0.6905  0.1943  0.0674
18086TIP3    H175673   1.245   2.182  15.905 -2.4753  1.9424  0.9153
18086TIP3    H275674   1.296   2.059  15.976 -0.4563  0.7458 -2.5069
18087TIP3   OH275675   1.158   4.693  14.953  0.1296  0.0029 -0.3257
18087TIP3    H175676   1.066   4.686  14.929  0.1345 -0.6417 -0.1634
18087TIP3    H275677   1.158   4.719  15.045  0.0918 -1.8458  0.2256
18088TIP3   OH275678   0.251   3.380   4.565 -0.2794  0.1006  0.1312
18088TIP3    H175679   0.271   3.469   4.537 -0.4083 -0.3944 -1.5611
18088TIP3    H275680   0.176   3.354   4.512 -0.6533 -0.7879  1.0732
18089TIP3   OH275681   4.895   4.031  13.070  0.2970 -0.0467  0.1750
18089TIP3    H175682   4.865   3.947  13.036 -0.3197  0.2068  0.0851
18089TIP3    H275683   4.887   4.023  13.165 -0.2935  0.1002  0.1439
18090TIP3   OH275684   3.541   4.204  16.518  0.0483 -0.0070 -0.2791
18090TIP3    H175685   3.613   4.266  16.518 -0.4450  0.5862  1.1985
18090TIP3    H275686   3.570   4.133  16.461  0.3234  1.8981 -2.5734
18091TIP3   OH275687   1.303   3.086  13.311  0.3564 -0.0274  0.1443
18091TIP3    H175688   1.249   3.163  13.328 -0.6706 -0.8792  0.7658
18091TIP3    H275689   1.244   3.023  13.270  0.8779 -0.9490  0.7782
18092TIP3   OH275690   4.892   5.801   4.720 -0.3258 -0.1759  0.0240
18092TIP3    H175691   4.882   5.876   4.779  0.1132 -0.8028  0.9084
18092TIP3    H275692   4.962   5.749   4.759 -0.5727 -1.0079 -0.6255
18093TIP3   OH275693   3.705   0.018  15.290 -0.1679 -0.0945 -0.3618
18093TIP3    H175694   3.771  -0.004  15.224 -0.4718  0.7029 -0.9438
18093TIP3    H275695   3.655   0.090  15.251 -1.6793 -0.9863 -0.1217
18094TIP3   OH275696   1.313   2.143  16.586 -0.3473 -1.0212  0.3491
18094TIP3    H175697   1.338   2.233  16.564 -1.4053 -1.1739 -1.5472
18094TIP3    H275698   1.224   2.152  16.622  0.5906 -1.0139  2.7665
18095TIP3   OH275699   5.308   2.896   0.510  0.2425  0.1444 -0.0055
18095TIP3    H175700   5.253   2.965   0.548  0.7357  0.3640  0.3096
18095TIP3    H275701   5.382   2.943   0.472  1.5341 -0.3640  1.8514
18096TIP3   OH275702   1.902   5.960   2.821  0.0243  0.0188  0.2857
18096TIP3    H175703   1.850   5.889   2.782 -2.0515  1.5814  0.1203
18096TIP3    H275704   1.939   6.007   2.746  0.2201 -0.0231  0.3548
18097TIP3   OH275705   0.337   4.086  15.329 -0.3744 -0.0959  0.7760
18097TIP3    H175706   0.358   4.035  15.407  0.3714  1.1767  1.4251
18097TIP3    H275707   0.377   4.038  15.257 -0.4080 -0.8656  1.2703
18098TIP3   OH275708   1.524   1.255   6.128 -0.4419 -0.8212  0.3316
18098TIP3    H175709   1.586   1.326   6.145 -0.0248 -0.8440 -1.0436
18098TIP3    H275710   1.439   1.300   6.118  0.1393 -0.2800 -2.5079
18099TIP3   OH275711   6.207   1.783  10.396  0.3719  0.5154 -0.2315
18099TIP3    H175712   6.211   1.758  10.303 -1.7251  1.5256 -0.6118
18099TIP3    H275713   6.229   1.877  10.396  0.0372  0.5909  0.2610
18100TIP3   OH275714   0.924   0.898   2.401  0.5858 -0.3183 -0.0195
18100TIP3    H175715   0.886   0.985   2.389  1.2729 -0.1598 -1.1132
18100TIP3    H275716   0.849   0.842   2.422  0.2476  0.6876  1.5755
18101TIP3   OH275717   6.683   1.107  13.034 -0.4126 -0.4215 -0.1297
18101TIP3    H175718   6.772   1.110  13.068 -0.4677  3.3024 -0.1641
18101TIP3    H275719   6.644   1.031  13.078  2.8789 -2.4898 -0.5527
18102TIP3   OH275720   5.300   1.476  13.600 -0.1173  0.1970  0.1444
18102TIP3    H175721   5.253   1.552  13.567 -1.7977 -0.7278  0.3624
18102TIP3    H275722   5.257   1.455  13.683  1.2342 -0.1569  0.7683
18103TIP3   OH275723   1.639   2.916   2.361 -0.1723  0.2543 -0.6368
18103TIP3    H175724   1.580   2.940   2.432  0.1705 -1.0775  0.1150
18103TIP3    H275725   1.582   2.889   2.289 -0.5101  1.2789 -0.7568
18104TIP3   OH275726   0.407   1.212   0.300 -0.1715  0.2477  0.3029
18104TIP3    H175727   0.334   1.269   0.276 -0.9778 -0.6640  0.5865
18104TIP3    H275728   0.435   1.245   0.385 -0.6636  0.1939  0.4870
18105TIP3   OH275729   0.950   5.953   2.688 -0.1842  0.1989 -0.3585
18105TIP3    H175730   0.879   6.018   2.688 -0.8133 -0.4789  0.3139
18105TIP3    H275731   0.984   5.956   2.598 -0.2088  1.4520 -0.3307
18106TIP3   OH275732   0.666   2.790   0.556 -0.5488 -0.5310 -0.1183
18106TIP3    H175733   0.730   2.724   0.528 -0.0724 -0.2406  0.2863
18106TIP3    H275734   0.678   2.862   0.494 -1.4549 -1.0482 -0.9041
18107TIP3   OH275735   5.170   3.693  12.188  0.2122  0.0635 -0.1073
18107TIP3    H175736   5.235   3.755  12.219 -0.1740 -0.3854  1.6513
18107TIP3    H275737   5.140   3.648  12.267  0.8776 -2.7547 -1.4137
18108TIP3   OH275738   3.372   5.415   1.315  0.1747 -0.0880  0.7741
18108TIP3    H175739   3.422   5.336   1.298  0.4889  0.0292  1.1587
18108TIP3    H275740   3.283   5.384   1.331  0.0881 -0.2791 -0.0804
18109TIP3   OH275741   1.448   3.884  11.940  0.0998  0.1748  0.3860
18109TIP3    H175742   1.536   3.918  11.960 -0.0217  0.7013  0.0373
18109TIP3    H275743   1.464   3.804  11.891  0.4207 -1.3766  2.8934
18110TIP3   OH275744   6.711   6.569  15.895  0.1312  0.1038 -0.6032
18110TIP3    H175745   6.781   6.597  15.836 -1.4135  1.0568 -2.0297
18110TIP3    H275746   6.753   6.506  15.953  2.1812  0.6883 -1.3964
18111TIP3   OH275747   0.267   0.423  11.915 -0.6081 -0.2554 -0.2174
18111TIP3    H175748   0.339   0.426  11.978 -1.3908 -0.7474  0.7067
18111TIP3    H275749   0.300   0.369  11.843 -0.7317 -2.0581  1.0584
18112TIP3   OH275750   0.089   1.241  13.339  0.1123 -0.3222  0.6433
18112TIP3    H175751   0.134   1.187  13.275  2.6329  2.4418 -0.0588
18112TIP3    H275752   0.025   1.291  13.288 -1.6103 -1.9610  1.1545
18113TIP3   OH275753   5.860   4.585  16.721 -0.2595  0.4383  0.1090
18113TIP3    H175754   5.856   4.591  16.626 -4.1539 -2.1366  0.0197
18113TIP3    H275755   5.810   4.660  16.752  1.5607  1.6492  0.1962
18114TIP3   OH275756   3.640   0.939  12.895 -0.2204  0.2269 -0.1130
18114TIP3    H175757   3.704   0.926  12.825 -0.5273 -3.3056  0.1402
18114TIP3    H275758   3.556   0.938  12.850 -0.2948  0.4382  0.0247
18115TIP3   OH275759   0.413   5.040  14.622  0.1738 -0.1244 -0.0789
18115TIP3    H175760   0.368   4.986  14.687  0.0391 -0.7620 -0.7009
18115TIP3    H275761   0.503   5.009  14.623  0.0901 -0.3740 -0.4576
18116TIP3   OH275762   1.349   2.022   2.822 -0.0024  0.1148  0.0349
18116TIP3    H175763   1.376   2.015   2.913 -2.3710  2.1806  0.9617
18116TIP3    H275764   1.297   1.944   2.805  0.5669 -0.3443  0.3940
18117TIP3   OH275765   3.865   2.519  14.775 -0.1165 -0.8886  0.2322
18117TIP3    H175766   3.960   2.520  14.790 -0.1655 -1.6357  0.6285
18117TIP3    H275767   3.827   2.528  14.862 -0.4116 -1.2666  0.1398
18118TIP3   OH275768   5.476   5.966  15.432 -0.4417 -0.0392 -0.4647
18118TIP3    H175769   5.403   5.936  15.379 -0.2614 -0.7955 -0.2948
18118TIP3    H275770   5.528   6.021  15.373  0.0336 -1.2933 -1.2378
18119TIP3   OH275771   5.352   1.847   4.499 -0.6198 -0.3712 -0.1585
18119TIP3    H175772   5.417   1.779   4.519 -0.8149 -0.4981  0.0460
18119TIP3    H275773   5.283   1.834   4.565 -1.8200 -1.5281 -1.5982
18120TIP3   OH275774   5.326   1.423   2.472  0.8703  0.0176  0.1842
18120TIP3    H175775   5.309   1.468   2.389  1.5413 -0.2543 -0.1070
18120TIP3    H275776   5.245   1.432   2.521  1.1736  2.0453  0.3596
18121TIP3   OH275777   2.068   0.065   3.041  0.4599 -0.3541 -0.4413
18121TIP3    H175778   1.977   0.079   3.014  0.2014  0.3508  0.7440
18121TIP3    H275779   2.082  -0.030   3.031  0.5150 -0.0858 -3.3668
18122TIP3   OH275780   2.889   1.659  12.482 -0.3129  0.7810  0.6370
18122TIP3    H175781   2.972   1.611  12.485 -0.7039 -0.0903 -1.5325
18122TIP3    H275782   2.828   1.598  12.440 -1.4764  2.2385  0.1837
18123TIP3   OH275783   3.551   1.731   1.515 -0.2996  0.7495 -0.2180
18123TIP3    H175784   3.617   1.799   1.533 -0.3975  0.6390  0.5378
18123TIP3    H275785   3.594   1.649   1.536 -0.4777  0.6358 -0.2959
18124TIP3   OH275786   5.428   5.361  13.786 -0.0497  0.2548  0.0822
18124TIP3    H175787   5.467   5.304  13.852 -0.0162  1.3993  1.0655
18124TIP3    H275788   5.393   5.435  13.835 -1.8075  0.1660 -0.9691
18125TIP3   OH275789   2.338   4.545   0.776 -0.4470  0.0408 -0.2335
18125TIP3    H175790   2.413   4.494   0.805 -1.9028 -2.3399 -0.4998
18125TIP3    H275791   2.310   4.504   0.695 -0.9144  2.0749 -1.1487
18126TIP3   OH275792   1.073   2.105  16.311 -0.1028 -0.4215  0.1337
18126TIP3    H175793   1.017   2.171  16.270 -1.1827 -1.9960 -0.9969
18126TIP3    H275794   1.145   2.093  16.250  1.1920  1.1602  1.3021
18127TIP3   OH275795   5.620   6.033   3.997 -0.7527  0.1142 -0.0583
18127TIP3    H175796   5.595   6.126   3.991 -0.7321 -0.0227 -4.0574
18127TIP3    H275797   5.705   6.034   4.040 -1.1620  1.8849  0.7733
18128TIP3   OH275798   1.333   1.041  14.831  0.1217  0.0637 -0.3295
18128TIP3    H175799   1.399   1.015  14.768  1.2074  0.8999  0.4317
18128TIP3    H275800   1.316   1.133  14.811  0.2056  0.2301  0.3502
18129TIP3   OH275801   2.774   3.314  16.579 -0.6713  0.3932 -0.8020
18129TIP3    H175802   2.776   3.389  16.519  1.4239  0.1975 -1.0181
18129TIP3    H275803   2.753   3.353  16.664 -0.3323  1.1323 -1.0478
18130TIP3   OH275804   1.103   6.288  12.201  0.7463 -0.1268  0.0278
18130TIP3    H175805   1.018   6.277  12.158  0.9057  1.2331 -0.6383
18130TIP3    H275806   1.096   6.371  12.247  1.9923  0.3830 -0.6871
18131TIP3   OH275807   3.386   0.491   0.299  0.6280 -0.3922 -0.1047
18131TIP3    H175808   3.368   0.416   0.356  0.0419  0.4422  0.8241
18131TIP3    H275809   3.303   0.508   0.256  0.3555  0.6859  0.8429
18132TIP3   OH275810   4.566   4.881   6.092 -0.1211 -0.3959  0.6190
18132TIP3    H175811   4.653   4.864   6.130 -0.5613 -2.1209  0.9173
18132TIP3    H275812   4.516   4.922   6.162  0.3260  0.2162  0.5809
18133TIP3   OH275813   3.182   3.790  15.930 -0.4820  0.0423 -0.3407
18133TIP3    H175814   3.089   3.812  15.924 -0.0381  1.4165 -3.6764
18133TIP3    H275815   3.226   3.867  15.894  1.7699 -1.8288 -1.6849
18134TIP3   OH275816   0.480   2.283   0.014 -0.3591  0.1709  0.2627
18134TIP3    H175817   0.528   2.221   0.069  1.1289  0.3649 -0.7701
18134TIP3    H275818   0.483   2.366   0.062  3.1427  0.9909 -1.1798
18135TIP3   OH275819   0.614   5.872  10.474  0.3100 -0.2314  0.0857
18135TIP3    H175820   0.699   5.916  10.481  0.0001  0.2398  1.0151
18135TIP3    H275821   0.627   5.787  10.517 -0.0530  0.3979  1.4794
18136TIP3   OH275822   4.662   4.090  15.620 -0.1783 -0.1371 -0.3365
18136TIP3    H175823   4.591   4.130  15.570 -0.0939 -0.3714 -0.6470
18136TIP3    H275824   4.621   4.018  15.667 -0.1016 -0.4269 -0.7098
18137TIP3   OH275825   3.723   2.022   0.939  0.7854 -0.2155 -0.6088
18137TIP3    H175826   3.750   2.041   1.029 -0.7640 -1.7997  0.2229
18137TIP3    H275827   3.766   1.939   0.918  0.3437 -0.3530 -0.9678
18138TIP3   OH275828   1.684   3.320  13.364  0.5639 -0.2685 -0.2016
18138TIP3    H175829   1.641   3.266  13.298  0.3964  0.3595 -0.6091
18138TIP3    H275830   1.743   3.377  13.315 -0.6147  1.1988  0.0481
18139TIP3   OH275831   5.057   1.641   2.475  0.4168  0.0980  0.6307
18139TIP3    H175832   5.120   1.711   2.489  0.9430 -0.6385  1.9856
18139TIP3    H275833   4.976   1.673   2.516  0.4478  0.2154  0.6004
18140TIP3   OH275834   2.432   5.084   1.665 -0.1439 -0.2704  0.1348
18140TIP3    H175835   2.349   5.130   1.651 -0.4472 -1.1933 -1.1707
18140TIP3    H275836   2.407   4.993   1.680  0.6767 -0.6613 -0.8729
18141TIP3   OH275837   5.729   5.916   3.544  0.1973  0.7146  0.5921
18141TIP3    H175838   5.775   5.977   3.487  0.1069  2.4197  2.2730
18141TIP3    H275839   5.636   5.932   3.527  0.1832  0.5680  0.5329
18142TIP3   OH275840   2.696   2.262   2.377  0.7410  0.1404 -0.0500
18142TIP3    H175841   2.773   2.281   2.430  0.8657  0.3690 -0.3134
18142TIP3    H275842   2.641   2.207   2.433  1.4010 -0.5868 -0.1189
18143TIP3   OH275843   4.414   2.215   3.099 -0.2540 -0.0201 -0.1497
18143TIP3    H175844   4.334   2.209   3.152  1.1676  0.9610  2.1979
18143TIP3    H275845   4.402   2.149   3.031 -2.0838 -1.4768  1.4991
18144TIP3   OH275846   4.448   5.645   5.123 -0.0800  0.5276  0.8016
18144TIP3    H175847   4.449   5.576   5.056 -0.3424  0.0771  1.2542
18144TIP3    H275848   4.533   5.688   5.115 -0.4518  1.0476 -0.4124
18145TIP3   OH275849   0.613   5.198  15.811 -0.1376 -0.8093  0.7950
18145TIP3    H175850   0.618   5.275  15.867 -1.2986  0.1343 -0.3513
18145TIP3    H275851   0.522   5.168  15.818  0.2572 -1.9656  1.0862
18146TIP3   OH275852   4.650   0.895  16.326  0.3521  0.2788 -0.1155
18146TIP3    H175853   4.675   0.987  16.339  1.3452  0.0664 -0.4977
18146TIP3    H275854   4.600   0.895  16.245  1.9768  0.2099 -1.1471
18147TIP3   OH275855   0.500   3.427   3.791  0.5118  0.5486 -0.3572
18147TIP3    H175856   0.453   3.510   3.784 -0.8680 -0.2548 -0.8970
18147TIP3    H275857   0.550   3.421   3.710  1.1055  1.1234 -0.0465
18148TIP3   OH275858   2.196   3.677   3.114 -0.8084  0.4774 -0.1179
18148TIP3    H175859   2.188   3.767   3.146  0.0766  1.3087 -2.1108
18148TIP3    H275860   2.120   3.631   3.150 -1.3740  2.0780  0.7651
18149TIP3   OH275861   2.698   3.172   3.006  0.6510 -0.5137  0.1205
18149TIP3    H175862   2.639   3.165   3.081  0.3340  0.4481 -0.0309
18149TIP3    H275863   2.685   3.090   2.958 -1.1936  0.0281 -0.3554
18150TIP3   OH275864   5.942   2.956   6.036  0.3108  0.4790 -0.3916
18150TIP3    H175865   5.987   2.876   6.062  0.2827  0.7088  0.3894
18150TIP3    H275866   5.947   3.013   6.113 -1.0155  0.6283 -0.3898
18151TIP3   OH275867   3.896   6.304  15.328  0.4783 -0.3663  0.3143
18151TIP3    H175868   3.829   6.357  15.285  0.8131  1.1416  1.6121
18151TIP3    H275869   3.945   6.265  15.256 -1.8873 -1.6594 -0.6727
18152TIP3   OH275870   6.685   5.292  16.124 -0.2071 -0.4261 -0.2718
18152TIP3    H175871   6.623   5.219  16.128  0.3660 -0.8332  2.1876
18152TIP3    H275872   6.644   5.361  16.175  0.0282  0.3487 -1.1370
18153TIP3   OH275873   4.646   3.209   3.834  0.6371 -0.1049  0.2049
18153TIP3    H175874   4.588   3.148   3.788 -1.9680  1.2884  1.5133
18153TIP3    H275875   4.663   3.167   3.918  1.7613 -0.6438 -0.2924
18154TIP3   OH275876   1.415   1.010  12.143  0.4794 -0.3469 -0.6905
18154TIP3    H175877   1.330   1.031  12.183  0.7217 -1.0413  0.1950
18154TIP3    H275878   1.477   1.070  12.185  0.7797 -1.2548  0.1677
18155TIP3   OH275879   4.986   0.749  16.555  0.2662  0.3244  0.3316
18155TIP3    H175880   5.022   0.709  16.476 -0.9805 -1.8140  0.8256
18155TIP3    H275881   5.063   0.764  16.610  0.8911 -0.2128 -0.3760
18156TIP3   OH275882   5.718   1.040  12.717 -0.1798 -0.0592  0.1233
18156TIP3    H175883   5.676   1.120  12.750 -0.0444  0.5164 -1.0766
18156TIP3    H275884   5.652   1.001  12.660  0.3119 -0.0074 -0.4852
18157TIP3   OH275885   1.177   1.779  15.893 -0.4011 -0.3113  0.6264
18157TIP3    H175886   1.135   1.750  15.974 -2.3191  0.9191  0.0888
18157TIP3    H275887   1.143   1.868  15.879  1.1909  0.1137 -0.6510
18158TIP3   OH275888   3.712   3.239   1.904  0.2002  0.0208 -0.4260
18158TIP3    H175889   3.672   3.291   1.974  1.0910  0.5259 -0.2782
18158TIP3    H275890   3.640   3.219   1.845 -1.1143 -2.5619  1.8826
18159TIP3   OH275891   4.912   5.026   6.342  0.1770  0.7295  0.7942
18159TIP3    H175892   4.923   4.994   6.432  0.3549  1.9063  1.2032
18159TIP3    H275893   4.968   5.104   6.338  0.1956  0.6534 -0.3521
18160TIP3   OH275894   4.498   2.696   0.646 -0.0465  0.1666 -0.6997
18160TIP3    H175895   4.570   2.634   0.659 -0.6257 -0.5229 -0.7918
18160TIP3    H275896   4.437   2.650   0.589  0.1129  1.2962 -1.7968
18161TIP3   OH275897   2.705   0.988  11.085  0.5609 -0.7084  0.5432
18161TIP3    H175898   2.670   1.075  11.066 -0.1240 -1.0937  0.0060
18161TIP3    H275899   2.627   0.934  11.103  0.9721 -1.2358  0.7693
18162TIP3   OH275900   6.242   3.852   2.351  0.1130  0.0235 -0.3780
18162TIP3    H175901   6.281   3.772   2.317  1.8869  0.3407  0.8723
18162TIP3    H275902   6.254   3.846   2.446 -1.3655  0.9343 -0.1122
18163TIP3   OH275903   4.543   3.299   4.664  0.1567  0.2241  0.1240
18163TIP3    H175904   4.502   3.322   4.580 -0.3559  0.3400  0.4065
18163TIP3    H275905   4.553   3.203   4.660  0.5091  0.2732 -0.2371
18164TIP3   OH275906   5.723   2.889  10.520 -0.1758 -0.5325  0.3347
18164TIP3    H175907   5.722   2.805  10.474 -2.5479 -1.2193  1.5551
18164TIP3    H275908   5.813   2.900  10.549  0.7643 -1.3535 -2.1648
18165TIP3   OH275909   6.692   2.198   3.256  0.1182  0.0273 -0.2091
18165TIP3    H175910   6.749   2.264   3.216 -0.5882  2.1413  2.1245
18165TIP3    H275911   6.730   2.183   3.342  0.0456 -2.4003 -0.5677
18166TIP3   OH275912   3.931   1.378  16.154 -0.1144 -0.4200  0.0019
18166TIP3    H175913   4.006   1.320  16.167  1.8268  1.4865 -2.3355
18166TIP3    H275914   3.939   1.443  16.224 -1.5447 -2.1387  1.8136
18167TIP3   OH275915   4.505   5.810   3.821 -0.1103  0.2679 -0.4009
18167TIP3    H175916   4.472   5.743   3.880  1.7439  2.0606  2.8535
18167TIP3    H275917   4.436   5.822   3.756 -1.9194 -2.2744  0.9810
18168TIP3   OH275918   0.104   2.591   4.215  0.2915 -0.1500  0.1380
18168TIP3    H175919   0.080   2.666   4.160 -0.8085 -0.1032  0.6598
18168TIP3    H275920   0.072   2.515   4.166 -1.5188 -0.0520  1.0978
18169TIP3   OH275921   1.958   6.041   1.240 -0.4704  0.4733  0.3128
18169TIP3    H175922   2.051   6.041   1.216 -0.4094 -1.2600  0.4433
18169TIP3    H275923   1.947   6.118   1.295  0.5880  1.4606 -0.8396
18170TIP3   OH275924   0.777   3.082  12.538 -0.1175  0.1778 -0.5010
18170TIP3    H175925   0.800   3.115  12.625  1.4796 -1.0386 -0.4444
18170TIP3    H275926   0.832   3.132  12.477 -1.6186  1.4037 -0.8731
18171TIP3   OH275927   1.517   4.249  13.739  0.4797 -0.2708 -0.1885
18171TIP3    H175928   1.467   4.303  13.801  1.5242  1.2465 -0.6270
18171TIP3    H275929   1.450   4.211  13.682 -0.5601 -2.2126  2.2092
18172TIP3   OH275930   2.054   3.391   3.393 -0.3434 -0.1426 -0.4848
18172TIP3    H175931   1.987   3.323   3.389  1.1075 -1.6151 -0.0398
18172TIP3    H275932   2.121   3.356   3.451  0.0598  2.0064  0.4070
18173TIP3   OH275933   3.419   4.545  14.057  0.1327  0.2855 -0.4472
18173TIP3    H175934   3.393   4.463  14.015 -0.8575  0.5287 -0.3206
18173TIP3    H275935   3.495   4.574  14.008 -0.3002 -0.0419 -1.3214
18174TIP3   OH275936   2.537   6.002  11.646 -0.0960  0.3942 -0.0223
18174TIP3    H175937   2.506   6.086  11.680 -0.9362 -0.9058  2.6049
18174TIP3    H275938   2.602   5.973  11.711 -0.0055 -1.0972 -0.7619
18175TIP3   OH275939   1.422   3.210   5.856 -0.6694 -0.0077 -0.4537
18175TIP3    H175940   1.493   3.193   5.918 -1.8465 -0.2921  0.8534
18175TIP3    H275941   1.408   3.127   5.812 -2.4828 -0.9365  1.7599
18176TIP3   OH275942   0.379   3.627  10.626 -0.3648 -0.0354  0.1373
18176TIP3    H175943   0.435   3.564  10.581 -0.5164 -1.2362  1.5909
18176TIP3    H275944   0.315   3.573  10.673 -1.4687  1.2588  0.1409
18177TIP3   OH275945   1.920   1.696   2.021  0.1102  0.0351  0.1659
18177TIP3    H175946   1.889   1.753   2.091  1.1691 -0.7622  1.3250
18177TIP3    H275947   2.016   1.700   2.028  0.2217  0.0087 -1.2863
18178TIP3   OH275948   0.275   2.577   3.735 -0.6496 -0.2551 -0.0841
18178TIP3    H175949   0.209   2.635   3.773 -2.6438 -0.5102 -2.9675
18178TIP3    H275950   0.317   2.630   3.667  0.2074 -0.9788 -0.1305
18179TIP3   OH275951   4.002   4.096  14.674  0.3195 -0.4984  0.0141
18179TIP3    H175952   4.015   4.174  14.728  1.8880 -0.7544  0.0045
18179TIP3    H275953   3.920   4.058  14.707 -0.0702  0.7581  0.4952
18180TIP3   OH275954   0.881   4.986  15.674  0.5338  0.0333  0.8126
18180TIP3    H175955   0.967   5.014  15.705 -0.4824  2.8748  1.2493
18180TIP3    H275956   0.855   5.054  15.612 -0.3647 -2.0701 -1.1929
18181TIP3   OH275957   0.331   2.414  13.933 -0.3825 -0.4836 -0.0638
18181TIP3    H175958   0.262   2.348  13.935 -1.1282  0.3219  1.3552
18181TIP3    H275959   0.289   2.491  13.894  0.0463 -0.3576 -0.2844
18182TIP3   OH275960   2.912   6.186   3.540 -0.2906  0.2388  0.2912
18182TIP3    H175961   3.000   6.164   3.509 -0.3831 -0.1929  0.3333
18182TIP3    H275962   2.856   6.117   3.504 -0.7383  0.9575 -0.4051
18183TIP3   OH275963   1.180   6.581  10.423 -0.0908 -0.2464  0.3585
18183TIP3    H175964   1.202   6.490  10.444 -0.5652 -0.0923  1.5534
18183TIP3    H275965   1.097   6.575  10.376 -0.2075 -0.4201  0.5854
18184TIP3   OH275966   5.897   6.512  11.682 -0.1530 -0.3677 -0.3242
18184TIP3    H175967   5.922   6.580  11.620 -0.2652  0.1503  0.1898
18184TIP3    H275968   5.912   6.430  11.636 -0.2014  0.0124 -1.0184
18185TIP3   OH275969   5.771   5.832   5.051 -0.2695 -0.1817  0.3323
18185TIP3    H175970   5.854   5.825   5.097  0.4877 -0.0524 -0.9749
18185TIP3    H275971   5.705   5.825   5.119  0.7610 -2.1092  1.1856
18186TIP3   OH275972   5.760   4.479  17.135  0.8249  0.3006 -0.5402
18186TIP3    H175973   5.730   4.551  17.079 -0.8760  0.2861  0.3163
18186TIP3    H275974   5.811   4.523  17.204  2.3011  0.3830 -1.6447
18187TIP3   OH275975   1.639   5.756   2.762  0.5846 -0.0720 -0.1047
18187TIP3    H175976   1.564   5.700   2.743  1.2608 -0.9937 -0.1008
18187TIP3    H275977   1.636   5.768   2.857  0.5286 -0.2326 -0.0856
18188TIP3   OH275978   6.654   1.575   4.846  0.4209 -0.5888 -0.1380
18188TIP3    H175979   6.703   1.494   4.859  2.4514  0.7147  0.6613
18188TIP3    H275980   6.659   1.620   4.930 -1.2056  0.1131 -0.3856
18189TIP3   OH275981   2.173   3.188  11.291  0.2745 -0.2837  0.0967
18189TIP3    H175982   2.123   3.145  11.221 -0.2953  0.1674  0.2170
18189TIP3    H275983   2.261   3.152  11.284  0.4633  0.4458 -1.4553
18190TIP3   OH275984   5.194   2.608  16.318  0.1302  0.1942 -0.4638
18190TIP3    H175985   5.151   2.674  16.264  0.8827  0.1164 -1.1689
18190TIP3    H275986   5.274   2.587  16.270  0.1644 -0.8267  0.0370
18191TIP3   OH275987   0.872   2.017   1.240 -0.3355 -0.6173 -0.0768
18191TIP3    H175988   0.928   2.071   1.185  1.1532 -3.0379 -0.9916
18191TIP3    H275989   0.787   2.017   1.195 -0.1938  0.4606 -0.3616
18192TIP3   OH275990   6.223   3.399  14.838 -0.8958 -0.2578  0.1887
18192TIP3    H175991   6.230   3.494  14.846 -3.2275  0.0799 -1.5072
18192TIP3    H275992   6.271   3.378  14.758  1.2847 -0.7668  1.5941
18193TIP3   OH275993   3.768   6.549  11.829 -0.2140  0.2734  0.1950
18193TIP3    H175994   3.793   6.461  11.857  0.0502  0.4470  0.5020
18193TIP3    H275995   3.841   6.579  11.776 -0.3177  0.2970  0.0640
18194TIP3   OH275996   5.039   2.032  12.232 -0.3304 -0.4599 -0.4945
18194TIP3    H175997   5.124   2.064  12.261 -1.2046  0.1948  1.4395
18194TIP3    H275998   5.041   1.938  12.250  0.0646 -0.4850 -0.6686
18195TIP3   OH275999   2.642   6.387  13.989  0.1884 -0.2245  0.3628
18195TIP3    H176000   2.648   6.475  14.026 -2.9130  0.3650 -0.3900
18195TIP3    H276001   2.678   6.396  13.901 -1.7301  0.7484 -0.3588
18196TIP3   OH276002   6.185   6.292   0.094 -0.4752 -0.6451 -0.5928
18196TIP3    H176003   6.168   6.378   0.133 -0.8537 -0.3425 -1.4137
18196TIP3    H276004   6.099   6.250   0.092 -0.3264 -0.9558 -0.3972
18197TIP3   OH276005   6.592   3.102   3.715  0.4284  0.1619 -0.1896
18197TIP3    H176006   6.595   3.121   3.622 -1.5317 -1.3319 -0.5770
18197TIP3    H276007   6.674   3.055   3.732  0.1387 -0.8303 -1.4537
18198TIP3   OH276008   1.308   3.012   0.087 -0.4170 -0.4608 -0.6652
18198TIP3    H176009   1.247   3.001   0.160 -0.6793 -3.1439 -1.2429
18198TIP3    H276010   1.371   2.940   0.098  1.3526  0.9281 -1.3637
18199TIP3   OH276011   5.375   2.189  15.954 -0.7879 -0.0224 -0.0741
18199TIP3    H176012   5.320   2.246  16.008 -0.6873  0.0578 -0.0538
18199TIP3    H276013   5.350   2.209  15.864 -0.6808  0.1238 -0.0704
18200TIP3   OH276014   2.989   2.296  14.244 -0.4443  0.1534 -0.1391
18200TIP3    H176015   3.032   2.375  14.210  0.0910  0.2061  0.6279
18200TIP3    H276016   3.033   2.223  14.200  0.3150  0.2149  0.4958
18201TIP3   OH276017   4.942   2.741  15.455  0.0141  0.3292 -0.6815
18201TIP3    H176018   5.006   2.674  15.478  0.0686  0.1936 -1.2221
18201TIP3    H276019   4.879   2.740  15.528 -0.9659 -1.5387 -1.5264
18202TIP3   OH276020   6.399   1.840  15.064 -0.1147 -0.0028 -0.3351
18202TIP3    H176021   6.486   1.823  15.028 -1.3086 -1.3133 -2.6991
18202TIP3    H276022   6.368   1.754  15.094 -1.0436  0.2488 -0.5516
18203TIP3   OH276023   1.387   1.595  16.771  0.2504  0.0482 -0.4915
18203TIP3    H176024   1.430   1.680  16.777 -0.9730  0.6980 -0.7288
18203TIP3    H276025   1.384   1.563  16.861  1.6004 -0.2025 -0.5270
18204TIP3   OH276026   5.054   6.724  11.998  0.0957 -0.6152  0.1904
18204TIP3    H176027   5.112   6.795  12.025  1.5293 -0.9197 -1.9962
18204TIP3    H276028   4.971   6.743  12.041  0.4224  2.4655 -0.4515
18205TIP3   OH276029   5.980   4.110  13.512 -0.4658 -0.5137 -0.0056
18205TIP3    H176030   5.922   4.046  13.552 -1.2701 -0.2889 -0.7954
18205TIP3    H276031   5.999   4.173  13.582  0.1047 -1.4522  0.6878
18206TIP3   OH276032   4.560   1.129  14.505  0.2059  0.2006  0.0010
18206TIP3    H176033   4.628   1.063  14.495  1.0981  1.2222 -0.7295
18206TIP3    H276034   4.553   1.171  14.419 -0.8239  0.6093  0.2652
18207TIP3   OH276035   5.938   3.466   1.433  0.1605  0.1574 -0.8212
18207TIP3    H176036   5.867   3.465   1.368 -0.8427 -1.4982  0.2595
18207TIP3    H276037   5.991   3.390   1.412  1.3660  1.1098 -1.3099
18208TIP3   OH276038   6.293   0.249  15.772  0.0256  0.0563 -0.0761
18208TIP3    H176039   6.258   0.160  15.783 -0.4938  0.4732  1.9366
18208TIP3    H276040   6.275   0.270  15.681 -1.2638 -1.3239 -0.1704
18209TIP3   OH276041   5.113   3.126   0.921 -0.1147  0.1180 -0.1051
18209TIP3    H176042   5.180   3.071   0.961 -2.4759 -2.8319 -0.0549
18209TIP3    H276043   5.117   3.104   0.828 -1.4039 -0.5360 -0.0136
18210TIP3   OH276044   1.391   5.092  16.720  0.1018 -0.0241  0.0787
18210TIP3    H176045   1.381   5.007  16.677  0.2529 -1.6862  3.1865
18210TIP3    H276046   1.330   5.090  16.793  2.0908  1.3897  1.8690
18211TIP3   OH276047   3.678   3.916  14.146  0.4266 -0.1382 -0.4652
18211TIP3    H176048   3.758   3.912  14.199  0.7325 -0.7762 -0.9539
18211TIP3    H276049   3.644   4.004  14.159  2.6131  1.0257 -2.2184
18212TIP3   OH276050   2.850   2.683   2.466 -0.3451  0.3819  0.2105
18212TIP3    H176051   2.931   2.733   2.474  0.1375 -0.2258 -0.7291
18212TIP3    H276052   2.872   2.611   2.406 -1.6704  0.4069 -0.3275
18213TIP3   OH276053   1.877   4.691   0.996 -0.6417 -0.1281  0.8336
18213TIP3    H176054   1.862   4.619   0.934  0.1991 -0.0048  0.4757
18213TIP3    H276055   1.815   4.676   1.066  0.0641 -1.6645  1.1544
18214TIP3   OH276056   5.501   0.433   6.572  0.1967  0.1893  0.4800
18214TIP3    H176057   5.411   0.426   6.605 -0.1399 -2.3467 -0.8054
18214TIP3    H276058   5.502   0.377   6.494  3.4359 -1.5831  1.6996
18215TIP3   OH276059   6.151   6.339   1.895  0.9365  0.6824 -0.0933
18215TIP3    H176060   6.103   6.418   1.872  1.1048  1.2347  1.3811
18215TIP3    H276061   6.130   6.277   1.825 -1.8715  0.9334  0.4493
18216TIP3   OH276062   6.557   4.125  14.381 -0.4178 -0.1552 -0.2092
18216TIP3    H176063   6.567   4.064  14.308  1.1115  0.4332 -0.5177
18216TIP3    H276064   6.522   4.072  14.452 -0.3695 -1.1029 -0.8785
18217TIP3   OH276065   2.470   6.089   0.114 -0.0496 -0.2715 -0.2159
18217TIP3    H176066   2.397   6.048   0.067  0.2723 -0.3683 -0.6398
18217TIP3    H276067   2.531   6.017   0.132  0.7944  0.1105 -1.4932
18218TIP3   OH276068   0.109   1.458   4.585 -0.0187  0.4380  0.5641
18218TIP3    H176069   0.018   1.475   4.560  0.8385  0.6877 -2.5090
18218TIP3    H276070   0.124   1.518   4.659 -1.1610  3.2889 -1.4138
18219TIP3   OH276071   6.074   5.952  11.380  0.4757  0.8509 -0.4257
18219TIP3    H176072   6.107   6.019  11.321  0.0673  1.0957 -0.3796
18219TIP3    H276073   5.980   5.949  11.363  0.5923 -0.1921 -0.9105
18220TIP3   OH276074   4.131   1.983  12.391  0.5165 -0.2637  0.3599
18220TIP3    H176075   4.162   2.005  12.479  2.1810 -1.8112  0.1686
18220TIP3    H276076   4.174   1.901  12.370  0.2467  0.1769 -1.9869
18221TIP3   OH276077   6.241   2.826  11.339 -0.4159  0.4565 -0.3853
18221TIP3    H176078   6.167   2.831  11.399  1.4857  1.5422  1.9748
18221TIP3    H276079   6.274   2.736  11.347 -0.3434  0.5165 -0.0100
18222TIP3   OH276080   0.917   3.083   5.873 -0.0814  0.2955 -0.2634
18222TIP3    H176081   1.007   3.051   5.871 -0.1260 -0.0618  2.1154
18222TIP3    H276082   0.914   3.142   5.948 -1.5839  1.0772 -0.9267
18223TIP3   OH276083   1.382   2.830  14.095 -0.2089  0.1633 -0.3906
18223TIP3    H176084   1.384   2.919  14.059 -1.0126 -0.1072 -1.1144
18223TIP3    H276085   1.320   2.784  14.040 -2.1335 -0.0490  1.9028
18224TIP3   OH276086   0.450   4.110  13.144  0.9238 -0.0695  0.1984
18224TIP3    H176087   0.378   4.123  13.206 -0.0301 -2.4314 -0.3515
18224TIP3    H276088   0.526   4.092  13.199  0.6996  0.6326  0.7448
18225TIP3   OH276089   6.079   3.294   0.557  0.0056  0.1300 -0.6709
18225TIP3    H176090   6.063   3.385   0.582 -0.9035 -0.2420  0.1654
18225TIP3    H276091   6.155   3.297   0.499 -1.1015  1.6273 -2.0931
18226TIP3   OH276092   5.815   4.973  16.395  0.3592 -0.3477 -0.1704
18226TIP3    H176093   5.737   4.920  16.381 -0.7953  1.2747 -0.0890
18226TIP3    H276094   5.845   4.995  16.307  0.1672 -0.2106 -0.2054
18227TIP3   OH276095   3.988   0.901   4.698  0.3056  0.6659  0.4187
18227TIP3    H176096   3.953   0.990   4.707 -0.6407  0.4260 -0.7478
18227TIP3    H276097   3.936   0.849   4.759 -1.3151  0.3493 -1.1589
18228TIP3   OH276098   3.193   2.979  13.290  0.5073  0.1285  0.1470
18228TIP3    H176099   3.222   3.024  13.210 -0.8013 -0.2338 -0.5625
18228TIP3    H276100   3.197   2.886  13.268 -0.3346  0.0435  0.3160
18229TIP3   OH276101   1.640   5.355   0.473 -0.0190  0.5152 -0.5862
18229TIP3    H176102   1.605   5.443   0.467  0.0640  0.7380  1.7946
18229TIP3    H276103   1.564   5.300   0.492  0.0865  0.2175 -1.0163
18230TIP3   OH276104   3.235   5.109  14.622 -0.0905 -0.3937 -1.1930
18230TIP3    H176105   3.259   5.167  14.694 -1.4369  0.1004 -1.1255
18230TIP3    H276106   3.304   5.043  14.620  0.6124  0.3028 -0.2478
18231TIP3   OH276107   3.168   0.386  14.504 -0.2240  0.7693  0.3239
18231TIP3    H176108   3.135   0.388  14.593  0.2543  0.4130  0.5146
18231TIP3    H276109   3.170   0.294  14.480 -0.2129  0.8513 -0.0018
18232TIP3   OH276110   5.006   6.135   3.817 -0.0973  0.2868 -0.8284
18232TIP3    H176111   4.924   6.184   3.812  0.7950  2.0070  0.6303
18232TIP3    H276112   4.980   6.044   3.810 -2.3718  0.6746  1.5159
18233TIP3   OH276113   4.841   1.482   3.662 -0.6673  0.0673  0.5255
18233TIP3    H176114   4.751   1.464   3.692 -0.6821  0.4985  0.7474
18233TIP3    H276115   4.859   1.571   3.693 -0.1222 -0.0574  0.5731
18234TIP3   OH276116   2.647   3.507   5.465 -0.4466 -0.3587  0.5770
18234TIP3    H176117   2.674   3.572   5.530 -1.2101 -0.5588  1.1010
18234TIP3    H276118   2.595   3.444   5.514  1.6199 -2.2684  0.3983
18235TIP3   OH276119   4.912   1.222  12.704  0.5380 -0.1980  0.1299
18235TIP3    H176120   4.878   1.247  12.618  0.8636 -1.4290 -0.3730
18235TIP3    H276121   4.848   1.256  12.766  0.5209  1.0847 -0.5613
18236TIP3   OH276122   4.069   0.161  15.003  0.0124  0.3577 -0.3647
18236TIP3    H176123   4.122   0.177  15.081 -1.2347 -0.1639  0.5888
18236TIP3    H276124   4.051   0.248  14.968 -0.8642  0.6785  0.8801
18237TIP3   OH276125   2.907   1.154   0.477 -0.2211  0.1952 -0.0304
18237TIP3    H176126   2.971   1.157   0.406  0.3541  1.1775  0.5225
18237TIP3    H276127   2.881   1.245   0.490 -0.9957 -0.0851  0.4087
18238TIP3   OH276128   6.311   1.990   5.658  0.4847  0.0902 -0.2422
18238TIP3    H176129   6.237   1.971   5.715 -1.4655  1.3026 -2.2744
18238TIP3    H276130   6.341   1.904   5.628  0.7509 -0.4751  1.6082
18239TIP3   OH276131   6.604   6.288   2.419  0.3309  0.0274  0.9335
18239TIP3    H176132   6.679   6.248   2.462  0.2964  0.0422  1.0074
18239TIP3    H276133   6.599   6.244   2.334  0.6829  0.3231  0.7553
18240TIP3   OH276134   1.457   6.018  14.892  0.1131  0.6936  0.2730
18240TIP3    H176135   1.482   6.071  14.816  3.1847  0.0272  0.7814
18240TIP3    H276136   1.361   6.016  14.889  0.0766  3.3016 -1.7711
18241TIP3   OH276137   5.215   4.404  13.021 -0.0008 -0.1303 -0.6781
18241TIP3    H176138   5.124   4.382  13.005  0.5499 -3.3337  0.2101
18241TIP3    H276139   5.261   4.320  13.022  2.8161  1.3227 -0.1562
18242TIP3   OH276140   1.307   2.257   3.728  0.2528  0.4503 -0.0359
18242TIP3    H176141   1.396   2.242   3.759  0.2258  0.1589 -0.0955
18242TIP3    H276142   1.306   2.221   3.639 -0.0028  0.1904  0.0691
18243TIP3   OH276143   1.155   1.043   2.432  0.3043  0.5903 -1.1866
18243TIP3    H176144   1.130   1.103   2.361  0.3022  1.3276 -0.5772
18243TIP3    H276145   1.076   0.992   2.449 -0.0707  1.2434 -0.9084
18244TIP3   OH276146   0.084   3.054  17.214 -0.1740 -0.1513  0.2304
18244TIP3    H176147   0.055   2.966  17.237  0.1259 -0.6739 -1.3320
18244TIP3    H276148   0.178   3.045  17.197 -0.0615  0.5585  0.4472
18245TIP3   OH276149   3.611   2.318   1.970 -0.4422 -0.8967 -0.3463
18245TIP3    H176150   3.526   2.311   1.927  0.3103  1.9649 -2.4628
18245TIP3    H276151   3.673   2.331   1.898  1.3532  0.3169  1.3605
18246TIP3   OH276152   1.865   0.594  13.575  0.0647 -0.1885 -0.0208
18246TIP3    H176153   1.777   0.586  13.611  0.8031  0.3285  2.0095
18246TIP3    H276154   1.919   0.535  13.628  1.1900  0.5781 -0.2697
18247TIP3   OH276155   5.355   3.040  16.899  0.1470  0.2261  0.9133
18247TIP3    H176156   5.369   3.131  16.927  1.7124 -0.1115  1.3271
18247TIP3    H276157   5.306   3.047  16.818  2.3581  1.5726 -0.3642
18248TIP3   OH276158   6.340   5.962  11.193 -0.3583  0.0383  0.1044
18248TIP3    H176159   6.428   5.960  11.231  0.4722  0.8065 -1.6863
18248TIP3    H276160   6.355   5.970  11.099 -2.3570 -1.2177 -0.3430
18249TIP3   OH276161   0.213   3.330  16.504 -0.8825  0.0291 -0.0195
18249TIP3    H176162   0.273   3.351  16.575 -0.1780 -0.9339 -0.3138
18249TIP3    H276163   0.224   3.401  16.440 -0.7936  0.3685  0.3721
18250TIP3   OH276164   5.345   4.794   2.510  0.0066  0.0155 -0.3337
18250TIP3    H176165   5.296   4.873   2.485  1.4996  1.1615  0.3484
18250TIP3    H276166   5.322   4.779   2.602 -1.0407 -0.9342 -0.7322
18251TIP3   OH276167   0.896   5.482  10.794  0.2041  0.0477  0.1346
18251TIP3    H176168   0.828   5.540  10.758  0.1523 -0.1819 -0.1357
18251TIP3    H276169   0.901   5.410  10.732 -0.8127 -1.0250  1.2651
18252TIP3   OH276170   6.155   4.364   4.418  0.4272 -0.0366 -0.2542
18252TIP3    H176171   6.130   4.434   4.477 -0.1828 -0.0546 -0.4891
18252TIP3    H276172   6.183   4.293   4.475 -0.2006 -0.0687  0.0139
18253TIP3   OH276173   0.696   1.715  12.231 -0.6743 -0.7305 -0.0209
18253TIP3    H176174   0.715   1.636  12.281  2.1209 -1.0710 -1.5170
18253TIP3    H276175   0.738   1.701  12.146  0.8952  2.8128  0.0682
18254TIP3   OH276176   6.426   5.624  13.623  0.0562  0.0389  0.7134
18254TIP3    H176177   6.406   5.536  13.653 -0.0505 -0.1686  0.0306
18254TIP3    H276178   6.474   5.664  13.696 -0.9132 -0.1877  1.4806
18255TIP3   OH276179   3.397   2.123  11.075 -0.1963 -0.3072  0.0636
18255TIP3    H176180   3.333   2.194  11.081  0.8175  0.5243  1.4001
18255TIP3    H276181   3.387   2.089  10.986  0.7155  2.8699 -1.3340
18256TIP3   OH276182   0.280   6.746  15.447  0.6038 -0.1635 -0.0156
18256TIP3    H176183   0.208   6.803  15.421 -1.5988 -1.8375  2.2160
18256TIP3    H276184   0.334   6.801  15.505 -0.4106  0.2749  0.5333
18257TIP3   OH276185   6.341   2.315   0.802  0.0513 -0.5284 -0.1307
18257TIP3    H176186   6.271   2.250   0.798  0.9430 -1.4603 -1.0042
18257TIP3    H276187   6.349   2.347   0.712 -0.8565  1.3234  0.4228
18258TIP3   OH276188   2.941   2.677  15.454 -0.0227  0.4564  0.6494
18258TIP3    H176189   2.848   2.697  15.464  0.2485  0.7161  2.7413
18258TIP3    H276190   2.943   2.582  15.441 -0.6264  0.5578 -0.2765
18259TIP3   OH276191   0.517   1.820  15.402 -0.0587  0.3595 -0.3671
18259TIP3    H176192   0.577   1.823  15.476  1.3858  0.7853 -1.5160
18259TIP3    H276193   0.439   1.865  15.432  1.3986  2.6277  0.1557
18260TIP3   OH276194   2.099   4.262  16.094 -0.4332  0.1973 -0.1795
18260TIP3    H176195   2.029   4.242  16.033 -0.1326  2.7749 -1.4322
18260TIP3    H276196   2.166   4.196  16.075 -1.5070 -0.7827 -0.6368
18261TIP3   OH276197   5.248   0.952   2.275 -0.2430 -0.3334  0.0914
18261TIP3    H176198   5.185   0.915   2.213 -0.8869 -2.6385  2.0478
18261TIP3    H276199   5.333   0.938   2.233 -0.3849 -4.8340  1.0183
18262TIP3   OH276200   6.268   4.804   0.394 -0.3273  0.2922  0.4021
18262TIP3    H176201   6.280   4.833   0.485 -1.4910 -2.1524  1.3837
18262TIP3    H276202   6.309   4.718   0.391 -1.3988 -0.1900 -1.0576
18263TIP3   OH276203   4.495   0.167   3.683 -0.6741 -0.2826 -0.1379
18263TIP3    H176204   4.526   0.127   3.602  1.6298 -0.3750  0.7750
18263TIP3    H276205   4.459   0.095   3.734 -0.1744 -0.5674 -0.1881
18264TIP3   OH276206   4.669   1.491   5.431  0.0134  0.3597 -0.0180
18264TIP3    H176207   4.632   1.547   5.499 -0.2496 -0.0139  0.1488
18264TIP3    H276208   4.619   1.514   5.352 -0.0688  0.3862  0.0421
18265TIP3   OH276209   2.745   2.590  13.355  0.1475 -0.3231 -0.2125
18265TIP3    H176210   2.729   2.672  13.402 -1.3685 -0.8986  0.3123
18265TIP3    H276211   2.775   2.529  13.422  0.9748 -0.2772 -0.5453
18266TIP3   OH276212   2.879   0.923   1.782  0.4166 -0.1952 -0.5424
18266TIP3    H176213   2.952   0.959   1.834  0.7062 -0.0303 -1.0578
18266TIP3    H276214   2.816   0.893   1.848 -1.0858  3.7104 -0.0477
18267TIP3   OH276215   1.971   3.469  16.510  0.2677 -0.3976 -0.7519
18267TIP3    H176216   2.029   3.533  16.468  1.2005 -0.4211  0.4678
18267TIP3    H276217   1.884   3.492  16.479  0.6700  1.0528 -0.8753
18268TIP3   OH276218   0.868   4.858   2.943  0.4394  0.2623 -0.6082
18268TIP3    H176219   0.924   4.853   3.021  0.6077 -0.6772 -0.7833
18268TIP3    H276220   0.927   4.839   2.870  0.3575  1.4994 -1.0031
18269TIP3   OH276221   0.252   4.147   1.620  0.4769 -0.2236 -0.1100
18269TIP3    H176222   0.232   4.178   1.531 -0.1191  0.3669  0.2288
18269TIP3    H276223   0.166   4.138   1.661  0.7875  0.0421  0.5906
18270TIP3   OH276224   5.109   2.054  10.443 -0.0519 -0.1183  0.6243
18270TIP3    H176225   5.096   1.961  10.463 -0.1208 -0.2866 -0.1780
18270TIP3    H276226   5.022   2.084  10.416 -0.1173  0.2807  1.2580
18271TIP3   OH276227   5.812   3.267   6.046 -0.5150 -0.0912  0.3272
18271TIP3    H176228   5.804   3.235   6.136  1.3557  3.8013  1.9754
18271TIP3    H276229   5.725   3.303   6.027 -0.4955  0.4034  1.1237
18272TIP3   OH276230   1.616   4.584   2.712 -0.2002 -0.4795 -0.0640
18272TIP3    H176231   1.592   4.498   2.747 -1.3690  0.0358  0.4178
18272TIP3    H276232   1.566   4.592   2.631 -1.4107  0.4557  0.7672
18273TIP3   OH276233   5.314   4.927  13.209  0.7505 -0.1379  0.3010
18273TIP3    H176234   5.320   4.887  13.296  0.8013 -2.5262 -0.7546
18273TIP3    H276235   5.362   5.010  13.217  1.2758 -0.6233  2.3822
18274TIP3   OH276236   0.689   5.913   1.784  0.0738  0.5026 -0.4514
18274TIP3    H176237   0.652   5.869   1.708 -0.9686  1.6360 -0.6207
18274TIP3    H276238   0.615   5.927   1.843  0.5483  1.1759  0.0098
18275TIP3   OH276239   6.245   1.781  14.396 -0.3729 -0.6992  0.6561
18275TIP3    H176240   6.339   1.766  14.397 -0.3675 -0.8423 -0.8878
18275TIP3    H276241   6.208   1.706  14.443  0.2284 -1.0487  0.5648
18276TIP3   OH276242   1.900   4.388  14.470 -0.0982  0.9359 -0.2465
18276TIP3    H176243   1.926   4.427  14.554  0.1513  2.6815 -1.1277
18276TIP3    H276244   1.871   4.461  14.417 -2.4917 -0.4279 -0.9188
18277TIP3   OH276245   5.982   3.960   1.031  0.5523 -0.8705 -0.1427
18277TIP3    H176246   6.069   4.001   1.035  0.6016 -1.0687  1.3901
18277TIP3    H276247   5.940   3.999   0.955  1.1055  1.0450  0.4931
18278TIP3   OH276248   5.848   5.266  14.018 -0.1243  0.0433 -0.1595
18278TIP3    H176249   5.929   5.216  14.004 -1.3289 -1.8881 -0.2572
18278TIP3    H276250   5.861   5.346  13.966  1.4666 -0.5243 -0.6648
18279TIP3   OH276251   6.305   6.462  10.633  0.3957 -0.0123  0.3772
18279TIP3    H176252   6.346   6.533  10.584  1.3014  0.4569  1.7769
18279TIP3    H276253   6.376   6.425  10.686 -0.5269 -0.5655  1.2613
18280TIP3   OH276254   1.603   5.562   4.906 -0.2190 -0.5375  0.7365
18280TIP3    H176255   1.549   5.616   4.849  0.6313 -1.3469 -0.8564
18280TIP3    H276256   1.692   5.578   4.877  0.1299 -1.8110  1.0859
18281TIP3   OH276257   1.573   0.457  15.254 -0.2615  0.0801  0.2908
18281TIP3    H176258   1.667   0.444  15.259 -0.2680  0.2327  0.9363
18281TIP3    H276259   1.557   0.535  15.308 -0.8216 -0.2935  0.6760
18282TIP3   OH276260   5.698   2.131  10.727 -0.1030  0.7299  0.5694
18282TIP3    H176261   5.667   2.185  10.653  0.1241  0.4966  0.3012
18282TIP3    H276262   5.625   2.073  10.746  0.6409 -0.7544 -0.9564
18283TIP3   OH276263   6.258   1.634  14.877 -0.2906 -0.1453  0.4835
18283TIP3    H176264   6.302   1.681  14.807 -1.8514  0.4646 -0.1210
18283TIP3    H276265   6.325   1.622  14.944  1.0682 -0.2191 -0.8523
18284TIP3   OH276266   4.952   2.480   0.379 -0.2814 -0.7661 -0.1600
18284TIP3    H176267   4.897   2.505   0.305  0.1658  0.1054 -0.2052
18284TIP3    H276268   5.041   2.501   0.351 -0.2615  1.3175  1.3092
18285TIP3   OH276269   6.257   3.275   5.926 -0.2578 -0.0377 -0.5529
18285TIP3    H176270   6.233   3.257   5.835 -1.8728 -2.9025  0.3923
18285TIP3    H276271   6.189   3.335   5.957  0.6063  1.3955 -1.3464
18286TIP3   OH276272   3.617   5.522  14.454 -0.0795 -0.2655  0.7163
18286TIP3    H176273   3.574   5.439  14.436  1.3487 -1.3395  2.1009
18286TIP3    H276274   3.566   5.560  14.526 -0.7384  0.0681  0.0755
18287TIP3   OH276275   0.244   6.497  12.967 -0.0132  0.4999  0.4153
18287TIP3    H176276   0.240   6.412  12.922 -1.7395  0.7127  0.1231
18287TIP3    H276277   0.244   6.474  13.060 -1.3732  0.1668  0.3569
18288TIP3   OH276278   3.020   0.271   1.865  0.4043  0.1497 -0.0333
18288TIP3    H176279   2.998   0.200   1.925 -0.1679 -0.0220 -0.4333
18288TIP3    H276280   2.964   0.344   1.892  0.3386  0.1561 -0.1823
18289TIP3   OH276281   6.677   4.974  15.807 -0.3391 -0.4464  0.1752
18289TIP3    H176282   6.659   4.980  15.901  2.0694 -0.1138  0.6512
18289TIP3    H276283   6.760   5.021  15.796 -0.4061 -0.8106 -2.0682
18290TIP3   OH276284   5.433   4.754   0.962  0.2918 -0.1991  0.0792
18290TIP3    H176285   5.522   4.788   0.965 -0.1597  0.8936  1.6870
18290TIP3    H276286   5.402   4.760   1.053 -1.7628  0.3634 -0.6493
18291TIP3   OH276287   2.716   2.057   1.084  0.2065 -0.0577  0.3146
18291TIP3    H176288   2.793   2.000   1.089  1.2456  1.3071  0.3861
18291TIP3    H276289   2.693   2.074   1.176 -0.0132 -0.2509  0.2949
18292TIP3   OH276290   4.731   0.355   4.838 -0.4253 -0.5254  1.0363
18292TIP3    H176291   4.807   0.401   4.873  1.0321 -2.8266  1.0049
18292TIP3    H276292   4.709   0.402   4.758  2.8994 -1.6136 -0.6091
18293TIP3   OH276293   4.772   6.525   0.081  0.3460 -0.0534  0.1076
18293TIP3    H176294   4.755   6.520  -0.013  0.7480  0.4015  0.0074
18293TIP3    H276295   4.739   6.443   0.116  1.1925 -0.7121 -0.6026
18294TIP3   OH276296   0.388   2.551  15.680 -0.2783 -0.0845  0.2961
18294TIP3    H176297   0.428   2.621  15.732  1.4895 -0.6302 -0.2895
18294TIP3    H276298   0.446   2.540  15.605 -0.5320 -2.1494  0.3618
18295TIP3   OH276299   5.954   5.212   1.099  0.0697  0.3356  0.5364
18295TIP3    H176300   6.035   5.239   1.141  0.3179 -1.2418  1.0932
18295TIP3    H276301   5.976   5.206   1.006  0.2316  1.1921  0.5164
18296TIP3   OH276302   1.535   1.947  15.022  0.7618 -0.2182 -0.1307
18296TIP3    H176303   1.548   2.036  15.056  0.1391 -0.2785  0.2830
18296TIP3    H276304   1.547   1.955  14.928  3.0377 -0.1434  0.1474
18297TIP3   OH276305   1.420   3.180   0.454 -0.2016  0.0375 -0.1358
18297TIP3    H176306   1.440   3.205   0.364 -1.0962  0.0306 -0.3460
18297TIP3    H276307   1.505   3.175   0.498  0.3835 -1.5939 -1.3971
18298TIP3   OH276308   4.488   4.259  17.017  0.2072  0.0993 -0.0243
18298TIP3    H176309   4.541   4.259  16.937  0.2547  1.2760 -0.0057
18298TIP3    H276310   4.552   4.276  17.087 -0.2681  2.3842 -0.0830
18299TIP3   OH276311   5.261   0.488  14.374 -0.2191 -0.4127  0.0603
18299TIP3    H176312   5.228   0.398  14.369 -1.0200 -0.1706  0.8803
18299TIP3    H276313   5.356   0.478  14.372 -0.3064 -1.2598 -0.1709
18300TIP3   OH276314   2.783   4.109   6.390 -0.5476  0.0099  0.4324
18300TIP3    H176315   2.734   4.068   6.319 -0.6620  1.8429 -0.5908
18300TIP3    H276316   2.716   4.131   6.455 -0.6072 -0.5493  0.5651
18301TIP3   OH276317   3.996   3.919   2.955  0.6261 -0.1821 -0.1821
18301TIP3    H176318   4.059   3.954   2.891  0.4701 -0.2788 -0.3900
18301TIP3    H276319   3.915   3.907   2.904  0.8787 -1.4968 -0.2784
18302TIP3   OH276320   0.646   1.168  14.581  0.1604  0.3766  0.5313
18302TIP3    H176321   0.663   1.214  14.499 -0.5044  0.3296  0.3658
18302TIP3    H276322   0.553   1.184  14.599 -0.6031 -2.4850 -0.5546
18303TIP3   OH276323   4.689   2.974   5.025 -0.1061  0.2173  0.3120
18303TIP3    H176324   4.595   2.991   5.021 -0.3381 -0.8812  0.8761
18303TIP3    H276325   4.698   2.882   4.999  0.8676  0.4613 -0.2633
18304TIP3   OH276326   5.440   6.760  12.190  0.1988 -0.3639  0.1042
18304TIP3    H176327   5.518   6.803  12.224  1.6724 -1.4505 -1.8623
18304TIP3    H276328   5.470   6.676  12.155 -2.0947 -1.5051  0.7578
18305TIP3   OH276329   5.244   6.633  14.909  0.1438  0.2269 -0.3726
18305TIP3    H176330   5.268   6.640  14.817  0.6704  1.4959 -0.1499
18305TIP3    H276331   5.197   6.714  14.928 -0.0393 -0.0671  0.4531
18306TIP3   OH276332   1.018   6.772  10.766  1.1195  0.2209 -0.1428
18306TIP3    H176333   0.927   6.792  10.788  0.6160 -0.6344 -1.3901
18306TIP3    H276334   1.031   6.683  10.797  0.7923 -0.5228 -2.0588
18307TIP3   OH276335   0.082   6.123   3.525  0.3574 -0.3083  0.0809
18307TIP3    H176336   0.098   6.065   3.599  2.1771 -1.6151 -1.3084
18307TIP3    H276337  -0.012   6.114   3.507  0.6543 -3.0296 -0.2590
18308TIP3   OH276338   0.252   4.759   0.860  0.4567  0.5887 -0.3641
18308TIP3    H176339   0.223   4.755   0.769 -1.2007  1.0168  0.1315
18308TIP3    H276340   0.292   4.674   0.876  1.7605  0.8987 -1.8027
18309TIP3   OH276341   0.646   3.830   4.908  0.3297 -0.3857 -0.1055
18309TIP3    H176342   0.653   3.815   4.814 -1.9708  2.4261 -0.8069
18309TIP3    H276343   0.594   3.756   4.940 -0.8411 -0.1658 -1.4439
18310TIP3   OH276344   4.645   5.146   3.368  0.3195  0.2001 -0.1191
18310TIP3    H176345   4.639   5.208   3.295 -2.7564 -0.6006 -0.6080
18310TIP3    H276346   4.703   5.078   3.337  2.9080  2.2623  0.0246
18311TIP3   OH276347   4.849   6.033  16.516  0.9418  0.9089 -1.1657
18311TIP3    H176348   4.805   5.948  16.521 -0.3966  1.6779  0.9033
18311TIP3    H276349   4.873   6.042  16.424 -2.8960  0.2462 -2.3146
18312TIP3   OH276350   4.766   2.693   3.860  0.1583  0.3349 -0.3568
18312TIP3    H176351   4.808   2.759   3.914  0.4607  1.4110 -1.8866
18312TIP3    H276352   4.797   2.711   3.771 -0.4173 -1.3331 -0.9129
18313TIP3   OH276353   5.048   5.832   5.542  0.4891 -0.0194  0.5559
18313TIP3    H176354   5.031   5.739   5.558 -0.3367  0.1325  0.5591
18313TIP3    H276355   4.964   5.869   5.517  0.4324  1.0932  2.2851
18314TIP3   OH276356   6.276   0.381  15.541 -0.1876 -1.1830  0.2567
18314TIP3    H176357   6.188   0.413  15.556  0.8174  0.5641  2.6337
18314TIP3    H276358   6.316   0.445  15.482 -0.3314 -1.7452 -0.4712
18315TIP3   OH276359   5.367   2.336   2.058 -0.2706  0.1190  0.4336
18315TIP3    H176360   5.363   2.288   2.140 -0.2384  0.2620  0.5204
18315TIP3    H276361   5.420   2.281   2.000 -1.0275 -0.3925  0.2262
18316TIP3   OH276362   2.136   6.076   0.107  0.0715  0.0394  0.1227
18316TIP3    H176363   2.106   6.155   0.063 -1.5698  0.1323  1.3612
18316TIP3    H276364   2.061   6.017   0.104  0.5494 -0.6393  1.1438
18317TIP3   OH276365   0.955   4.841  16.779 -0.2300  0.2864 -0.0518
18317TIP3    H176366   0.945   4.899  16.855 -1.2887 -2.0872  1.6631
18317TIP3    H276367   0.871   4.797  16.770  1.1308 -2.3675 -0.1755
18318TIP3   OH276368   6.229   3.956   3.343 -0.2603  0.1434 -0.2584
18318TIP3    H176369   6.280   3.891   3.392  1.1054  0.6158 -1.0365
18318TIP3    H276370   6.222   4.031   3.402  1.0550  0.5654 -0.6235
18319TIP3   OH276371   4.071   3.853   5.922  0.7009  0.4697  0.1323
18319TIP3    H176372   4.124   3.798   5.864 -1.3209 -0.0702 -1.2878
18319TIP3    H276373   4.028   3.791   5.981 -0.1136  0.6954 -0.2212
18320TIP3   OH276374   4.822   5.046  17.167 -0.1385 -0.2724 -0.3337
18320TIP3    H176375   4.867   4.989  17.229  1.0841  3.3074  2.3165
18320TIP3    H276376   4.890   5.076  17.107 -0.0456  0.9241  0.3410
18321TIP3   OH276377   2.024   4.986   3.220  0.4146  0.3436  0.4475
18321TIP3    H176378   1.952   5.041   3.249  1.8380  2.4779  0.0868
18321TIP3    H276379   2.021   4.990   3.124  1.8054  1.6141  0.4208
18322TIP3   OH276380   4.294   5.930   1.425 -0.0225 -0.0509  0.6675
18322TIP3    H176381   4.300   5.853   1.368 -0.6556  0.8412 -0.6251
18322TIP3    H276382   4.243   5.994   1.374 -0.2003  0.9317  2.0490
18323TIP3   OH276383   5.117   4.485  16.204  0.0673  0.4214  0.4662
18323TIP3    H176384   5.198   4.469  16.156 -0.5699  2.2019 -1.3129
18323TIP3    H276385   5.049   4.446  16.149 -0.3028 -0.9605  1.8895
18324TIP3   OH276386   1.476   1.301  17.156 -0.0758  0.5481  0.2683
18324TIP3    H176387   1.560   1.307  17.112  0.9240 -0.4180  2.0046
18324TIP3    H276388   1.447   1.211  17.140  0.0961  0.3195  1.1860
18325TIP3   OH276389   1.455   3.796   2.388  0.2218  0.0996 -0.0886
18325TIP3    H176390   1.496   3.870   2.343 -1.4744  0.6696 -0.7353
18325TIP3    H276391   1.367   3.792   2.352 -0.6600 -0.4288  2.0739
18326TIP3   OH276392   6.617   5.079  13.511 -0.3135  0.0517 -0.1826
18326TIP3    H176393   6.710   5.093  13.495 -0.5274  0.9303 -0.6787
18326TIP3    H276394   6.576   5.089  13.425 -0.8902 -0.1285  0.0682
18327TIP3   OH276395   4.271   2.053   4.364 -0.3900 -0.3800 -0.0345
18327TIP3    H176396   4.272   2.055   4.459 -0.5519  1.8284 -0.0529
18327TIP3    H276397   4.363   2.059   4.339 -0.3728 -0.6137 -0.0323
18328TIP3   OH276398   6.196   0.518   5.768  0.0079 -0.2218  0.3209
18328TIP3    H176399   6.159   0.539   5.854  0.7995 -0.1724  0.6561
18328TIP3    H276400   6.125   0.474   5.721 -0.5400  0.0627  0.8778
18329TIP3   OH276401   1.197   4.778   2.044 -0.6993  0.1043  0.1409
18329TIP3    H176402   1.139   4.814   1.976  0.6960  1.9621 -0.1182
18329TIP3    H276403   1.283   4.776   2.004 -0.4341 -2.0251  0.7508
18330TIP3   OH276404   6.469   2.301   2.947 -0.3626  0.2877 -0.3726
18330TIP3    H176405   6.482   2.391   2.976  0.1065  0.1495 -0.1470
18330TIP3    H276406   6.539   2.285   2.885 -0.5805  0.1505 -0.5844
18331TIP3   OH276407   1.211   0.651   3.570  0.4921  0.1077  0.0736
18331TIP3    H176408   1.254   0.717   3.624  1.5778  0.9444 -1.7523
18331TIP3    H276409   1.138   0.697   3.529  0.4834 -0.1471 -0.2057
18332TIP3   OH276410   6.576   6.338   6.138 -0.0630  0.3773  0.3216
18332TIP3    H176411   6.615   6.387   6.210  1.5602  2.7812 -2.0746
18332TIP3    H276412   6.598   6.247   6.156  2.8462  1.2312  1.3603
18333TIP3   OH276413   5.621   2.439   5.860  0.2394  0.2689 -0.2188
18333TIP3    H176414   5.674   2.365   5.888  1.1832  1.7078  1.9187
18333TIP3    H276415   5.531   2.411   5.874  0.5612 -0.7260 -0.1003
18334TIP3   OH276416   5.506   4.316   5.994 -0.7983 -0.1309  0.0599
18334TIP3    H176417   5.506   4.398   6.042  0.4626  0.4765 -0.9690
18334TIP3    H276418   5.414   4.288   5.995 -1.4238  1.8277 -0.5193
18335TIP3   OH276419   3.820   1.220   1.766 -0.2049  0.6485 -0.5284
18335TIP3    H176420   3.900   1.272   1.779 -0.8404  1.4474  0.2551
18335TIP3    H276421   3.825   1.191   1.675  0.3414  1.8044 -0.8758
18336TIP3   OH276422   0.052   2.494   5.546 -0.1880  0.5574 -0.7439
18336TIP3    H176423  -0.011   2.422   5.541  0.6841 -0.2078 -0.8117
18336TIP3    H276424   0.016   2.553   5.612 -0.1958 -0.6361  0.3444
18337TIP3   OH276425   6.211   5.648   1.058  0.0936 -0.3927 -0.0477
18337TIP3    H176426   6.183   5.679   1.145 -2.3737 -0.8461 -0.6249
18337TIP3    H276427   6.186   5.719   0.999  1.3832 -0.2722 -0.4652
18338TIP3   OH276428   4.570   0.218  16.820  0.1434 -0.4053  0.2684
18338TIP3    H176429   4.527   0.300  16.795  0.3270 -0.4041 -0.0404
18338TIP3    H276430   4.507   0.150  16.796  1.1630 -0.5496 -2.1430
18339TIP3   OH276431   4.863   1.127   4.221 -0.3638 -0.1089 -0.0366
18339TIP3    H176432   4.791   1.065   4.230  0.5155 -1.2509 -0.6753
18339TIP3    H276433   4.830   1.209   4.257 -2.0058 -0.6006 -0.4024
18340TIP3   OH276434   6.335   6.587  17.139  0.3769  0.0656 -0.3090
18340TIP3    H176435   6.397   6.632  17.196 -0.2926 -0.1119  0.5670
18340TIP3    H276436   6.259   6.644  17.136 -0.0338 -0.4640 -0.1108
18341TIP3   OH276437   1.089   2.769   2.569 -0.0686 -0.5831 -0.6134
18341TIP3    H176438   1.031   2.764   2.646  0.0272 -0.7776 -0.5532
18341TIP3    H276439   1.098   2.678   2.541 -0.3932 -0.4751 -1.0712
18342TIP3   OH276440   3.675   6.051  11.978 -0.0420  0.1650  0.0918
18342TIP3    H176441   3.711   5.974  11.933  0.2938 -0.9493  2.1884
18342TIP3    H276442   3.663   6.022  12.069 -0.4207  2.4338  0.7985
18343TIP3   OH276443   4.982   3.779  14.205 -0.4188  0.5130 -0.1983
18343TIP3    H176444   5.067   3.820  14.219 -0.9887  1.6674 -0.1255
18343TIP3    H276445   4.970   3.780  14.110 -0.0753 -0.2328 -0.2569
18344TIP3   OH276446   2.543   1.483  11.477 -0.3595 -0.2700 -0.3666
18344TIP3    H176447   2.456   1.520  11.489 -0.7991 -1.2556 -0.4000
18344TIP3    H276448   2.546   1.459  11.384  0.9892  2.3101 -1.0129
18345TIP3   OH276449   4.811   1.250  11.551 -0.2789 -0.3266  0.2971
18345TIP3    H176450   4.843   1.332  11.512 -1.1324  0.9533  2.1939
18345TIP3    H276451   4.718   1.249  11.530 -0.2660 -0.8199  0.2739
18346TIP3   OH276452   0.865   1.920   1.501 -0.0190 -0.0862  0.1795
18346TIP3    H176453   0.780   1.876   1.502  0.0986 -0.3295 -0.2820
18346TIP3    H276454   0.866   1.967   1.417  0.7901 -1.0514 -0.3533
18347TIP3   OH276455   5.800   3.124  10.980  0.0069  0.9658  0.0022
18347TIP3    H176456   5.816   3.052  10.919  0.3628  1.0537 -0.0118
18347TIP3    H276457   5.749   3.188  10.930  1.3185  1.5768 -0.5890
18348TIP3   OH276458   4.711   6.065   4.719 -0.0253  0.3042 -0.1107
18348TIP3    H176459   4.633   6.069   4.774  0.7778  0.1367  1.0500
18348TIP3    H276460   4.677   6.062   4.629 -1.3520 -0.0528  0.3967
18349TIP3   OH276461   4.231   5.173  13.112  0.5568  0.1560  0.1958
18349TIP3    H176462   4.225   5.124  13.030  1.5053  0.2027  0.0838
18349TIP3    H276463   4.192   5.116  13.178 -0.7176  0.3524 -0.3861
18350TIP3   OH276464   4.729   0.237  12.871  0.2623 -0.2066 -0.2616
18350TIP3    H176465   4.743   0.266  12.962 -2.6705  0.8935 -0.1025
18350TIP3    H276466   4.714   0.318  12.822 -1.5853 -0.9901 -1.0504
18351TIP3   OH276467   0.961   6.591   5.691 -0.3056 -0.1432 -0.1727
18351TIP3    H176468   0.991   6.586   5.600  0.2991  1.6706 -0.0971
18351TIP3    H276469   0.952   6.685   5.708  1.8149 -0.3190  2.3399
18352TIP3   OH276470   1.280   0.971   3.257 -0.5768  0.1856 -0.1995
18352TIP3    H176471   1.206   0.979   3.197  0.6636 -0.0915 -1.8029
18352TIP3    H276472   1.357   0.983   3.201  0.6201 -0.7087  1.2329
18353TIP3   OH276473   1.465   5.023   5.078 -0.5237 -0.2753  0.1351
18353TIP3    H176474   1.535   5.079   5.111 -0.3724 -1.2043  1.3910
18353TIP3    H276475   1.390   5.082   5.069  0.2680  0.6233 -0.7915
18354TIP3   OH276476   5.310   0.105   5.615 -0.3540 -0.6360  0.0623
18354TIP3    H176477   5.252   0.150   5.678  0.3309  0.5996 -0.1777
18354TIP3    H276478   5.393   0.097   5.662  1.4485  3.9276 -2.0011
18355TIP3   OH276479   6.270   3.067   4.057  0.2794 -0.6737 -0.1743
18355TIP3    H176480   6.245   2.989   4.107 -1.7027 -0.2566 -0.4887
18355TIP3    H276481   6.293   3.132   4.124  0.1342 -0.9318  0.1251
18356TIP3   OH276482   1.075   0.203   0.393 -0.4408 -0.3365  0.6729
18356TIP3    H176483   1.114   0.272   0.446  0.5564 -0.7279  0.4423
18356TIP3    H276484   1.070   0.127   0.452 -2.3424  0.1543  1.2038
18357TIP3   OH276485   6.383   5.947  13.007  0.3387  0.5847  0.7081
18357TIP3    H176486   6.444   6.005  12.961  1.1459  0.6181  1.8148
18357TIP3    H276487   6.427   5.926  13.089 -0.5321 -0.5318  0.8957
18358TIP3   OH276488   1.159   0.689  12.852  0.1715 -0.0538  0.2970
18358TIP3    H176489   1.082   0.745  12.847  0.5951  0.5656  0.5305
18358TIP3    H276490   1.140   0.616  12.794 -0.4061  0.3176  0.0160
18359TIP3   OH276491   2.769   1.993   0.723 -0.2085 -0.1374 -0.1286
18359TIP3    H176492   2.825   2.045   0.781 -0.4281  0.7365 -0.6744
18359TIP3    H276493   2.807   2.006   0.636 -0.9165 -0.0054 -0.4235
18360TIP3   OH276494   0.163   0.513   1.021 -0.3042 -0.4541 -0.2082
18360TIP3    H176495   0.148   0.602   1.052  0.9688  0.0199 -0.8966
18360TIP3    H276496   0.155   0.519   0.926 -1.2124 -1.2861 -0.1937
18361TIP3   OH276497   0.379   0.345   6.228  0.1524 -0.3037 -0.6600
18361TIP3    H176498   0.328   0.346   6.309 -0.2051 -0.3806 -0.8811
18361TIP3    H276499   0.419   0.258   6.226  0.8042 -0.0158 -0.1723
18362TIP3   OH276500   3.778   4.776  11.676 -0.7347 -0.0461  0.3645
18362TIP3    H176501   3.759   4.868  11.691  1.9961  0.9304 -1.6840
18362TIP3    H276502   3.748   4.759  11.587  0.3530 -0.6562  0.1027
18363TIP3   OH276503   1.823   2.795   3.685  0.3136 -0.1253  0.2367
18363TIP3    H176504   1.880   2.847   3.741 -1.0027  1.2011  0.3951
18363TIP3    H276505   1.734   2.823   3.709 -0.2832  0.3519 -2.3738
18364TIP3   OH276506   2.186   1.457  11.134 -0.2727 -0.6684  0.5257
18364TIP3    H176507   2.135   1.412  11.066 -0.3623  0.6236 -0.2848
18364TIP3    H276508   2.121   1.494  11.193 -0.1971 -1.6724  1.2443
18365TIP3   OH276509   4.039   0.223  12.961  0.8715 -0.0613 -0.3096
18365TIP3    H176510   4.007   0.231  12.871  0.5611 -0.3165 -0.2191
18365TIP3    H276511   4.116   0.281  12.964  0.7043  0.1794 -0.6537
18366TIP3   OH276512   6.079   0.647  10.950  0.2295  0.5623 -0.1569
18366TIP3    H176513   6.083   0.629  10.857  2.4365  0.4771 -0.0648
18366TIP3    H276514   6.167   0.630  10.982 -0.5192  0.4964  1.9677
18367TIP3   OH276515   6.183   6.004   1.211  0.0461  0.5608  0.4274
18367TIP3    H176516   6.278   5.986   1.212 -0.2139 -0.9028  2.0436
18367TIP3    H276517   6.165   6.042   1.297 -0.7850  1.1220  0.0091
18368TIP3   OH276518   2.870   4.829  11.113  0.3681 -0.4066  0.1988
18368TIP3    H176519   2.880   4.897  11.046  0.1616 -1.1925 -0.6479
18368TIP3    H276520   2.854   4.876  11.194  3.4036  0.7055  0.2396
18369TIP3   OH276521   2.301   5.573   5.517  0.2696 -0.2732  0.2094
18369TIP3    H176522   2.295   5.630   5.594  3.0635 -1.8503  1.7233
18369TIP3    H276523   2.275   5.487   5.549 -1.8159 -0.3173 -1.5074
18370TIP3   OH276524   2.119   0.027   0.125  0.3081 -0.0587 -0.3721
18370TIP3    H176525   2.027   0.047   0.142  0.4679  1.3904 -1.1676
18370TIP3    H276526   2.124  -0.068   0.131 -1.4718 -0.2405 -1.4691
18371TIP3   OH276527   3.603   4.664   6.170  0.7673 -0.2225 -0.3157
18371TIP3    H176528   3.637   4.750   6.144  0.3565 -0.0900 -0.4264
18371TIP3    H276529   3.617   4.609   6.093  1.1240 -0.2823 -0.2095
18372TIP3   OH276530   5.737   3.510  15.059 -0.3785 -0.3670  0.3069
18372TIP3    H176531   5.671   3.520  15.127 -0.1997  1.6024  0.2294
18372TIP3    H276532   5.820   3.524  15.105 -0.2267  0.4306 -0.1989
18373TIP3   OH276533   1.313   3.929   4.501 -0.1015  0.6140 -0.5524
18373TIP3    H176534   1.337   3.944   4.409 -1.6461  2.9163 -0.6392
18373TIP3    H276535   1.223   3.961   4.507 -0.8015 -1.6492  1.2599
18374TIP3   OH276536   2.825   1.919  13.374 -0.0735  0.0748  0.2821
18374TIP3    H176537   2.830   1.877  13.460  1.0751 -0.1026  0.1386
18374TIP3    H276538   2.786   1.853  13.317 -0.9880  0.2508  0.6994
18375TIP3   OH276539   0.491   2.677  12.904  0.2999  0.0816 -0.0986
18375TIP3    H176540   0.541   2.609  12.859  0.7253  0.3935 -0.1013
18375TIP3    H276541   0.422   2.701  12.843  0.5001  0.0662 -0.3295
18376TIP3   OH276542   3.867   5.366   3.040  0.4562  0.0969 -0.9228
18376TIP3    H176543   3.935   5.327   3.095 -1.4262  0.8073  2.0110
18376TIP3    H276544   3.805   5.295   3.025 -0.7960  0.8018  0.8213
18377TIP3   OH276545   5.516   5.850   2.430  0.0686  0.0585 -0.2573
18377TIP3    H176546   5.569   5.862   2.351  1.2385  0.9328  0.6444
18377TIP3    H276547   5.570   5.795   2.487 -1.1960 -1.4279 -0.4546
18378TIP3   OH276548   3.412   3.757  14.387 -0.3723  0.4412  0.2165
18378TIP3    H176549   3.435   3.740  14.296 -0.5765  1.3599 -0.0076
18378TIP3    H276550   3.490   3.731  14.437 -0.0947  0.3662 -0.2570
18379TIP3   OH276551   4.655   6.089   1.788  0.2991 -0.1019  0.7388
18379TIP3    H176552   4.634   5.997   1.805  0.5645 -0.2200  0.4219
18379TIP3    H276553   4.624   6.105   1.699 -0.3957  0.3122  1.0494
18380TIP3   OH276554   1.700   1.592  16.270  0.0922  0.1887 -0.4944
18380TIP3    H176555   1.618   1.543  16.271  0.8264 -1.0684 -0.4509
18380TIP3    H276556   1.674   1.684  16.264 -1.3562 -0.1003  1.1007
18381TIP3   OH276557   4.775   3.766   6.737  0.4010  0.4160 -0.0140
18381TIP3    H176558   4.736   3.756   6.649  0.4235  1.6348 -0.1723
18381TIP3    H276559   4.707   3.735   6.796 -0.0596  0.6581 -0.4060
18382TIP3   OH276560   1.941   2.476  15.619  0.2644  0.0491 -0.2286
18382TIP3    H176561   1.905   2.563  15.634 -0.5130 -0.3132  0.0243
18382TIP3    H276562   1.938   2.433  15.704  0.9507 -0.1133 -0.2848
18383TIP3   OH276563   3.803   5.367   0.219  0.0523  0.2841 -0.6339
18383TIP3    H176564   3.829   5.416   0.297 -0.9259 -0.4718  0.1761
18383TIP3    H276565   3.746   5.428   0.171  0.0818  0.4966 -0.4006
18384TIP3   OH276566   4.568   4.756   5.456  0.0779  0.2309  0.6008
18384TIP3    H176567   4.583   4.745   5.362  0.9141 -0.5108  0.8032
18384TIP3    H276568   4.540   4.846   5.466  0.0511  0.3352 -0.3586
18385TIP3   OH276569   6.563   0.205   0.549 -0.1219  0.1002 -0.0346
18385TIP3    H176570   6.533   0.232   0.636 -1.6784  0.4658 -0.6658
18385TIP3    H276571   6.527   0.271   0.490  0.8607 -0.1918 -0.9690
18386TIP3   OH276572   3.627   5.706   6.361 -0.1817  0.4507 -0.0099
18386TIP3    H176573   3.582   5.702   6.276 -0.0511 -1.6882 -0.0272
18386TIP3    H276574   3.714   5.741   6.340 -0.6732  1.3965 -0.5085
18387TIP3   OH276575   4.088   2.037  11.201  0.0220  0.1091  0.4574
18387TIP3    H176576   4.031   2.012  11.129 -0.6470  0.4487  0.8648
18387TIP3    H276577   4.173   2.053  11.161 -0.8846  2.4674 -0.5657
18388TIP3   OH276578   2.783   0.165   3.116  0.3880  0.2957 -0.0767
18388TIP3    H176579   2.737   0.082   3.134  0.0256  0.1906 -1.4351
18388TIP3    H276580   2.838   0.146   3.040 -2.7137  2.3843 -2.9517
18389TIP3   OH276581   3.205   3.796  14.844 -0.6675  0.2140 -0.3350
18389TIP3    H176582   3.233   3.713  14.806  1.3084 -0.2431  1.9871
18389TIP3    H276583   3.118   3.778  14.879 -0.0824 -1.0107  0.5218
18390TIP3   OH276584   4.244   1.501  16.338 -0.3228  0.3294  0.2518
18390TIP3    H176585   4.269   1.580  16.291 -1.4278  0.5881  0.0902
18390TIP3    H276586   4.325   1.470  16.379  0.1521  1.4211  0.1334
18391TIP3   OH276587   4.969   3.400   4.993 -0.2013  0.4363  0.7458
18391TIP3    H176588   4.907   3.351   5.047 -0.6717  0.8095  0.5472
18391TIP3    H276589   5.055   3.375   5.027 -0.3981 -1.1753  0.0928
18392TIP3   OH276590   4.935   4.742  14.881 -0.0726  0.2412  0.1331
18392TIP3    H176591   4.900   4.657  14.907  1.0878 -0.4676 -0.6022
18392TIP3    H276592   4.902   4.756  14.793 -0.5069  0.6847  0.3683
18393TIP3   OH276593   6.736   3.015  14.475  0.3914 -0.0684  0.0896
18393TIP3    H176594   6.688   2.979  14.550  0.9854  0.9029  0.9581
18393TIP3    H276595   6.683   2.992  14.399 -1.4305  0.9051  1.0225
18394TIP3   OH276596   5.386   4.159   2.889 -0.5572  0.2752  0.1476
18394TIP3    H176597   5.442   4.198   2.956  0.3423 -1.3774  0.3860
18394TIP3    H276598   5.431   4.179   2.807 -0.7716  0.8245  0.1575
18395TIP3   OH276599   2.185   4.453   4.042 -0.1647 -0.1301 -0.4397
18395TIP3    H176600   2.210   4.546   4.050 -2.0748  0.3523  0.1856
18395TIP3    H276601   2.215   4.414   4.124  0.5321 -0.0517 -0.6490
18396TIP3   OH276602   5.177   0.830   6.308 -0.1123  0.0665  0.6426
18396TIP3    H176603   5.220   0.753   6.346 -1.0510 -0.4050  0.7712
18396TIP3    H276604   5.247   0.894   6.298  0.2917 -0.0828  2.4308
18397TIP3   OH276605   3.717   2.489   0.644 -0.0954  0.2010  0.1688
18397TIP3    H176606   3.796   2.543   0.643 -0.0722  0.1524 -1.4151
18397TIP3    H276607   3.716   2.451   0.732  3.1706 -2.0223 -0.6575
18398TIP3   OH276608   3.237   6.514  12.191 -0.1624  0.1664  0.2267
18398TIP3    H176609   3.241   6.477  12.103  0.4298 -1.2435  0.8372
18398TIP3    H276610   3.145   6.509  12.216 -0.7939  2.9922 -1.3106
18399TIP3   OH276611   6.496   3.749  11.259  0.1292 -0.1257  0.2584
18399TIP3    H176612   6.520   3.657  11.255  1.3584  0.1880  0.2197
18399TIP3    H276613   6.424   3.753  11.322  0.0963 -1.1007  0.2836
18400TIP3   OH276614   6.606   2.423  15.361 -0.0291  0.2450  0.2785
18400TIP3    H176615   6.543   2.367  15.316 -0.6423  0.8731  0.3545
18400TIP3    H276616   6.560   2.506  15.374  1.6656  1.5756 -1.9612
18401TIP3   OH276617   5.660   1.959  11.271 -0.2295 -0.1961 -0.4319
18401TIP3    H176618   5.644   2.014  11.347 -0.6376 -0.0597 -0.6164
18401TIP3    H276619   5.657   2.019  11.196  2.7985  0.1462 -0.3574
18402TIP3   OH276620   5.568   5.261  14.566  0.3436  0.1291  0.1593
18402TIP3    H176621   5.544   5.193  14.629 -2.1961  0.8027  0.0046
18402TIP3    H276622   5.525   5.235  14.485  2.5957 -0.0952 -0.9965
18403TIP3   OH276623   2.576   4.931   4.273 -0.5054  0.4444  0.4064
18403TIP3    H176624   2.552   5.015   4.312 -0.5898 -0.2035  1.7603
18403TIP3    H276625   2.536   4.865   4.330  1.9968 -0.6015  0.9936
18404TIP3   OH276626   5.996   4.880   1.676 -0.2140  0.6398  0.8228
18404TIP3    H176627   5.987   4.878   1.581 -1.3321  1.5050  0.8904
18404TIP3    H276628   5.969   4.793   1.705 -0.4757  0.5751  0.3914
18405TIP3   OH276629   3.091   1.181   1.239 -0.2104 -0.0484  0.2840
18405TIP3    H176630   3.171   1.173   1.188 -0.9052 -0.9698 -0.6798
18405TIP3    H276631   3.091   1.106   1.297 -0.3284 -0.0054  0.3408
18406TIP3   OH276632   0.747   1.611   5.528  0.0727 -0.2237  0.6816
18406TIP3    H176633   0.746   1.696   5.485 -0.2358  0.0401  1.2038
18406TIP3    H276634   0.826   1.612   5.582 -1.4144  0.8782  2.9320
18407TIP3   OH276635   6.686   4.541  11.931  0.4455  0.0167  0.5147
18407TIP3    H176636   6.662   4.620  11.883  1.8144  0.4589  0.5283
18407TIP3    H276637   6.745   4.494  11.872 -0.9899 -1.4054  0.1841
18408TIP3   OH276638   4.220   3.813   0.247 -0.0110 -0.1097  0.0764
18408TIP3    H176639   4.246   3.721   0.246 -1.0470 -0.4166  0.5230
18408TIP3    H276640   4.170   3.825   0.166  1.0349  0.3407 -0.5152
18409TIP3   OH276641   3.226   3.155  12.345 -0.4678 -0.0961  0.2096
18409TIP3    H176642   3.290   3.088  12.369 -1.0703  0.0920  2.4489
18409TIP3    H276643   3.198   3.131  12.257  3.0148  0.0844 -1.0445
18410TIP3   OH276644   4.334   6.682  16.218  0.0595  0.2443  0.5724
18410TIP3    H176645   4.390   6.750  16.256  1.2779 -1.5542  2.0320
18410TIP3    H276646   4.298   6.635  16.294  1.7013 -2.7361 -0.4223
18411TIP3   OH276647   0.925   5.178   5.355  0.1275 -0.5777  0.2534
18411TIP3    H176648   0.960   5.135   5.433 -0.2929 -1.1435  0.1280
18411TIP3    H276649   0.876   5.110   5.310  0.3968 -0.2603 -0.5265
18412TIP3   OH276650   0.251   2.030   2.120  0.2647 -0.2698  0.5010
18412TIP3    H176651   0.269   1.950   2.072  0.9295 -0.0775  0.4196
18412TIP3    H276652   0.327   2.087   2.101 -0.8871  0.9261 -0.6157
18413TIP3   OH276653   3.334   0.622  13.537 -0.1413 -0.4168  0.3355
18413TIP3    H176654   3.398   0.552  13.529 -0.6859 -0.7102 -1.6677
18413TIP3    H276655   3.277   0.595  13.609  1.2875 -0.6749  1.4053
18414TIP3   OH276656   3.636   4.332  10.816 -0.2735 -0.1688 -0.2250
18414TIP3    H176657   3.611   4.304  10.904  0.8170  0.2398  0.2190
18414TIP3    H276658   3.629   4.253  10.763 -0.5269 -0.5089  0.3119
18415TIP3   OH276659   4.006   3.195   2.628  0.5061 -0.5373 -0.1021
18415TIP3    H176660   3.965   3.109   2.627 -1.2172  0.2368  1.1925
18415TIP3    H276661   4.082   3.186   2.571 -1.2500 -2.1170 -2.2984
18416TIP3   OH276662   0.750   4.633  17.076 -0.9338  0.3993  0.5147
18416TIP3    H176663   0.670   4.629  17.130 -1.4860  0.0168 -0.3292
18416TIP3    H276664   0.778   4.724  17.084  0.5589 -0.2619  3.6956
18417TIP3   OH276665   4.744   5.056  13.533 -0.0926  0.5684 -0.0601
18417TIP3    H176666   4.744   5.149  13.554  0.6660  0.3024  1.1704
18417TIP3    H276667   4.800   5.049  13.455 -0.0755  1.1279 -0.1004
18418TIP3   OH276668   3.222   4.893   5.303  0.7643 -0.3600  0.2529
18418TIP3    H176669   3.243   4.982   5.272 -1.2629  0.3415  0.8237
18418TIP3    H276670   3.254   4.891   5.393 -2.4561  1.1097  1.5231
18419TIP3   OH276671   2.891   0.059  15.708 -0.2403 -0.2021 -0.1828
18419TIP3    H176672   2.961   0.124  15.700  1.4476 -1.9076  0.3804
18419TIP3    H276673   2.830   0.080  15.637  1.4011  0.6408 -1.3612
18420TIP3   OH276674   0.886   0.983  10.719  0.1335 -0.4136 -0.3378
18420TIP3    H176675   0.925   1.032  10.647 -0.0431  0.9517  0.4696
18420TIP3    H276676   0.889   0.891  10.691  1.2551 -0.0298 -1.5079
18421TIP3   OH276677   5.130   2.964  12.087  0.2023 -0.2245  0.1054
18421TIP3    H176678   5.165   2.882  12.051 -0.4107  0.5926 -2.3787
18421TIP3    H276679   5.036   2.958  12.073  0.2767  1.4273 -1.1757
18422TIP3   OH276680   2.309   2.848  15.941 -0.3574 -0.5131  0.1760
18422TIP3    H176681   2.233   2.815  15.892 -1.6260  0.5428  1.3795
18422TIP3    H276682   2.382   2.796  15.909 -1.3838 -0.7664 -1.8688
18423TIP3   OH276683   2.535   0.378  15.763  0.0610  0.4168  0.2680
18423TIP3    H176684   2.477   0.317  15.808 -1.2820  2.5848  1.5599
18423TIP3    H276685   2.577   0.325  15.695 -0.2765 -2.1697  1.9944
18424TIP3   OH276686   6.740   6.082   2.561 -0.0486 -0.4093  0.0847
18424TIP3    H176687   6.782   6.060   2.645  0.8340 -1.0762 -0.5264
18424TIP3    H276688   6.672   6.016   2.550 -0.4798 -0.0380  0.5016
18425TIP3   OH276689   5.324   2.245  15.310 -0.2920  0.2961 -0.4100
18425TIP3    H176690   5.255   2.248  15.376  0.0702 -2.4333  0.1263
18425TIP3    H276691   5.278   2.231  15.227 -0.4721 -0.3286 -0.2065
18426TIP3   OH276692   5.756   0.189   5.988 -0.0448  0.0991 -0.4248
18426TIP3    H176693   5.839   0.234   6.005 -0.5989  0.8442  0.3489
18426TIP3    H276694   5.750   0.122   6.055 -0.5967  0.7887  0.2278
18427TIP3   OH276695   6.580   3.990   3.052  0.2562  0.1464  0.5274
18427TIP3    H176696   6.662   3.991   3.002 -0.1782  1.8729 -0.1906
18427TIP3    H276697   6.518   3.945   2.994  0.0256  1.2033 -0.0575
18428TIP3   OH276698   3.604   4.460  14.779 -0.4023 -0.0645 -0.3178
18428TIP3    H176699   3.571   4.410  14.853  0.3623  0.7306  0.5833
18428TIP3    H276700   3.538   4.528  14.763  0.4371  1.0994  1.0367
18429TIP3   OH276701   0.698   0.977  10.964  0.1366 -0.6053 -0.3176
18429TIP3    H176702   0.644   1.054  10.945 -1.3252 -1.6100 -0.2591
18429TIP3    H276703   0.767   0.980  10.897 -0.6121  0.0810 -1.0775
18430TIP3   OH276704   3.475   0.187   4.548  0.0765  0.2676  0.4206
18430TIP3    H176705   3.555   0.187   4.600 -0.0523  1.3231  0.6139
18430TIP3    H276706   3.435   0.102   4.566  0.2013  0.4897  1.7765
18431TIP3   OH276707   0.496   5.605  14.966  0.0314 -0.4116 -0.1167
18431TIP3    H176708   0.441   5.656  15.025 -0.3932 -0.5184 -0.4218
18431TIP3    H276709   0.435   5.553  14.914  0.4086 -0.4292 -0.5519
18432TIP3   OH276710   4.945   6.657  12.348  0.1533  0.4705 -0.0580
18432TIP3    H176711   5.040   6.662  12.336  0.1005 -0.6842 -1.0745
18432TIP3    H276712   4.934   6.611  12.431  0.4696  0.4207 -0.0424
18433TIP3   OH276713   5.118   5.029  13.917 -0.1833  0.3002  0.5516
18433TIP3    H176714   5.107   5.120  13.888 -1.2858 -0.3034 -1.0480
18433TIP3    H276715   5.064   5.022  13.995 -0.2379  0.9744  0.5785
18434TIP3   OH276716   3.131   5.852   4.194 -0.0732  0.8370  0.3725
18434TIP3    H176717   3.142   5.910   4.119  1.3124 -0.2368 -0.2671
18434TIP3    H276718   3.215   5.854   4.239  0.0443 -0.8028  0.2488
18435TIP3   OH276719   4.183   5.054   0.121  0.4795 -0.2761  0.4922
18435TIP3    H176720   4.142   5.014   0.045  1.4712 -0.9271  0.2976
18435TIP3    H276721   4.165   5.148   0.111 -0.3135 -0.4755  0.0276
18436TIP3   OH276722   0.974   0.003  17.166  0.1600 -0.3152 -0.1082
18436TIP3    H176723   1.042   0.028  17.228  1.1002 -0.8069 -0.9050
18436TIP3    H276724   0.894  -0.001  17.217  0.7754  0.0862  0.8925
18437TIP3   OH276725   3.826   0.018  12.773  0.3465 -0.3609  0.2875
18437TIP3    H176726   3.902  -0.040  12.779 -0.2586 -1.0427  1.8097
18437TIP3    H276727   3.856   0.092  12.720  0.6519 -2.8226 -3.1871
18438TIP3   OH276728   5.452   6.361  12.072 -0.1406 -0.0893 -0.4333
18438TIP3    H176729   5.438   6.284  12.016  0.4047 -0.1478 -0.4922
18438TIP3    H276730   5.530   6.340  12.123 -2.2296 -1.2298  2.4194
18439TIP3   OH276731   4.922   0.632   0.362 -0.2364  0.3417  0.0036
18439TIP3    H176732   4.960   0.703   0.413 -0.6369  0.3094  0.3488
18439TIP3    H276733   4.850   0.600   0.415  0.6227 -1.0458  0.3542
18440TIP3   OH276734   0.756   6.406  11.219 -0.8527 -0.2770  0.2302
18440TIP3    H176735   0.665   6.417  11.249 -0.3176 -0.8371  2.1538
18440TIP3    H276736   0.762   6.314  11.195 -0.6624 -0.3573  0.5806
18441TIP3   OH276737   6.361   4.251  11.672 -0.2158 -0.4876 -0.1740
18441TIP3    H176738   6.324   4.164  11.658  0.2708 -0.8895  1.0330
18441TIP3    H276739   6.414   4.243  11.751  2.6009  0.0145 -1.9323
18442TIP3   OH276740   5.653   2.650  15.989 -0.1661  0.4730 -0.0048
18442TIP3    H176741   5.560   2.630  15.998 -0.4079  0.7132 -1.8349
18442TIP3    H276742   5.659   2.699  15.907  1.7019 -0.3076 -0.3477
18443TIP3   OH276743   0.038   2.974   0.297  0.1494 -0.0541  0.0523
18443TIP3    H176744   0.054   2.999   0.387 -0.6746  2.5592 -0.4959
18443TIP3    H276745  -0.011   2.892   0.303 -1.7304  1.1694  2.0391
18444TIP3   OH276746   6.330   5.061  15.438  0.3560 -0.1001  0.0521
18444TIP3    H176747   6.371   5.034  15.519 -0.9466 -1.0885  0.3818
18444TIP3    H276748   6.284   5.142  15.460 -2.2133 -1.7665  0.9792
18445TIP3   OH276749   5.664   1.810  15.058  0.2242 -0.5108  0.5871
18445TIP3    H176750   5.669   1.834  15.150 -1.8370  1.0534  0.3244
18445TIP3    H276751   5.571   1.793  15.042  0.4037  0.2462 -1.4336
18446TIP3   OH276752   3.674   0.885   1.354  0.0190 -0.2507 -0.3083
18446TIP3    H176753   3.684   0.801   1.398  1.2697  1.6343  3.2149
18446TIP3    H276754   3.760   0.903   1.317  0.2763  0.3406  0.5749
18447TIP3   OH276755   4.137   0.131  13.606 -1.0938  0.4805 -0.2229
18447TIP3    H176756   4.080   0.168  13.674  0.8879  2.4874  0.3875
18447TIP3    H276757   4.138   0.037  13.625 -2.5766  0.6759  0.9839
18448TIP3   OH276758   1.745   3.383  14.985  1.1726 -0.2801 -0.3090
18448TIP3    H176759   1.669   3.426  14.946  1.4645 -0.0039 -0.5793
18448TIP3    H276760   1.720   3.291  14.994  1.8238 -0.7701 -3.0278
18449TIP3   OH276761   1.744   2.684  12.894 -0.0969  0.0183 -0.1075
18449TIP3    H176762   1.815   2.669  12.831  1.6682 -1.7912  2.2233
18449TIP3    H276763   1.780   2.748  12.955 -0.8898 -0.0964  0.4807
18450TIP3   OH276764   2.458   2.875  13.280  0.3921 -0.5552 -0.4235
18450TIP3    H176765   2.486   2.965  13.296 -0.1539 -0.6532  1.1677
18450TIP3    H276766   2.536   2.832  13.245  1.1464  0.1167  0.4059
18451TIP3   OH276767   6.483   1.695   3.513  0.3156  0.4358  0.2845
18451TIP3    H176768   6.460   1.711   3.422  0.3413 -2.6989 -0.3141
18451TIP3    H276769   6.577   1.715   3.518 -0.2301  3.1565  0.2854
18452TIP3   OH276770   2.256   2.354  12.422  0.0146 -0.0760  0.2517
18452TIP3    H176771   2.239   2.349  12.517 -0.5930  0.0239  0.1542
18452TIP3    H276772   2.342   2.393  12.415  0.7159 -1.4688  0.8024
18453TIP3   OH276773   0.255   2.042   2.702 -0.4384 -0.7670 -0.4016
18453TIP3    H176774   0.300   2.123   2.678 -0.0547 -0.1746  2.1737
18453TIP3    H276775   0.171   2.071   2.739 -0.9239 -1.6209 -0.8274
18454TIP3   OH276776   0.934   3.800   4.895 -0.1918 -0.0099  0.0871
18454TIP3    H176777   0.842   3.821   4.885 -0.0080  1.3680  1.2094
18454TIP3    H276778   0.946   3.785   4.989  0.6943 -0.3191 -0.0639
18455TIP3   OH276779   0.343   0.346  16.956  0.1605 -0.5710 -1.0024
18455TIP3    H176780   0.321   0.426  17.005 -0.0062 -0.2283 -1.6217
18455TIP3    H276781   0.434   0.358  16.930  0.5235 -1.1594 -0.0105
18456TIP3   OH276782   2.451   3.077   5.617  0.0717  0.0372  0.5346
18456TIP3    H176783   2.493   3.096   5.534 -0.4225  1.5861  0.6282
18456TIP3    H276784   2.369   3.034   5.594 -0.7612  1.7963  0.1461
18457TIP3   OH276785   1.612   3.127  11.822 -0.4262  0.5157  0.4026
18457TIP3    H176786   1.521   3.106  11.801 -0.2112 -0.8804  0.8487
18457TIP3    H276787   1.658   3.044  11.819  0.7903  1.1715  0.4715
18458TIP3   OH276788   0.496   3.428  11.575  1.0348 -0.4402  0.0342
18458TIP3    H176789   0.543   3.449  11.656  2.2390 -0.2432 -0.6901
18458TIP3    H276790   0.506   3.333  11.567 -0.7353 -0.7304  1.0994
18459TIP3   OH276791   2.102   3.030   1.141  0.2563 -0.0251  0.2499
18459TIP3    H176792   2.049   3.014   1.219  0.9173  0.7329  0.8751
18459TIP3    H276793   2.047   3.083   1.085 -0.1160 -0.3251  0.3247
18460TIP3   OH276794   2.506   2.787   3.018  0.1367  0.2198 -0.3520
18460TIP3    H176795   2.440   2.724   2.991  1.9452 -1.3129 -1.3735
18460TIP3    H276796   2.531   2.832   2.938  1.3188 -0.2112 -0.2395
18461TIP3   OH276797   0.988   3.062   4.381 -0.0464 -0.2479 -0.1323
18461TIP3    H176798   1.002   3.155   4.361 -0.7030 -0.2447 -0.5849
18461TIP3    H276799   1.021   3.052   4.470 -1.1421  0.7015  0.3974
18462TIP3   OH276800   6.549   0.410  14.449  0.3181  0.9052  0.1853
18462TIP3    H176801   6.586   0.377  14.531  1.7035  0.0207 -0.7709
18462TIP3    H276802   6.581   0.349  14.382 -0.7451  1.6519 -1.0301
18463TIP3   OH276803   3.915   5.493  17.019  0.4444 -0.0050  0.2643
18463TIP3    H176804   3.902   5.483  16.925 -1.9580 -1.7925  0.7494
18463TIP3    H276805   3.923   5.588  17.033  0.5197  0.2804 -1.6805
18464TIP3   OH276806   2.562   3.119   2.577 -0.7541 -0.1683 -0.1375
18464TIP3    H176807   2.646   3.087   2.544  0.1729 -0.9219  2.8243
18464TIP3    H276808   2.585   3.198   2.626 -2.0194  0.6236 -0.8155
18465TIP3   OH276809   3.458   4.837  16.181 -0.2040 -0.7061 -0.1408
18465TIP3    H176810   3.417   4.777  16.119  0.1226 -1.6290  0.5164
18465TIP3    H276811   3.518   4.781  16.232 -1.5965 -0.2824  2.0398
18466TIP3   OH276812   3.798   4.701  17.114 -0.0427 -0.4119  0.0182
18466TIP3    H176813   3.804   4.620  17.164  0.1118 -0.2544  0.2538
18466TIP3    H276814   3.884   4.711  17.074 -0.0709 -0.3805 -0.0362
18467TIP3   OH276815   0.235   6.063  16.650 -0.7122  0.4776 -0.5479
18467TIP3    H176816   0.143   6.046  16.629 -0.9118  1.2392 -0.2904
18467TIP3    H276817   0.263   6.126  16.584 -0.3589  0.2202 -0.6453
18468TIP3   OH276818   5.387   4.045  15.598 -0.8893 -0.7299 -0.1480
18468TIP3    H176819   5.468   4.048  15.648 -0.7566 -1.6156 -0.2933
18468TIP3    H276820   5.346   3.962  15.622 -1.4177 -0.6063 -0.5901
18469TIP3   OH276821   2.455   4.231   1.207  0.2417  0.3663  0.4235
18469TIP3    H176822   2.507   4.307   1.179  1.1723 -0.5594 -0.4120
18469TIP3    H276823   2.474   4.223   1.301 -0.5411  1.6838  0.7066
18470TIP3   OH276824   6.566   0.553   4.503  0.2072  0.1252 -0.5090
18470TIP3    H176825   6.651   0.532   4.542  0.0989 -0.8695 -0.8035
18470TIP3    H276826   6.582   0.556   4.409 -0.0288  0.2152 -0.5485
18471TIP3   OH276827   6.188   0.193  12.700  0.2717 -0.3203  0.1867
18471TIP3    H176828   6.186   0.272  12.645  1.9255  0.3685  1.1072
18471TIP3    H276829   6.133   0.215  12.775  0.1385 -0.3166  0.0894
18472TIP3   OH276830   1.252   2.964   5.251 -0.6327 -0.4749  0.8248
18472TIP3    H176831   1.338   3.000   5.274 -0.6549  0.5974 -0.6520
18472TIP3    H276832   1.225   3.014   5.173 -2.5635 -0.8396  1.2254
18473TIP3   OH276833   4.780   0.170   0.949  0.2108  0.2853  0.1480
18473TIP3    H176834   4.735   0.248   0.981  1.0763  0.9673 -0.2652
18473TIP3    H276835   4.873   0.187   0.966  0.2811 -1.3726  1.5599
18474TIP3   OH276836   1.822   0.951   3.093  0.2825  0.4842 -0.1473
18474TIP3    H176837   1.838   0.903   3.011  1.8603  1.6872 -0.5813
18474TIP3    H276838   1.889   1.020   3.093  0.4944  0.3155  2.3165
18475TIP3   OH276839   2.938   4.953   3.992 -0.1597  0.1535  0.4236
18475TIP3    H176840   2.945   4.860   4.016 -1.8206  0.1864  1.1263
18475TIP3    H276841   2.908   4.996   4.073  2.9782  1.7121  0.8231
18476TIP3   OH276842   2.159   2.979   3.690  0.2391 -0.8781 -0.5314
18476TIP3    H176843   2.176   2.951   3.600 -0.3492 -3.0293 -0.0182
18476TIP3    H276844   2.125   3.067   3.682 -0.6667 -1.3791 -2.4929
18477TIP3   OH276845   3.044   6.059  13.046 -0.9481  0.0149 -0.0887
18477TIP3    H176846   2.955   6.029  13.028 -1.1319 -1.3082  2.7919
18477TIP3    H276847   3.075   6.001  13.115  2.0400  0.6998 -0.7922
18478TIP3   OH276848   1.997   3.954  16.180 -0.2335  0.4287  0.1188
18478TIP3    H176849   2.076   3.901  16.177 -1.0896 -0.9162  0.9362
18478TIP3    H276850   2.010   4.022  16.113  1.4226 -0.0193 -0.0120
18479TIP3   OH276851   4.892   0.622   2.660  0.1307  0.4296  0.1604
18479TIP3    H176852   4.935   0.707   2.648 -0.0729  0.4135 -0.6709
18479TIP3    H276853   4.964   0.560   2.669  0.2841  0.5497 -0.2198
18480TIP3   OH276854   3.552   3.939  10.913 -0.4623  0.5617  0.5264
18480TIP3    H176855   3.597   3.887  10.847 -1.4262  2.1817 -1.4738
18480TIP3    H276856   3.531   3.877  10.983  0.1856 -1.2904 -0.8884
18481TIP3   OH276857   5.874   2.142   4.580  0.7226 -0.5926 -0.0924
18481TIP3    H176858   5.787   2.131   4.542  0.4557  0.2308  0.2768
18481TIP3    H276859   5.915   2.056   4.571  0.2946 -0.6764 -1.3292
18482TIP3   OH276860   0.977   2.987  12.846  0.1892  0.0114 -0.8714
18482TIP3    H176861   0.931   3.070  12.840  0.0822  0.0974  0.8665
18482TIP3    H276862   0.981   2.955  12.756  1.1298  2.3685 -1.7044
18483TIP3   OH276863   0.007   1.975  15.583  0.5527  0.4326 -0.0074
18483TIP3    H176864   0.012   2.065  15.616  1.5750  0.9804 -1.5714
18483TIP3    H276865   0.054   1.922  15.647 -1.6332  0.7284  1.8671
18484TIP3   OH276866   6.345   0.211  13.807 -0.6322  0.5288 -1.1895
18484TIP3    H176867   6.415   0.239  13.748  1.8306 -0.9292  0.9509
18484TIP3    H276868   6.349   0.115  13.804 -0.0225  0.4291  1.8332
18485TIP3   OH276869   6.622   2.245  13.617  0.5722 -0.2860  0.4076
18485TIP3    H176870   6.664   2.325  13.585 -1.0416 -0.3564 -2.0685
18485TIP3    H276871   6.574   2.272  13.695  0.3835  1.0930 -0.1749
18486TIP3   OH276872   0.835   0.314  12.499 -0.6147 -0.2335 -0.4615
18486TIP3    H176873   0.911   0.351  12.545 -0.0580 -2.4768  0.5313
18486TIP3    H276874   0.780   0.389  12.478  0.8821  1.2180  0.6868
18487TIP3   OH276875   5.258   3.283   5.680 -0.0360  0.2787 -0.1215
18487TIP3    H176876   5.309   3.341   5.623 -0.0208 -2.1087 -2.6733
18487TIP3    H276877   5.167   3.303   5.659 -0.0800  1.0025  0.7311
18488TIP3   OH276878   5.474   1.338  13.454  0.3028 -0.3160  0.7061
18488TIP3    H176879   5.556   1.353  13.502  1.0054 -1.6035 -0.0688
18488TIP3    H276880   5.405   1.362  13.516  1.2790  2.7249  0.7096
18489TIP3   OH276881   3.781   5.160  11.475 -0.0262 -0.1372 -0.1577
18489TIP3    H176882   3.740   5.131  11.557 -1.1818  0.9268 -0.3551
18489TIP3    H276883   3.867   5.193  11.502 -0.4351  0.2934  0.6415
18490TIP3   OH276884   0.975   3.087   5.063 -0.3351 -0.0490  0.5875
18490TIP3    H176885   0.912   3.142   5.110 -0.8156  1.0162 -1.2713
18490TIP3    H276886   1.044   3.148   5.035 -1.5830 -0.0624 -2.7349
18491TIP3   OH276887   6.301   0.623  10.484  1.0123  0.0319 -0.0391
18491TIP3    H176888   6.305   0.528  10.475  1.2363  0.0916 -0.5905
18491TIP3    H276889   6.386   0.654  10.455  0.4947  0.4920 -1.0996
18492TIP3   OH276890   3.768   3.254   3.145  0.2799  0.1031 -0.3136
18492TIP3    H176891   3.691   3.307   3.121 -0.8707  0.3024  3.3935
18492TIP3    H276892   3.742   3.164   3.127  0.2127  0.3787 -1.6192
18493TIP3   OH276893   6.731   0.777   2.879 -0.0206 -0.1333  0.3644
18493TIP3    H176894   6.749   0.690   2.912 -2.3394 -0.7624  0.0612
18493TIP3    H276895   6.687   0.822   2.951  1.9264  1.1162  0.8303
18494TIP3   OH276896   2.204   6.557  13.616 -0.3202  0.1022 -0.0593
18494TIP3    H176897   2.252   6.496  13.560  1.0222 -0.2270  1.4072
18494TIP3    H276898   2.121   6.513  13.633  0.2296 -0.8856  0.1429
18495TIP3   OH276899   0.734   1.867  14.646 -0.1337  0.5401 -0.0733
18495TIP3    H176900   0.815   1.830  14.683 -0.3708  0.2331  0.1422
18495TIP3    H276901   0.665   1.833  14.703 -0.4183  0.7578 -0.2920
18496TIP3   OH276902   1.369   3.665  14.892 -0.4650 -0.0176 -0.0663
18496TIP3    H176903   1.438   3.674  14.958 -0.3404 -0.1512 -0.1778
18496TIP3    H276904   1.312   3.596  14.926  0.1563 -0.7910 -0.5824
18497TIP3   OH276905   3.182   3.823  15.559  0.5681  0.7234  0.1228
18497TIP3    H176906   3.277   3.828  15.572  0.5950  1.7664 -0.4170
18497TIP3    H276907   3.171   3.760  15.488  0.8509  0.5269  0.2504
18498TIP3   OH276908   2.433   4.635   6.030 -0.2569 -0.2568  0.0051
18498TIP3    H176909   2.460   4.568   6.092  0.9406  1.0088  0.8987
18498TIP3    H276910   2.337   4.637   6.037 -0.3856 -2.5719 -0.8213
18499TIP3   OH276911   1.616   4.542  17.084  1.2506 -0.4702  0.1405
18499TIP3    H176912   1.601   4.630  17.119 -1.0247 -0.0891 -1.6923
18499TIP3    H276913   1.662   4.556  17.002 -0.1699 -0.8860 -0.7500
18500TIP3   OH276914   3.332   0.902  11.402  0.1863 -0.5098 -0.3583
18500TIP3    H176915   3.283   0.821  11.409  0.5561 -0.7036  0.0480
18500TIP3    H276916   3.348   0.928  11.493  2.0098 -1.1725 -0.4687
18501TIP3   OH276917   4.789   6.200   3.077  0.1149 -0.0588 -0.1455
18501TIP3    H176918   4.814   6.208   3.169 -0.4051  1.2339 -0.1090
18501TIP3    H276919   4.753   6.111   3.069  1.6808 -0.7700  0.5139
18502TIP3   OH276920   1.082   3.454  12.932  0.9436  0.1486  0.1518
18502TIP3    H176921   1.036   3.480  13.012  0.1009  1.2582 -0.6791
18502TIP3    H276922   1.094   3.359  12.942 -2.1898 -0.3343  0.0874
18503TIP3   OH276923   3.131   6.394  13.681  0.3303 -0.4932 -0.3646
18503TIP3    H176924   3.060   6.426  13.625  0.3831  0.7630  0.2873
18503TIP3    H276925   3.089   6.377  13.765  0.5098 -1.2066 -0.4131
18504TIP3   OH276926   4.394   5.003   0.319  0.8592  0.2581  0.7365
18504TIP3    H176927   4.324   4.998   0.253  1.3254 -0.5768  0.2911
18504TIP3    H276928   4.351   4.982   0.401  0.1902  1.6896  0.7628
18505TIP3   OH276929   3.563   4.940   3.520 -0.1232  0.6185  0.6086
18505TIP3    H176930   3.576   4.992   3.441  0.8626 -0.2945  0.1459
18505TIP3    H276931   3.620   4.981   3.586 -1.3446  1.6947  1.0018
18506TIP3   OH276932   6.578   3.100   2.772  0.0136 -0.3257  0.3589
18506TIP3    H176933   6.604   3.008   2.768  1.1363  0.0356 -1.1970
18506TIP3    H276934   6.506   3.102   2.835  0.1443 -2.2205  0.5974
18507TIP3   OH276935   2.996   3.765   4.632  0.3545  0.2470 -0.1992
18507TIP3    H176936   3.052   3.737   4.705  1.4015 -2.9102 -2.1342
18507TIP3    H276937   2.908   3.734   4.656  0.8981 -1.7877 -0.7596
18508TIP3   OH276938   5.715   0.527   1.134 -0.0274  0.5185  0.1985
18508TIP3    H176939   5.672   0.491   1.212  0.4506  1.2188  0.7985
18508TIP3    H276940   5.659   0.501   1.061 -0.6253  0.0831  0.8093
18509TIP3   OH276941   0.272   5.421  16.300 -0.1460  0.1991  0.3028
18509TIP3    H176942   0.193   5.456  16.341 -0.5239  0.3948 -0.5808
18509TIP3    H276943   0.268   5.327  16.316 -0.0789  0.3298  1.0787
18510TIP3   OH276944   0.373   5.769  13.383  0.1493  0.1263 -0.6507
18510TIP3    H176945   0.426   5.793  13.307  0.3480  0.0511 -0.5359
18510TIP3    H276946   0.375   5.673  13.384 -0.0753  0.1207 -0.7085
18511TIP3   OH276947   3.781   5.610  12.893 -0.0052  0.0506  0.5171
18511TIP3    H176948   3.743   5.523  12.882  0.0836 -0.1052  1.4139
18511TIP3    H276949   3.762   5.633  12.984 -1.8404  1.8377 -0.2794
18512TIP3   OH276950   5.407   2.953  16.000  0.3059  0.0617  0.1801
18512TIP3    H176951   5.467   2.884  16.030  1.9985  1.4762  0.1546
18512TIP3    H276952   5.464   3.018  15.959 -1.3068  1.2720 -0.1936
18513TIP3   OH276953   3.314   6.677   5.795 -0.6102  0.1080  0.0713
18513TIP3    H176954   3.230   6.635   5.776  0.0170 -0.7049 -0.9259
18513TIP3    H276955   3.326   6.739   5.724 -0.4811  0.4023  0.3508
18514TIP3   OH276956   5.691   2.692  11.893 -0.2722  0.5652 -0.0906
18514TIP3    H176957   5.775   2.651  11.871 -0.4510 -0.3931  0.9890
18514TIP3    H276958   5.652   2.713  11.808  0.3877 -0.3498 -0.6325
18515TIP3   OH276959   4.440   3.657   2.322  0.1747 -0.3055 -0.6209
18515TIP3    H176960   4.435   3.563   2.338 -1.9024  0.2312  2.2138
18515TIP3    H276961   4.527   3.682   2.352  0.4210 -1.1749 -0.5829
18516TIP3   OH276962   0.648   3.619   4.689 -0.8603 -0.0392 -0.4839
18516TIP3    H176963   0.677   3.577   4.608  2.3179 -1.9881  1.5469
18516TIP3    H276964   0.585   3.559   4.727 -1.3864  0.2579 -0.8892
18517TIP3   OH276965   0.673   5.438  13.428 -0.6010  0.4925 -0.1928
18517TIP3    H176966   0.735   5.366  13.438 -1.7289 -0.3751  0.6726
18517TIP3    H276967   0.587   5.395  13.420 -1.2061  1.7066 -0.3596
18518TIP3   OH276968   0.089   0.139  15.347 -0.4754  0.3368 -0.2143
18518TIP3    H176969   0.025   0.146  15.277  0.7838 -0.0080 -1.4130
18518TIP3    H276970   0.174   0.142  15.303  0.3188 -1.0845  1.1706
18519TIP3   OH276971   4.654   5.049   4.833 -1.0234 -0.0069  0.1932
18519TIP3    H176972   4.589   5.118   4.843  0.4414  1.3866  0.4369
18519TIP3    H276973   4.675   5.049   4.740 -1.7212 -0.7993  0.0283
18520TIP3   OH276974   0.869   5.544   1.549 -0.0142  0.3405 -0.7187
18520TIP3    H176975   0.825   5.595   1.617 -2.2195  0.9963 -2.5575
18520TIP3    H276976   0.943   5.599   1.522 -1.4903  1.9496 -1.6145
18521TIP3   OH276977   1.952   5.902   3.078 -0.1177  0.1781 -0.0569
18521TIP3    H176978   2.016   5.967   3.106 -1.3902  1.4526 -0.0906
18521TIP3    H276979   1.936   5.921   2.986 -0.6691 -0.0314 -0.0105
18522TIP3   OH276980   4.058   3.784   5.256 -0.7196  0.0709 -0.1208
18522TIP3    H176981   4.094   3.873   5.261  0.4134 -0.3169 -1.3213
18522TIP3    H276982   3.963   3.797   5.266 -0.5790  1.4272 -0.4109
18523TIP3   OH276983   3.640   1.471   1.578 -0.0143 -0.6034  0.2759
18523TIP3    H176984   3.665   1.421   1.656  0.3672 -1.3170 -0.2983
18523TIP3    H276985   3.631   1.405   1.509  0.0491  0.0674 -0.3807
18524TIP3   OH276986   2.780   5.823   5.675 -0.5302 -0.0449 -0.1661
18524TIP3    H176987   2.747   5.911   5.691  1.3715  0.8271 -0.8953
18524TIP3    H276988   2.758   5.804   5.584  1.0365  0.6042 -0.7060
18525TIP3   OH276989   4.708   1.229  10.992 -0.2192  0.3483 -0.2872
18525TIP3    H176990   4.757   1.310  10.975 -0.8068  0.3377 -2.1263
18525TIP3    H276991   4.768   1.159  10.968 -0.5461  0.3063 -1.0166
18526TIP3   OH276992   2.610   4.919  11.537  0.0155  0.1196 -0.3381
18526TIP3    H176993   2.515   4.906  11.538  0.1339 -0.7773  0.6635
18526TIP3    H276994   2.632   4.936  11.629  0.8280  0.2970 -0.5676
18527TIP3   OH276995   1.197   3.503  13.811  0.3434  0.1550  0.1110
18527TIP3    H176996   1.292   3.501  13.799  0.9715  1.1825  4.0268
18527TIP3    H276997   1.176   3.418  13.850 -0.2011  0.2251 -0.0280
18528TIP3   OH276998   5.759   4.679  14.956 -0.2010  0.0960  0.3819
18528TIP3    H176999   5.759   4.774  14.946  0.2753  0.2365  1.5557
18528TIP3    H277000   5.687   4.649  14.902 -0.8407  1.2041  0.5956
18529TIP3   OH277001   1.100   1.783   3.489 -0.7399 -0.2017 -0.2885
18529TIP3    H177002   1.194   1.796   3.492 -0.3462 -2.9695  0.5120
18529TIP3    H277003   1.064   1.850   3.548  0.4966  2.3611 -2.3679
18530TIP3   OH277004   4.832   5.599  13.071 -0.1292  0.2153  0.1502
18530TIP3    H177005   4.837   5.536  13.000 -0.7727  1.5464 -1.1048
18530TIP3    H277006   4.752   5.649  13.055  0.4597  1.4795  0.9938
18531TIP3   OH277007   5.224   3.282   2.004  0.0256  0.1668 -0.6742
18531TIP3    H177008   5.190   3.207   1.955 -0.5469  0.5784 -0.8944
18531TIP3    H277009   5.152   3.309   2.061  0.8022 -0.5417  0.6696
18532TIP3   OH277010   3.530   0.030  13.819 -0.3942  0.6142 -0.1554
18532TIP3    H177011   3.571  -0.004  13.898 -0.2223  0.1475 -0.4415
18532TIP3    H277012   3.600   0.029  13.753 -0.9114 -0.4144 -0.7134
18533TIP3   OH277013   4.595   2.840  14.410  0.4029  0.5117  0.0366
18533TIP3    H177014   4.630   2.841  14.320  0.1292 -0.8144 -0.0957
18533TIP3    H277015   4.516   2.786  14.404  0.8842 -0.3491  1.2542
18534TIP3   OH277016   1.634   1.863  15.553  0.0538 -0.0058 -0.4506
18534TIP3    H177017   1.725   1.856  15.522  0.3618 -1.1456  0.6855
18534TIP3    H277018   1.623   1.957  15.572  0.9139  0.1807 -0.8320
18535TIP3   OH277019   2.962   6.273   2.698 -0.3284  0.1908 -1.1395
18535TIP3    H177020   3.006   6.189   2.716 -2.1876 -0.8916 -1.5804
18535TIP3    H277021   2.873   6.261   2.728 -0.9041  1.6640 -2.1813
18536TIP3   OH277022   0.538   2.903  16.020  0.2098 -0.5899  0.5238
18536TIP3    H177023   0.454   2.936  16.051 -0.3674 -2.1447  0.6479
18536TIP3    H277024   0.531   2.807  16.027  2.0722 -0.7311  0.7753
18537TIP3   OH277025   5.151   0.705   3.582 -0.2120 -0.0926  0.9443
18537TIP3    H177026   5.211   0.777   3.602  2.0626 -1.7611  0.3265
18537TIP3    H277027   5.128   0.668   3.667  0.2277  0.0935  1.1474
18538TIP3   OH277028   4.587   4.436   2.429  0.2197 -0.9094 -0.3063
18538TIP3    H177029   4.536   4.407   2.505  2.3740 -0.9371  1.2043
18538TIP3    H277030   4.662   4.377   2.428  1.1690  0.2929 -1.3289
18539TIP3   OH277031   6.322   3.348   0.404  0.0765  0.1217 -0.1493
18539TIP3    H177032   6.403   3.375   0.360  0.2904 -0.4318 -0.1010
18539TIP3    H277033   6.307   3.258   0.374 -1.4178  0.7729 -1.4499
18540TIP3   OH277034   4.913   2.949  15.821 -0.1414 -0.4174 -0.3968
18540TIP3    H177035   4.914   2.896  15.901  1.5838  0.3637  0.1172
18540TIP3    H277036   4.859   2.899  15.760 -2.0858 -0.6781  1.4696
18541TIP3   OH277037   2.752   1.435   6.464  0.3474  0.4724 -0.2666
18541TIP3    H177038   2.781   1.482   6.542 -1.4436  0.7192  0.2661
18541TIP3    H277039   2.730   1.347   6.496 -0.3898  0.5741 -0.4765
18542TIP3   OH277040   4.898   3.547   1.701  0.2972 -0.1432 -0.3853
18542TIP3    H177041   4.850   3.501   1.769 -1.1289 -0.3874 -1.5319
18542TIP3    H277042   4.971   3.589   1.747 -0.3816 -0.6708  1.2040
18543TIP3   OH277043   2.674   1.958   5.347  0.5100  0.0891 -0.5962
18543TIP3    H177044   2.585   1.927   5.366 -0.0595  1.2111 -1.3744
18543TIP3    H277045   2.731   1.896   5.393 -0.5397 -2.8577 -3.1062
18544TIP3   OH277046   2.980   5.311   3.582  0.4648  0.6152 -0.1152
18544TIP3    H177047   2.945   5.271   3.662 -2.6525 -0.2465 -1.8466
18544TIP3    H277048   3.051   5.253   3.556 -1.8407 -2.0062 -0.7498
18545TIP3   OH277049   4.831   3.525  11.614 -0.0050 -0.1316 -0.9359
18545TIP3    H177050   4.809   3.557  11.526 -0.8966  1.6533 -0.1068
18545TIP3    H277051   4.910   3.573  11.638  0.4648 -0.9118 -0.9126
18546TIP3   OH277052   6.659   0.532  13.850 -0.2936 -0.3248 -0.2742
18546TIP3    H177053   6.704   0.535  13.934  0.8369 -0.6365 -0.8596
18546TIP3    H277054   6.599   0.607  13.852 -0.0486 -0.1511  0.6800
18547TIP3   OH277055   5.024   3.865   5.324 -0.5230 -0.3203 -0.6268
18547TIP3    H177056   4.969   3.825   5.391 -0.6533  0.4135 -0.2910
18547TIP3    H277057   5.018   3.959   5.341  1.8555 -0.2912  0.2144
18548TIP3   OH277058   4.809   2.166  12.128 -0.4591 -0.0561  0.4359
18548TIP3    H177059   4.838   2.256  12.112  0.6107 -0.4522  0.1409
18548TIP3    H277060   4.889   2.119  12.152 -1.1596 -0.7210  1.5057
18549TIP3   OH277061   6.106   6.773  13.618 -0.1313 -0.6439  0.6062
18549TIP3    H177062   6.199   6.749  13.619 -0.0995 -0.5163  0.7497
18549TIP3    H277063   6.101   6.846  13.556  0.0826  0.2202  1.5858
18550TIP3   OH277064   3.435   2.454  14.625  0.2210 -0.1584 -0.4170
18550TIP3    H177065   3.469   2.533  14.584 -1.6576  1.1884  0.5419
18550TIP3    H277066   3.340   2.465  14.623 -0.0157 -1.6196  1.2423
18551TIP3   OH277067   1.208   0.448   5.592 -0.3705 -0.3736  0.3234
18551TIP3    H177068   1.155   0.393   5.536  0.5596 -2.8101  1.7285
18551TIP3    H277069   1.196   0.412   5.680  1.3924  0.7528  1.0747
18552TIP3   OH277070   0.942   4.264  14.984  0.1943  0.1744 -0.3545
18552TIP3    H177071   0.990   4.229  14.910  1.5493  0.5593  0.3355
18552TIP3    H277072   0.883   4.330  14.946  0.3676 -0.1412 -1.1676
18553TIP3   OH277073   1.628   3.983   5.583  0.2931  0.3991 -0.1371
18553TIP3    H177074   1.575   4.022   5.513 -0.6200 -1.8713 -0.7834
18553TIP3    H277075   1.718   3.993   5.552 -0.0617 -0.0221 -1.3636
18554TIP3   OH277076   2.229   5.370   3.334 -0.1406 -0.0085  0.7204
18554TIP3    H177077   2.268   5.286   3.358 -0.5062 -0.6265 -0.7687
18554TIP3    H277078   2.187   5.353   3.249  1.9167  2.3145 -0.8507
18555TIP3   OH277079   4.484   0.856   2.919  0.1293 -0.6468  0.5316
18555TIP3    H177080   4.393   0.830   2.935 -0.1432 -0.1521 -0.1646
18555TIP3    H277081   4.513   0.798   2.848  0.2241 -0.5348  0.4787
18556TIP3   OH277082   6.012   4.179  16.738 -0.1917  0.4510  0.3409
18556TIP3    H177083   6.029   4.273  16.728 -0.9960  0.3032 -2.9729
18556TIP3    H277084   5.919   4.168  16.717  0.1077 -1.2062 -0.2242
18557TIP3   OH277085   6.478   3.231   1.726 -0.4625  0.1625  0.2016
18557TIP3    H177086   6.558   3.194   1.691  1.7353  2.6876  2.3718
18557TIP3    H277087   6.456   3.174   1.800 -1.7022 -1.5445 -1.4260
18558TIP3   OH277088   2.392   4.239  13.757  0.4539 -0.7998 -0.3453
18558TIP3    H177089   2.397   4.334  13.746 -2.5179 -0.7689 -1.9004
18558TIP3    H277090   2.450   4.221  13.831 -1.5329  2.6027  2.2020
18559TIP3   OH277091   0.535   1.332   3.056 -0.1636 -0.0885 -0.0311
18559TIP3    H177092   0.494   1.418   3.049 -1.2001 -0.4251  1.6972
18559TIP3    H277093   0.535   1.298   2.967 -0.9891  1.1252 -0.5014
18560TIP3   OH277094   1.361   6.217   0.927 -0.1189 -0.2244  0.1816
18560TIP3    H177095   1.368   6.221   1.023  0.6211 -2.4256  0.2318
18560TIP3    H277096   1.449   6.193   0.898 -0.2350  0.8443 -1.1057
18561TIP3   OH277097   5.710   1.931  15.647 -0.3250 -0.3251  0.2482
18561TIP3    H177098   5.743   1.981  15.573 -1.7379 -1.7747 -1.3880
18561TIP3    H277099   5.674   1.997  15.707 -0.6536  0.7320 -1.1026
18562TIP3   OH277100   0.892   0.325  16.749  0.7387 -0.2162 -0.2690
18562TIP3    H177101   0.953   0.392  16.717  1.0003 -0.3765 -0.1130
18562TIP3    H277102   0.930   0.295  16.832  0.7506 -0.7231 -0.4526
18563TIP3   OH277103   3.485   5.353   4.713  0.0125 -0.1835 -0.1439
18563TIP3    H177104   3.400   5.311   4.708  0.5711 -1.2446 -1.3235
18563TIP3    H277105   3.466   5.447   4.712 -1.1060 -0.4054 -1.2698
18564TIP3   OH277106   6.764   3.861  16.662  0.6937 -0.4485 -0.2832
18564TIP3    H177107   6.748   3.897  16.574  2.8258 -0.6066 -0.7665
18564TIP3    H277108   6.682   3.816  16.685 -0.2038  0.3540 -1.8067
18565TIP3   OH277109   6.698   3.724   4.213 -0.3122  0.7855  0.3587
18565TIP3    H177110   6.613   3.730   4.169 -0.3731 -0.8751  0.2143
18565TIP3    H277111   6.746   3.659   4.162  0.1276 -0.1251  1.9081
18566TIP3   OH277112   5.435   1.320  14.000  0.5558 -0.0926  0.1281
18566TIP3    H177113   5.454   1.406  13.963 -0.5637  0.4303  0.7488
18566TIP3    H277114   5.399   1.338  14.087  3.4528 -1.3053  1.6723
18567TIP3   OH277115   6.417   5.222  14.434 -0.2286 -0.0624  0.2249
18567TIP3    H177116   6.405   5.311  14.400 -0.4963 -1.3895 -3.3151
18567TIP3    H277117   6.328   5.186  14.438 -0.0293 -0.5091  0.7470
18568TIP3   OH277118   6.719   2.901   5.138 -0.0595 -0.3015 -0.0637
18568TIP3    H177119   6.647   2.939   5.088  1.5049  2.8787  0.0038
18568TIP3    H277120   6.677   2.867   5.218 -1.5187  1.2862 -0.1265
18569TIP3   OH277121   1.440   6.753  15.113 -0.6457 -0.4945 -0.0324
18569TIP3    H177122   1.363   6.806  15.134  0.1266  1.6753 -2.4088
18569TIP3    H277123   1.505   6.778  15.178 -1.0833 -0.3504  0.3537
18570TIP3   OH277124   1.372   4.531   4.903  0.6530 -0.0905 -0.4829
18570TIP3    H177125   1.443   4.595   4.911 -1.0094  1.5729  1.5180
18570TIP3    H277126   1.390   4.468   4.973 -1.0792  1.6286  1.5721
18571TIP3   OH277127   4.598   1.554   0.509 -0.3101  1.2025  0.1866
18571TIP3    H177128   4.539   1.566   0.434 -0.0579  0.2633 -0.1819
18571TIP3    H277129   4.542   1.564   0.586 -1.1224 -0.4273 -0.1646
18572TIP3   OH277130   4.404   0.933   1.974 -0.0882 -0.3845 -0.0309
18572TIP3    H177131   4.395   1.017   2.019  0.7738  0.8136 -2.0065
18572TIP3    H277132   4.489   0.899   2.002 -0.4502 -0.6174  0.7907
18573TIP3   OH277133   0.149   5.557  12.791  0.0095 -0.6672 -0.0945
18573TIP3    H177134   0.073   5.504  12.767 -0.8673  0.2045  0.6990
18573TIP3    H277135   0.113   5.629  12.844  1.5846 -1.2235  1.7998
18574TIP3   OH277136   6.286   4.902   6.280  0.1640  0.0157 -0.0747
18574TIP3    H177137   6.284   4.859   6.195  1.2021 -0.1026 -0.0421
18574TIP3    H277138   6.243   4.839   6.339  0.0128 -0.1771 -0.3930
18575TIP3   OH277139   0.686   3.650  14.753  0.0128 -0.1135 -0.5428
18575TIP3    H177140   0.759   3.692  14.708 -0.5561  0.7394 -0.6768
18575TIP3    H277141   0.703   3.665  14.846 -0.3808  0.7694 -0.6002
18576TIP3   OH277142   5.899   5.901   1.387 -0.1448  0.3039 -0.3585
18576TIP3    H177143   5.886   5.981   1.438 -0.9224 -0.3860  0.5264
18576TIP3    H277144   5.811   5.874   1.362  0.0097 -1.1642  0.6930
18577TIP3   OH277145   1.657   2.145   3.581 -0.1706 -0.6807  0.0558
18577TIP3    H177146   1.663   2.134   3.676  0.5784  1.7668  0.3063
18577TIP3    H277147   1.581   2.202   3.568  0.1519 -0.4376 -0.7760
18578TIP3   OH277148   5.257   3.044  16.659 -0.7408 -0.0707 -0.0206
18578TIP3    H177149   5.193   2.974  16.673 -0.3856 -1.3047 -4.0154
18578TIP3    H277150   5.284   3.034  16.568  3.6730  1.7043  0.9890
18579TIP3   OH277151   3.510   4.650   3.460  0.0446  0.5023  0.2002
18579TIP3    H177152   3.501   4.605   3.544 -1.2695  0.9505  0.3151
18579TIP3    H277153   3.560   4.729   3.480 -0.0817  0.5011  0.5215
18580TIP3   OH277154   5.423   4.201  13.932 -0.6667  0.1242  0.7108
18580TIP3    H177155   5.338   4.246  13.930 -1.9965 -2.2853  1.3208
18580TIP3    H277156   5.465   4.231  14.013 -0.9655  1.2557  0.4506
18581TIP3   OH277157   6.483   4.874  13.646 -0.3312  0.1500 -0.0644
18581TIP3    H177158   6.393   4.893  13.672  0.0022  0.4052  0.9211
18581TIP3    H277159   6.509   4.951  13.595 -1.1242 -0.5350 -1.5452
18582TIP3   OH277160   4.941   3.397   5.489 -0.1156 -0.1832 -0.5670
18582TIP3    H177161   4.901   3.318   5.453 -1.1043 -0.1071  0.3348
18582TIP3    H277162   4.881   3.425   5.559  0.6041  0.9397 -0.3794
18583TIP3   OH277163   0.098   2.666  14.363  0.5662  0.5598  0.0976
18583TIP3    H177164   0.084   2.747  14.313 -0.9597  0.4586  0.3103
18583TIP3    H277165   0.147   2.609  14.304 -0.2680  0.8397 -0.8923
18584TIP3   OH277166   1.058   0.426   5.207  0.4564 -0.7442  0.3325
18584TIP3    H177167   1.034   0.366   5.278  2.3417 -0.9463  0.8309
18584TIP3    H277168   1.084   0.506   5.251 -1.6678  0.3323 -0.3220
18585TIP3   OH277169   1.256   2.171   3.458 -0.4927  0.1721 -0.2739
18585TIP3    H177170   1.308   2.176   3.378  0.8845  3.2239  0.7244
18585TIP3    H277171   1.167   2.194   3.431 -0.4156 -0.6973 -1.2535
18586TIP3   OH277172   4.556   6.542   3.349  0.3618 -0.0409 -0.3893
18586TIP3    H177173   4.513   6.457   3.355  1.8980 -1.0354 -2.4532
18586TIP3    H277174   4.638   6.531   3.398  0.0643  0.5975  0.2547
18587TIP3   OH277175   4.826   6.361  14.489 -0.0718 -0.3083  0.1091
18587TIP3    H177176   4.839   6.456  14.490  1.2710 -0.4314 -1.8632
18587TIP3    H277177   4.749   6.348  14.433 -0.3532 -0.3771  0.5104
18588TIP3   OH277178   4.026   1.954   4.376  0.5987 -0.8151 -0.0755
18588TIP3    H177179   4.120   1.964   4.360  0.3452  2.2802  0.0536
18588TIP3    H277180   4.018   1.872   4.425  3.2693 -0.9522  0.1864
18589TIP3   OH277181   3.442   0.070  16.881 -0.1063 -0.3532  0.1121
18589TIP3    H177182   3.474   0.078  16.791  2.3214 -2.0603  0.8028
18589TIP3    H277183   3.417   0.160  16.905  3.0943  0.8587 -0.8652
18590TIP3   OH277184   4.257   1.900  12.115 -0.2412 -0.5148 -0.5000
18590TIP3    H177185   4.326   1.849  12.074 -0.3526 -1.0307 -0.0434
18590TIP3    H277186   4.224   1.956  12.044  1.7994  0.9904 -0.2865
18591TIP3   OH277187   1.881   1.355   3.593 -0.1710 -0.3400 -0.1743
18591TIP3    H177188   1.906   1.420   3.658 -0.2236  0.1274 -0.6128
18591TIP3    H277189   1.922   1.274   3.622 -0.4955 -0.2195  0.6324
18592TIP3   OH277190   2.257   4.272  12.841  0.5297 -0.4494 -0.4723
18592TIP3    H177191   2.328   4.238  12.896 -0.3678 -2.6165 -0.5791
18592TIP3    H277192   2.208   4.331  12.897  0.4066 -1.6156  0.6639
18593TIP3   OH277193   0.642   5.056   0.914 -0.0377  0.1129 -0.1902
18593TIP3    H177194   0.570   5.103   0.956  0.7987  1.7323 -0.5137
18593TIP3    H277195   0.599   4.997   0.852 -1.1278  0.2656  0.4040
18594TIP3   OH277196   3.452   5.459   4.128 -0.5643  0.0949 -0.2541
18594TIP3    H177197   3.476   5.517   4.200 -1.5927 -1.7813  1.6677
18594TIP3    H277198   3.465   5.511   4.049 -2.0891  3.1827  1.4347
18595TIP3   OH277199   2.838   4.761  14.703  0.2147 -0.5773 -0.0442
18595TIP3    H177200   2.742   4.762  14.706  0.2368 -0.2637  0.9158
18595TIP3    H277201   2.860   4.792  14.615 -0.5650 -0.7826 -0.3174
18596TIP3   OH277202   1.118   3.839  14.866 -0.3904  0.4697  0.0125
18596TIP3    H177203   1.157   3.890  14.936 -1.6086  0.4065  0.7366
18596TIP3    H277204   1.180   3.766  14.853  0.0603  0.7234  0.7036
18597TIP3   OH277205   3.762   6.530  12.384  0.1162 -0.0253  0.5042
18597TIP3    H177206   3.804   6.448  12.361  0.5884  0.0515  1.0833
18597TIP3    H277207   3.799   6.553  12.469 -0.3088  0.5832  0.5283
18598TIP3   OH277208   4.591   1.868   0.323 -0.0712  0.2431 -0.6910
18598TIP3    H177209   4.657   1.883   0.390  1.2728 -1.7994 -1.5117
18598TIP3    H277210   4.604   1.939   0.260  0.8223  0.2809 -0.4650
18599TIP3   OH277211   5.574   4.450   3.960  0.0113 -0.4248 -0.1109
18599TIP3    H177212   5.626   4.524   3.990  0.8974 -0.6450 -1.0560
18599TIP3    H277213   5.624   4.373   3.989 -2.0824 -0.7231  2.9382
18600TIP3   OH277214   1.302   0.113  14.492  0.2747  0.2939 -0.1227
18600TIP3    H177215   1.242   0.054  14.538  0.2984  0.5541  0.2399
18600TIP3    H277216   1.338   0.059  14.421  0.1963 -0.0893  0.1237
18601TIP3   OH277217   5.869   6.102   3.388  0.2900 -0.2849 -0.3795
18601TIP3    H177218   5.948   6.101   3.441 -1.2270  0.8951  2.0040
18601TIP3    H277219   5.863   6.191   3.353 -1.2752  0.4073  1.5481
18602TIP3   OH277220   5.526   0.200   4.353  0.3286  0.2745  0.3020
18602TIP3    H177221   5.525   0.120   4.300 -1.6736  0.2211  0.3513
18602TIP3    H277222   5.617   0.227   4.356  0.5708 -0.1699 -2.5001
18603TIP3   OH277223   4.353   5.178   4.358  0.4938 -0.5241  0.5150
18603TIP3    H177224   4.383   5.144   4.274 -1.4242 -1.2628  0.0964
18603TIP3    H277225   4.292   5.112   4.391 -2.5794  1.9611  0.1299
18604TIP3   OH277226   0.457   1.842   0.147  0.2829 -0.0220  0.1845
18604TIP3    H177227   0.365   1.851   0.120 -0.6783 -0.8602  3.0595
18604TIP3    H277228   0.494   1.781   0.084 -0.8127  1.1478 -1.6645
18605TIP3   OH277229   4.916   1.084  15.686 -1.1395  0.0414  0.7644
18605TIP3    H177230   4.830   1.126  15.688 -1.0740  0.2184  0.1504
18605TIP3    H277231   4.979   1.156  15.689 -1.0311  0.1791 -2.7121
18606TIP3   OH277232   5.085   6.298  15.820 -0.3862  0.2023 -0.2609
18606TIP3    H177233   4.995   6.269  15.802 -0.0400 -1.1428  0.1149
18606TIP3    H277234   5.139   6.221  15.801  0.6706  0.9770 -0.3887
18607TIP3   OH277235   4.214   4.593   0.281  0.1003 -0.0595  0.4519
18607TIP3    H177236   4.129   4.615   0.245  0.9899 -1.5568 -2.7098
18607TIP3    H277237   4.198   4.516   0.336 -0.5854 -0.4365 -0.2671
18608TIP3   OH277238   3.185   6.107  14.259 -0.0351  0.1221 -0.0987
18608TIP3    H177239   3.145   6.129  14.175 -0.7421 -1.0625 -0.0634
18608TIP3    H277240   3.273   6.077  14.236 -0.6050 -1.2465 -0.5075
18609TIP3   OH277241   0.851   5.901  12.607 -0.2345 -0.4061 -0.5975
18609TIP3    H177242   0.799   5.874  12.532 -0.0918 -2.3127 -0.0349
18609TIP3    H277243   0.878   5.991  12.587 -1.3028 -0.4292 -2.1988
18610TIP3   OH277244   5.676   4.254  13.632  0.4117  0.4018 -0.0015
18610TIP3    H177245   5.722   4.171  13.644 -0.6259 -0.2016 -0.1238
18610TIP3    H277246   5.677   4.295  13.719  0.0884 -0.1821  0.2798
18611TIP3   OH277247   5.431   5.249  16.930 -0.4796  0.0577 -0.0718
18611TIP3    H177248   5.450   5.328  16.878 -1.2112 -0.3867 -1.0372
18611TIP3    H277249   5.457   5.272  17.019  3.7303 -0.1964 -1.1156
18612TIP3   OH277250   6.338   4.831   5.991 -0.1290  0.0619 -0.0159
18612TIP3    H177251   6.384   4.748   5.977 -0.8676  0.0586 -2.6784
18612TIP3    H277252   6.301   4.853   5.905 -2.7454  1.4865  1.4205
18613TIP3   OH277253   3.653   1.634   4.783 -0.1661  0.1368 -0.0761
18613TIP3    H177254   3.638   1.542   4.764  1.4674 -0.3912  1.1513
18613TIP3    H277255   3.669   1.674   4.697 -1.4616 -0.5987 -0.6630
18614TIP3   OH277256   2.929   6.073   1.206  0.8737  0.7751 -0.2475
18614TIP3    H177257   3.023   6.084   1.225  1.7205 -1.6013 -2.5980
18614TIP3    H277258   2.888   6.063   1.292  3.0333  0.1724  0.7511
18615TIP3   OH277259   2.793   4.491  16.761 -0.0746  0.0130 -0.8270
18615TIP3    H177260   2.774   4.558  16.825 -1.0204 -0.7348 -0.3094
18615TIP3    H277261   2.820   4.539  16.683  1.9557  0.8951  0.3957
18616TIP3   OH277262   5.376   0.828  12.965 -0.8928  0.6756 -0.2541
18616TIP3    H177263   5.361   0.789  12.879 -1.0366  1.1757 -0.4598
18616TIP3    H277264   5.302   0.887  12.978 -0.2204  1.5607 -0.3542
18617TIP3   OH277265   3.075   3.137  16.364 -0.0525 -0.2448  0.2314
18617TIP3    H177266   3.134   3.186  16.306  0.5836 -0.6138  0.5577
18617TIP3    H277267   3.059   3.055  16.317 -0.2396 -0.1805  0.1838
18618TIP3   OH277268   3.921   5.471  14.303 -0.5710  0.2908 -0.0120
18618TIP3    H177269   3.952   5.502  14.389 -1.5822  0.6120  0.2566
18618TIP3    H277270   3.998   5.473  14.247  0.3135 -0.8562  1.1488
18619TIP3   OH277271   6.454   2.156   4.991  0.0009  0.6491  0.1536
18619TIP3    H177272   6.412   2.242   4.988 -0.4799  0.4105 -0.1195
18619TIP3    H277273   6.402   2.103   4.930 -0.7387 -0.2963  1.5788
18620TIP3   OH277274   5.381   0.734   1.827  0.0254  0.3991  0.3748
18620TIP3    H177275   5.458   0.712   1.776  0.0065 -0.6204  0.7843
18620TIP3    H277276   5.412   0.795   1.893  0.2534  0.8832 -0.1731
18621TIP3   OH277277   6.121   0.346   4.112 -0.0539 -0.0068  0.3361
18621TIP3    H177278   6.115   0.441   4.100 -2.3071 -0.3284 -1.3415
18621TIP3    H277279   6.051   0.324   4.173 -1.7307 -0.9688 -1.8621
18622TIP3   OH277280   4.366   3.854   1.109  0.6370  0.3093  0.7520
18622TIP3    H177281   4.353   3.900   1.192  2.0781  0.3436  0.9791
18622TIP3    H277282   4.408   3.771   1.134 -2.4602 -1.4499  0.4147
18623TIP3   OH277283   1.314   4.767   4.669 -0.0599  0.3799  0.9852
18623TIP3    H177284   1.369   4.786   4.746  0.6583  1.4273  0.2288
18623TIP3    H277285   1.231   4.810   4.689  0.3914  1.3329  0.8313
18624TIP3   OH277286   0.072   5.844  14.743 -0.3162 -0.3353 -0.3029
18624TIP3    H177287   0.031   5.896  14.674 -0.2150 -0.8144 -0.7300
18624TIP3    H277288   0.149   5.805  14.701  0.7181  0.7544  0.5542
18625TIP3   OH277289   3.463   6.160   6.155  0.5783  0.1957 -0.5821
18625TIP3    H177290   3.487   6.253   6.159 -0.6812  0.5447 -0.9734
18625TIP3    H277291   3.416   6.143   6.236  0.7873 -0.1005 -0.5214
18626TIP3   OH277292   1.056   1.661  15.057 -0.3557  0.9694 -0.2257
18626TIP3    H177293   1.107   1.595  15.010 -0.2954 -0.5974  1.9343
18626TIP3    H277294   0.967   1.653  15.021 -0.5792 -1.0046  0.6584
18627TIP3   OH277295   0.815   3.981   0.238 -0.4400  0.2634  0.3988
18627TIP3    H177296   0.816   4.045   0.166  1.5972  0.4036  0.5284
18627TIP3    H277297   0.735   3.931   0.224 -2.0368  2.7650  0.2351
18628TIP3   OH277298   5.425   0.674   4.873  0.7548  0.1461  0.0327
18628TIP3    H177299   5.462   0.641   4.792 -1.7129  0.1511 -1.1245
18628TIP3    H277300   5.443   0.605   4.937  0.7783 -0.8282 -1.0051
18629TIP3   OH277301   4.475   4.181  12.318  0.2552 -0.1544 -0.2970
18629TIP3    H177302   4.443   4.204  12.405  2.5035 -0.5684  0.6683
18629TIP3    H277303   4.397   4.153  12.270 -1.3345  2.1019  0.9027
18630TIP3   OH277304   2.435   5.603   1.002  0.0228  0.0313  0.0984
18630TIP3    H177305   2.478   5.582   1.084 -0.3136  1.6494  0.7080
18630TIP3    H277306   2.502   5.591   0.935  0.4749 -0.6658  0.6738
18631TIP3   OH277307   5.943   1.633  15.295  0.5927  0.1684 -0.4233
18631TIP3    H177308   5.977   1.703  15.240 -0.2522  0.0130 -1.1464
18631TIP3    H277309   5.861   1.607  15.254  1.2824 -1.7952 -0.6140
18632TIP3   OH277310   6.458   4.908  16.312 -0.3425  0.2599  0.3368
18632TIP3    H177311   6.434   4.997  16.285 -0.8775  0.7512  2.3289
18632TIP3    H277312   6.374   4.867  16.334 -0.1324 -0.8651 -0.8872
18633TIP3   OH277313   5.685   3.008  15.071  0.1205  0.3205  0.0744
18633TIP3    H177314   5.769   3.041  15.103  0.1815 -0.1390  0.3895
18633TIP3    H277315   5.693   2.912  15.074 -0.1954  0.2714 -0.4676
18634TIP3   OH277316   1.426   2.570  14.146  0.3209 -0.1368  0.5150
18634TIP3    H177317   1.443   2.648  14.094  0.4452 -1.3091 -1.2398
18634TIP3    H277318   1.476   2.584  14.227  1.4178  1.0180 -0.3385
18635TIP3   OH277319   5.714   4.620   0.262 -0.2991  0.1058 -0.1007
18635TIP3    H177320   5.781   4.591   0.200  1.1961  1.8365  0.6395
18635TIP3    H277321   5.653   4.547   0.268  1.0873 -1.1982 -1.4376
18636TIP3   OH277322   4.195   0.025  14.468  0.3553 -0.7337  0.3702
18636TIP3    H177323   4.133   0.032  14.540  0.9131  0.9204  0.7052
18636TIP3    H277324   4.279   0.006  14.510  0.6200 -0.0808  0.1482
18637TIP3   OH277325   4.042   0.670   0.401  0.0172  0.0895 -0.0829
18637TIP3    H177326   4.026   0.707   0.314 -0.0848  0.0130 -0.0974
18637TIP3    H277327   3.965   0.695   0.452  1.1197  2.1234  0.6540
18638TIP3   OH277328   2.179   1.385  12.493 -0.3701  0.2307 -0.0229
18638TIP3    H177329   2.148   1.302  12.458  0.4281 -0.0282 -0.1424
18638TIP3    H277330   2.100   1.434  12.514 -0.8490  0.0339 -1.3577
18639TIP3   OH277331   0.006   0.710  14.551 -0.1125 -0.2742  0.3171
18639TIP3    H177332  -0.059   0.726  14.483  0.7031 -2.4174 -1.0172
18639TIP3    H277333  -0.021   0.627  14.590  2.0677 -1.4492 -0.5853
18640TIP3   OH277334   2.706   0.173  11.930 -0.4205  0.2633  0.0761
18640TIP3    H177335   2.749   0.094  11.899 -0.4410  0.3720 -0.2309
18640TIP3    H277336   2.753   0.196  12.010 -0.5371 -0.1626  0.2656
18641TIP3   OH277337   1.562   4.063  15.163  0.0285  0.1862  0.4060
18641TIP3    H177338   1.517   4.132  15.115 -0.1082 -0.5403 -0.5071
18641TIP3    H277339   1.492   4.007  15.196  0.2335 -0.6166 -0.5222
18642TIP3   OH277340   4.234   1.265  14.890 -0.1857 -0.6077  1.0866
18642TIP3    H177341   4.320   1.285  14.855 -0.6416  2.0481  1.3757
18642TIP3    H277342   4.243   1.276  14.985 -0.5815 -1.3053  1.2053
18643TIP3   OH277343   1.134   5.754  11.904  0.2579  0.4766 -0.9814
18643TIP3    H177344   1.173   5.841  11.911 -0.9785  1.2737 -3.3904
18643TIP3    H277345   1.040   5.769  11.901 -0.0346 -1.0612 -0.0344
18644TIP3   OH277346   5.167   4.549   5.377 -0.3608 -0.0884 -0.1201
18644TIP3    H177347   5.143   4.539   5.469  0.5508 -0.1672  0.1159
18644TIP3    H277348   5.092   4.592   5.337 -0.6139  0.2791  0.7417
18645TIP3   OH277349   4.196   4.281  14.389  1.4077  0.0030  0.0768
18645TIP3    H177350   4.206   4.322  14.475 -0.6287  1.5458 -0.3730
18645TIP3    H277351   4.242   4.340  14.329 -0.0270  0.7619 -0.3216
18646TIP3   OH277352   5.947   2.295   1.612 -0.0483  0.2067  0.0721
18646TIP3    H177353   5.997   2.343   1.679  2.4894 -1.3218 -0.6551
18646TIP3    H277354   5.960   2.203   1.634 -3.8141 -0.2748  0.6938
18647TIP3   OH277355   5.655   2.601   5.426 -0.4527  0.0861  0.2316
18647TIP3    H177356   5.570   2.557   5.433 -0.8270  0.6982 -0.4018
18647TIP3    H277357   5.635   2.694   5.433  0.1010  0.2641 -0.5239
18648TIP3   OH277358   6.029   5.419  13.896 -0.2262 -0.3730 -0.4812
18648TIP3    H177359   5.975   5.475  13.840  0.3931  0.0701 -0.6493
18648TIP3    H277360   6.092   5.379  13.836  0.4039  0.0600 -0.1173
18649TIP3   OH277361   6.020   1.618  12.958  0.7503 -0.3182 -0.3741
18649TIP3    H177362   6.015   1.622  13.053  0.9476 -1.0650 -0.3286
18649TIP3    H277363   6.109   1.589  12.939  0.6097 -0.5005 -0.7766
18650TIP3   OH277364   4.521   5.652   4.553 -0.3265  0.4117  0.0377
18650TIP3    H177365   4.496   5.560   4.540 -1.2065  0.6739 -0.1880
18650TIP3    H277366   4.590   5.667   4.489 -1.5689  0.4598 -1.3137
18651TIP3   OH277367   1.606   6.319   5.696 -0.1956  0.6738  0.0243
18651TIP3    H177368   1.563   6.269   5.766  0.4678  0.0436 -0.0088
18651TIP3    H277369   1.627   6.254   5.630  1.9014  0.7632  0.5827
18652TIP3   OH277370   6.091   2.968   2.512  0.4084 -0.0570 -0.1189
18652TIP3    H177371   5.996   2.975   2.502  0.4410  1.2459  0.3331
18652TIP3    H277372   6.110   2.875   2.503 -0.8147 -0.2168 -1.0523
18653TIP3   OH277373   3.838   2.371   1.137 -0.1392 -0.0064 -0.0671
18653TIP3    H177374   3.789   2.394   1.058  1.6262  0.1637 -1.1281
18653TIP3    H277375   3.864   2.455   1.174 -1.5781 -0.0567  1.1231
18654TIP3   OH277376   6.773   4.571   0.123 -0.3540  0.5202  0.1929
18654TIP3    H177377   6.806   4.487   0.093 -1.5316  0.3167 -0.5427
18654TIP3    H277378   6.680   4.558   0.137 -0.3289  1.3660  1.3046
18655TIP3   OH277379   2.733   0.006  16.395 -0.0350 -0.0815 -0.2306
18655TIP3    H177380   2.707  -0.077  16.357  0.8214 -0.8012  0.7316
18655TIP3    H277381   2.823   0.020  16.364  0.2762 -0.1401  0.6367
18656TIP3   OH277382   1.368   5.120  16.078 -0.4063 -0.6278 -0.2673
18656TIP3    H177383   1.339   5.199  16.031 -0.9293  0.2249  1.4345
18656TIP3    H277384   1.288   5.070  16.093 -0.2100 -1.0070 -0.4733
18657TIP3   OH277385   3.378   4.146  10.742 -0.6648  0.4178 -0.2201
18657TIP3    H177386   3.324   4.067  10.744 -0.7005  0.4677  1.2665
18657TIP3    H277387   3.467   4.116  10.762 -0.6441  0.7116  0.1448
18658TIP3   OH277388   2.992   5.710   4.847  0.5869  0.2574  0.2399
18658TIP3    H177389   2.975   5.770   4.920  0.2985 -0.8537  1.0953
18658TIP3    H277390   2.909   5.666   4.831  0.7180  0.3033 -0.5926
18659TIP3   OH277391   4.395   5.214  15.377 -0.4056 -0.0495  0.0779
18659TIP3    H177392   4.373   5.187  15.467  0.0463  0.3762  0.3152
18659TIP3    H277393   4.343   5.155  15.322  1.3221 -2.1082  0.5619
18660TIP3   OH277394   1.440   2.705   2.483 -0.1899 -0.5581 -0.6980
18660TIP3    H177395   1.357   2.666   2.510  1.1950 -3.0328  0.0888
18660TIP3    H277396   1.456   2.775   2.546 -0.3508 -1.8247  0.7555
18661TIP3   OH277397   5.944   1.343  12.108  0.1803  0.3579 -0.6675
18661TIP3    H177398   6.002   1.417  12.091 -1.2496  1.5463 -0.5433
18661TIP3    H277399   5.885   1.374  12.177 -1.6031 -0.2270 -1.8747
18662TIP3   OH277400   3.095   3.155  12.601 -0.1713  0.1901  0.2063
18662TIP3    H177401   3.128   3.155  12.512 -2.8567  1.8739 -0.8410
18662TIP3    H277402   3.035   3.081  12.605  0.1472 -0.0446  0.7087
18663TIP3   OH277403   1.234   4.324  11.740  0.3132 -0.3228 -0.7260
18663TIP3    H177404   1.315   4.301  11.695 -0.0417 -1.4063 -0.8135
18663TIP3    H277405   1.245   4.290  11.829  1.9992  3.8741  0.7854
18664TIP3   OH277406   2.316   5.835   5.411  0.1622 -0.3258  0.1587
18664TIP3    H177407   2.300   5.747   5.443 -1.2742  0.2232  0.9985
18664TIP3    H277408   2.231   5.879   5.417  1.2655  1.7162  1.6318
18665TIP3   OH277409   3.588   5.929   5.651 -0.0544 -0.3984  0.3039
18665TIP3    H177410   3.661   5.898   5.597  0.4882  2.2149 -0.5654
18665TIP3    H277411   3.515   5.935   5.590 -0.0876  0.2318  0.4070
18666TIP3   OH277412   6.130   2.750   3.198 -0.0900 -0.0486  0.4449
18666TIP3    H177413   6.037   2.755   3.218 -0.6437  0.3634 -2.1005
18666TIP3    H277414   6.134   2.717   3.108  2.2155 -0.0401  0.5154
18667TIP3   OH277415   5.081   3.146  17.163 -0.0791  0.1614  0.3254
18667TIP3    H177416   5.068   3.127  17.070 -3.1159 -0.8208  0.8967
18667TIP3    H277417   5.065   3.063  17.207 -0.1161  0.9395  1.8201
18668TIP3   OH277418   4.658   3.182  15.548  0.1122  0.3699 -0.7115
18668TIP3    H177419   4.745   3.153  15.574 -0.0255 -0.1644 -0.8482
18668TIP3    H277420   4.642   3.140  15.464 -1.3810 -1.7626  0.5717
18669TIP3   OH277421   2.939   5.419  11.476 -0.2423  0.1432  0.5384
18669TIP3    H177422   2.891   5.357  11.530 -1.0067  0.3192  0.0672
18669TIP3    H277423   3.014   5.369  11.443 -1.5777 -0.9491 -0.9425
18670TIP3   OH277424   1.228   2.516   4.478  0.1338  0.2431 -0.0621
18670TIP3    H177425   1.256   2.607   4.469 -1.4068  0.5952 -1.5832
18670TIP3    H277426   1.133   2.520   4.481  0.0661 -1.2800  0.5427
18671TIP3   OH277427   0.267   0.744  12.457  0.0531 -0.1527 -0.2102
18671TIP3    H177428   0.198   0.804  12.431  0.7271  0.9891  0.5563
18671TIP3    H277429   0.344   0.772  12.407  0.3156 -0.5049 -0.0144
18672TIP3   OH277430   4.998   0.174   3.764  0.5731  0.0650 -0.3456
18672TIP3    H177431   4.942   0.251   3.753  0.5357  0.6326  3.1711
18672TIP3    H277432   4.937   0.100   3.768  0.4456  0.1075 -1.4182
18673TIP3   OH277433   0.121   2.727   2.763 -0.7908 -0.0589  0.0364
18673TIP3    H177434   0.144   2.636   2.746 -1.7815 -0.3260  0.0734
18673TIP3    H277435   0.137   2.772   2.680 -1.1931 -0.4487 -0.2529
18674TIP3   OH277436   0.099   6.075   1.925 -0.5170 -0.0897 -0.1625
18674TIP3    H177437   0.069   5.988   1.952  0.9399 -0.7539 -0.6392
18674TIP3    H277438   0.134   6.114   2.005  1.1730 -0.9505 -0.4578
18675TIP3   OH277439   6.471   5.012   2.441  0.4844  0.2166  0.2618
18675TIP3    H177440   6.482   4.950   2.370 -0.0649 -0.9759  1.2106
18675TIP3    H277441   6.555   5.009   2.489 -0.1042 -0.9853  1.2394
18676TIP3   OH277442   2.823   6.052   1.453 -0.5531  0.5983 -0.1119
18676TIP3    H177443   2.727   6.053   1.455 -0.5375  1.5616  2.6848
18676TIP3    H277444   2.848   6.055   1.545  2.1711 -3.8712 -0.5662
18677TIP3   OH277445   1.692   6.719  14.846  0.1980  0.3379  0.1525
18677TIP3    H177446   1.713   6.801  14.891  0.2407  0.1974  0.3898
18677TIP3    H277447   1.610   6.736  14.800  1.1843  1.1069 -1.3324
18678TIP3   OH277448   1.079   2.401  15.489 -0.1112 -0.3987 -0.1048
18678TIP3    H177449   1.081   2.310  15.459 -0.0389 -0.8088  1.1188
18678TIP3    H277450   1.049   2.395  15.579 -0.5448  0.8404 -0.1679
18679TIP3   OH277451   4.384   6.707   0.407 -0.5255 -0.7482  0.6931
18679TIP3    H177452   4.328   6.766   0.458 -2.0421 -2.1342  0.6821
18679TIP3    H277453   4.414   6.761   0.334 -1.1193  0.2886  1.1987
18680TIP3   OH277454   0.673   4.547  13.656 -0.7332 -0.2023 -0.5052
18680TIP3    H177455   0.657   4.640  13.672 -0.0446 -0.0630 -0.5945
18680TIP3    H277456   0.591   4.514  13.620 -0.5021  0.7146 -1.9064
18681TIP3   OH277457   1.760   2.679   5.630  0.8670 -0.3850 -0.2998
18681TIP3    H177458   1.740   2.637   5.713  0.0972  1.3781  0.4399
18681TIP3    H277459   1.803   2.611   5.577  1.4042 -1.4971  1.5451
18682TIP3   OH277460   4.022   6.783  12.299 -0.5422  0.3068  0.0589
18682TIP3    H177461   4.076   6.754  12.372 -1.2627  2.2795  1.4246
18682TIP3    H277462   4.019   6.708  12.239  2.5529 -0.3078  0.5934
18683TIP3   OH277463   0.181   4.720   5.914  0.3417  0.3673  0.2195
18683TIP3    H177464   0.134   4.643   5.945  2.0843 -0.5619  0.5928
18683TIP3    H277465   0.187   4.708   5.819 -3.2990  2.2762 -0.3620
18684TIP3   OH277466   2.913   3.958  15.082 -0.0659  0.9198 -0.0361
18684TIP3    H177467   2.877   4.040  15.047 -1.0201  0.0785 -1.0505
18684TIP3    H277468   2.904   3.895  15.011  1.7075  0.2044  0.3621
18685TIP3   OH277469   0.027   5.896   3.140  0.4164 -0.6157 -0.1687
18685TIP3    H177470   0.042   5.983   3.178  1.8072 -1.1932  0.6467
18685TIP3    H277471  -0.051   5.864   3.185 -1.1342  0.8951 -1.7102
18686TIP3   OH277472   0.554   6.645  16.298  0.3215  0.6689 -1.0551
18686TIP3    H177473   0.641   6.645  16.258  1.2426  0.0595  0.8966
18686TIP3    H277474   0.558   6.716  16.363 -1.2597  1.8699 -2.2343
18687TIP3   OH277475   4.974   5.297   2.226 -0.2063  0.4213 -0.2904
18687TIP3    H177476   4.958   5.204   2.240  0.2071  0.7560  2.8157
18687TIP3    H277477   4.895   5.329   2.183 -1.2076 -0.9810  0.4666
18688TIP3   OH277478   0.430   3.382  13.736 -0.0692 -0.6652  0.2158
18688TIP3    H177479   0.499   3.420  13.790  0.3448 -0.0573 -0.7225
18688TIP3    H277480   0.476   3.343  13.662 -0.6626 -1.0693  0.0581
18689TIP3   OH277481   4.391   0.197   4.897 -0.5523  0.1909 -0.0047
18689TIP3    H177482   4.474   0.241   4.915  0.3260 -0.1700 -2.9845
18689TIP3    H277483   4.402   0.108   4.933  0.8096 -0.2299 -1.4290
18690TIP3   OH277484   3.871   1.119   1.531  0.6098 -0.2359  0.0516
18690TIP3    H177485   3.862   1.167   1.449  0.9839  1.9631  1.2460
18690TIP3    H277486   3.952   1.069   1.520  1.0906  0.6681 -0.6250
18691TIP3   OH277487   3.075   1.296   1.751 -0.2066 -0.1167  0.5193
18691TIP3    H177488   3.108   1.223   1.699 -0.9012  0.1372 -0.2949
18691TIP3    H277489   3.090   1.374   1.697 -2.2484 -0.0126  0.0587
18692TIP3   OH277490   2.552   1.510   0.750 -0.1302 -0.6141 -0.1880
18692TIP3    H177491   2.625   1.569   0.729  0.5682 -1.3482  0.1390
18692TIP3    H277492   2.558   1.497   0.844 -0.9413 -0.3537 -0.0969
18693TIP3   OH277493   4.195   5.817   4.473  0.1394 -0.3671 -0.2932
18693TIP3    H177494   4.166   5.893   4.423 -0.4613 -0.3884  0.0234
18693TIP3    H277495   4.286   5.805   4.447  0.6583  1.2928  0.6745
18694TIP3   OH277496   1.011   4.319   5.046  0.0004 -0.3773 -0.1290
18694TIP3    H177497   0.936   4.288   4.994 -0.9108  0.3104  0.7572
18694TIP3    H277498   1.047   4.241   5.086 -1.4087 -0.4782  0.9502
18695TIP3   OH277499   0.589   1.870  16.525 -0.4257 -0.6485 -0.5216
18695TIP3    H177500   0.521   1.908  16.469 -2.0784 -2.5861  0.1165
18695TIP3    H277501   0.541   1.836  16.601  1.2339 -2.3115 -0.1991
18696TIP3   OH277502   3.361   2.897  15.513  0.2380 -0.1645 -0.0045
18696TIP3    H177503   3.356   2.978  15.564  0.6351  1.0276 -1.7822
18696TIP3    H277504   3.270   2.873  15.497  0.1177 -0.2106  0.7663
18697TIP3   OH277505   5.621   3.612   0.575  0.2021 -0.1477  0.3059
18697TIP3    H177506   5.657   3.536   0.621 -1.1189 -0.0441  1.5424
18697TIP3    H277507   5.555   3.647   0.635 -0.5295  0.8556 -1.0684
18698TIP3   OH277508   4.620   0.528  15.259  0.2152  0.1100 -0.0855
18698TIP3    H177509   4.541   0.565  15.219  0.4100  1.3297  0.6332
18698TIP3    H277510   4.685   0.598  15.253 -0.4981  1.4027  4.7599
18699TIP3   OH277511   0.846   0.807  11.446 -0.2998 -0.4270 -0.4456
18699TIP3    H177512   0.797   0.889  11.444  0.2564 -0.0821  0.0841
18699TIP3    H277513   0.915   0.821  11.511  0.4562 -0.9421 -1.1260
18700TIP3   OH277514   0.966   1.265   5.000  0.3786 -0.1053 -0.2494
18700TIP3    H177515   1.018   1.272   5.080 -0.2386  0.8583  0.0798
18700TIP3    H277516   0.890   1.321   5.016  0.0778 -0.1795 -1.3730
18701TIP3   OH277517   3.076   3.171   5.241  0.1051 -0.3419  0.2856
18701TIP3    H177518   3.128   3.146   5.317  0.2574  0.9375  0.6141
18701TIP3    H277519   2.999   3.215   5.279 -0.2078 -0.4071 -0.2722
18702TIP3   OH277520   2.092   6.115   0.553  0.3918 -0.5882 -0.4365
18702TIP3    H177521   2.031   6.181   0.520  0.2074 -0.5465 -0.0161
18702TIP3    H277522   2.151   6.164   0.610 -0.6689 -1.0313  1.0766
18703TIP3   OH277523   5.149   6.127   4.050  0.1106 -0.0476  0.9709
18703TIP3    H177524   5.074   6.152   4.104 -0.7983 -1.7192  0.5096
18703TIP3    H277525   5.116   6.126   3.961  0.8070 -0.3029  0.7075
18704TIP3   OH277526   2.919   4.259   2.327 -0.0493 -0.5946  0.0755
18704TIP3    H177527   2.971   4.202   2.383  0.2824  0.4086  0.7961
18704TIP3    H277528   2.928   4.346   2.365 -1.4340 -0.2288 -0.3710
18705TIP3   OH277529   1.020   4.771  15.582  0.1685 -0.2153  0.4482
18705TIP3    H177530   0.978   4.687  15.601 -1.5162  0.6285  0.4532
18705TIP3    H277531   0.969   4.835  15.631 -1.0594  1.3501 -2.7740
18706TIP3   OH277532   1.415   5.724   1.258  0.4166  0.3540 -0.4558
18706TIP3    H177533   1.346   5.701   1.196  1.1089  0.7903 -1.3988
18706TIP3    H277534   1.397   5.670   1.335 -0.5740 -0.0370 -0.9500
18707TIP3   OH277535   5.080   3.275  12.249 -0.1570 -0.1453 -0.2232
18707TIP3    H177536   5.130   3.216  12.192 -1.5950 -2.2340  0.6252
18707TIP3    H277537   4.989   3.258  12.227 -0.6345  1.1433  0.6862
18708TIP3   OH277538   4.077   2.167   1.099  0.1953 -0.2624  0.0682
18708TIP3    H177539   4.107   2.097   1.157  1.2437  0.2404  0.1553
18708TIP3    H277540   3.990   2.189   1.130  0.3585 -0.6768  0.8312
18709TIP3   OH277541   2.513   2.626  15.111 -0.0716  0.4902 -0.0535
18709TIP3    H177542   2.478   2.643  15.199  0.6291 -0.7831  0.4891
18709TIP3    H277543   2.511   2.531  15.103  0.3806  0.5733 -1.2211
18710TIP3   OH277544   2.982   1.178   0.199 -0.1701 -0.1980  0.3426
18710TIP3    H177545   2.994   1.172   0.104  0.6960 -0.0456  0.4357
18710TIP3    H277546   2.901   1.130   0.216  0.1528 -1.0221 -0.3670
18711TIP3   OH277547   6.272   3.426   1.661 -0.7435 -0.3166  0.6106
18711TIP3    H177548   6.353   3.384   1.689 -1.1466 -1.1706  0.4987
18711TIP3    H277549   6.290   3.456   1.572 -0.3133  0.1269  0.8457
18712TIP3   OH277550   0.723   1.882   5.387 -0.4130  0.3666  0.6706
18712TIP3    H177551   0.728   1.949   5.319 -0.3663  0.5133  0.8175
18712TIP3    H277552   0.652   1.911   5.443 -1.9948 -0.9705 -0.6163
18713TIP3   OH277553   4.480   4.984   3.133 -0.2190  0.1313  0.3052
18713TIP3    H177554   4.504   5.017   3.046 -0.4312  0.1179  0.2413
18713TIP3    H277555   4.555   4.932   3.161  1.4623  3.1965  1.7193
18714TIP3   OH277556   4.766   5.657  15.820  0.5375 -0.1150  0.1977
18714TIP3    H177557   4.773   5.712  15.742  1.7359  0.0491  0.4154
18714TIP3    H277558   4.818   5.701  15.886  1.1588 -1.2781  0.5049
18715TIP3   OH277559   4.158   3.986  15.321  0.6834 -0.6179  0.1511
18715TIP3    H177560   4.096   3.921  15.289 -0.8183  0.2389  1.2958
18715TIP3    H277561   4.191   3.950  15.403  1.3113 -0.8077 -0.1732
18716TIP3   OH277562   3.330   5.609  14.918  0.0010  0.1120  0.3157
18716TIP3    H177563   3.416   5.594  14.957 -0.1719  1.1035  1.0921
18716TIP3    H277564   3.268   5.566  14.977 -0.1378  0.3578  0.3474
18717TIP3   OH277565   1.528   2.441   1.692 -0.0015  0.4816  0.0666
18717TIP3    H177566   1.604   2.413   1.641 -0.7762 -2.4006  0.3866
18717TIP3    H277567   1.550   2.529   1.723  2.7256  0.1330 -0.7730
18718TIP3   OH277568   1.466   6.534  11.742  0.5457  0.3080  0.4698
18718TIP3    H177569   1.424   6.550  11.826 -2.3175 -0.6309 -0.6918
18718TIP3    H277570   1.559   6.527  11.762  0.1126  1.8562  3.2754
18719TIP3   OH277571   5.332   1.572  12.129  0.2721 -0.6791  0.2710
18719TIP3    H177572   5.334   1.634  12.202 -0.3187  0.4777 -0.6806
18719TIP3    H277573   5.241   1.542  12.126  0.5055 -1.4313  0.5784
18720TIP3   OH277574   6.411   2.284   1.483 -0.3350 -1.3307  0.3471
18720TIP3    H177575   6.454   2.335   1.414  1.4090 -1.8686  1.0134
18720TIP3    H277576   6.381   2.205   1.439  0.9877 -1.7804  0.2429
18721TIP3   OH277577   3.679   1.574   3.565  0.0574 -0.0490  0.5515
18721TIP3    H177578   3.652   1.661   3.594  2.4878  0.5334  1.1824
18721TIP3    H277579   3.759   1.589   3.515  0.4028 -1.8979  0.4972
18722TIP3   OH277580   5.541   3.445  11.650  0.5973  0.2576  0.0213
18722TIP3    H177581   5.559   3.481  11.737  0.8485 -0.9034  0.4545
18722TIP3    H277582   5.527   3.351  11.665  1.8726 -0.1710 -1.3403
18723TIP3   OH277583   5.756   6.494   5.668 -0.2577 -0.4819 -0.5740
18723TIP3    H177584   5.773   6.571   5.613  0.0382 -0.7598 -0.8684
18723TIP3    H277585   5.674   6.515   5.713 -0.1603  0.0261 -0.6238
18724TIP3   OH277586   5.769   0.270  10.449  0.3308 -0.2966  0.6540
18724TIP3    H177587   5.841   0.209  10.434  1.5108  1.0899  0.5330
18724TIP3    H277588   5.705   0.249  10.382  2.0031  0.4968 -1.2654
18725TIP3   OH277589   2.676   6.739  10.561  0.2850  0.6627  0.1304
18725TIP3    H177590   2.615   6.809  10.587  0.0537  1.0053 -1.2806
18725TIP3    H277591   2.762   6.771  10.589  0.2016  1.5880 -0.6633
18726TIP3   OH277592   3.230   3.957  13.462  0.5462 -0.3032  0.1889
18726TIP3    H177593   3.232   4.027  13.527 -0.8257 -0.7998  0.7974
18726TIP3    H277594   3.195   3.882  13.510 -0.0299 -0.8000 -0.9987
18727TIP3   OH277595   5.492   1.617  16.072  0.2585 -0.2796 -0.1879
18727TIP3    H177596   5.396   1.619  16.068  0.2732 -0.1757 -0.5497
18727TIP3    H277597   5.513   1.647  16.160 -0.0502 -0.5156 -0.0304
18728TIP3   OH277598   3.453   4.746  15.183  0.2048 -0.3173  0.0674
18728TIP3    H177599   3.546   4.727  15.171 -0.0683 -0.5395 -1.8828
18728TIP3    H277600   3.424   4.777  15.097 -0.9358  2.2493  1.3236
18729TIP3   OH277601   1.672   3.247   4.022 -0.0630  0.2031 -0.4134
18729TIP3    H177602   1.673   3.151   4.016 -1.8294  0.2697 -2.3210
18729TIP3    H277603   1.606   3.266   4.089 -0.2273  0.0856 -0.5403
18730TIP3   OH277604   4.845   0.651  14.008  0.2069 -0.1064  0.1815
18730TIP3    H177605   4.752   0.675  14.006  0.4677  0.8596 -1.5343
18730TIP3    H277606   4.890   0.727  13.971  1.5505 -1.1774 -0.4309
18731TIP3   OH277607   3.682   5.345   2.734 -0.5208 -0.3090 -0.0376
18731TIP3    H177608   3.695   5.386   2.648  0.9945 -1.0820 -0.2073
18731TIP3    H277609   3.739   5.268   2.732 -0.1436 -0.1059  1.8246
18732TIP3   OH277610   6.321   3.168   5.157 -0.5121 -0.1144  0.0558
18732TIP3    H177611   6.334   3.096   5.218  1.2838  0.3636  0.2614
18732TIP3    H277612   6.227   3.166   5.137 -1.1209 -0.3047  2.7501
18733TIP3   OH277613   4.276   0.876   6.306  0.1790 -0.2678 -0.1013
18733TIP3    H177614   4.364   0.846   6.328 -0.0839 -1.5002 -0.6689
18733TIP3    H277615   4.221   0.797   6.316 -0.9687  0.6472  0.9491
18734TIP3   OH277616   5.862   2.995  13.686 -0.0166 -0.2725  0.1232
18734TIP3    H177617   5.839   2.906  13.660 -0.7272 -0.1333  0.2527
18734TIP3    H277618   5.820   3.006  13.772  2.3621 -0.7667  1.4022
18735TIP3   OH277619   4.638   4.740  15.601  0.2411  0.3602  0.3289
18735TIP3    H177620   4.549   4.723  15.635  0.2852 -0.2139  0.1744
18735TIP3    H277621   4.696   4.698  15.665  0.2733 -1.9128 -1.1056
18736TIP3   OH277622   5.131   1.160  14.365 -0.1278 -0.1634  0.4340
18736TIP3    H177623   5.198   1.154  14.432  1.4634 -0.6239 -1.1649
18736TIP3    H277624   5.062   1.100  14.394  0.2987  0.0561  1.9138
18737TIP3   OH277625   5.549   3.371   6.024 -0.2003  0.8126 -0.1671
18737TIP3    H177626   5.556   3.438   5.957  0.2190  0.0705 -0.8761
18737TIP3    H277627   5.457   3.348   6.027 -0.5581  2.3177  0.9756
18738TIP3   OH277628   2.333   5.773  15.951 -0.4578 -0.0823 -0.0527
18738TIP3    H177629   2.238   5.777  15.939 -0.4375  0.2046 -0.1344
18738TIP3    H277630   2.356   5.859  15.987 -0.1446  0.0767 -0.6256
18739TIP3   OH277631   5.972   2.424   2.670  0.1092  0.1106  0.0574
18739TIP3    H177632   6.031   2.408   2.743 -0.8256 -0.9752  0.5928
18739TIP3    H277633   5.885   2.432   2.710 -0.5880 -1.7149 -1.0289
18740TIP3   OH277634   3.117   4.597  12.469 -0.3482  0.2691 -0.7913
18740TIP3    H177635   3.205   4.564  12.454 -0.0732 -0.4835  2.1701
18740TIP3    H277636   3.128   4.689  12.492 -0.2317 -0.0431  0.4394
18741TIP3   OH277637   0.992   3.119   3.204  0.0867  0.1850 -0.3549
18741TIP3    H177638   0.962   3.132   3.294 -1.2714 -0.9473 -0.6230
18741TIP3    H277639   0.922   3.069   3.163  1.5746 -0.9808 -1.5122
18742TIP3   OH277640   1.316   5.770  16.923  0.7667 -0.7058 -0.3007
18742TIP3    H177641   1.312   5.810  16.836 -1.4173 -2.9231 -1.2605
18742TIP3    H277642   1.369   5.692  16.911  0.6757 -0.8850  0.4291
18743TIP3   OH277643   1.850   6.008   2.189  0.0708 -0.3946  0.1160
18743TIP3    H177644   1.925   5.989   2.245  0.1221 -1.0238 -0.1669
18743TIP3    H277645   1.777   5.963   2.231  0.3396 -1.8761 -0.9704
18744TIP3   OH277646   3.302   5.234  17.191  0.0991  0.0668 -0.3948
18744TIP3    H177647   3.292   5.325  17.163 -0.9595  0.2449  0.5068
18744TIP3    H277648   3.218   5.213  17.232  0.2787 -1.3741 -0.7495
18745TIP3   OH277649   1.230   0.272   1.690  0.3027  0.3399  0.3747
18745TIP3    H177650   1.233   0.221   1.609  0.3191  2.2153 -0.8381
18745TIP3    H277651   1.309   0.247   1.738  1.2455  0.5768 -1.0414
18746TIP3   OH277652   2.103   6.479  15.212 -0.0699  0.1143  0.3291
18746TIP3    H177653   2.084   6.402  15.158  0.1119 -0.1600  0.6542
18746TIP3    H277654   2.017   6.510  15.240 -0.1989  0.5812 -0.5585
18747TIP3   OH277655   1.517   2.840  13.131 -0.3679  0.0004 -1.0184
18747TIP3    H177656   1.600   2.884  13.113 -1.5200  2.2086 -1.0626
18747TIP3    H277657   1.464   2.856  13.053 -2.0739  1.6409  0.4327
18748TIP3   OH277658   0.833   3.155   0.093 -0.6839 -0.1609 -0.3533
18748TIP3    H177659   0.909   3.214   0.093  0.0118 -1.0554  0.0294
18748TIP3    H277660   0.864   3.076   0.136 -1.2553 -1.2767 -1.9656
18749TIP3   OH277661   6.017   3.498   3.633  0.3236 -0.0958 -0.1837
18749TIP3    H177662   6.050   3.463   3.716 -2.1393 -2.4119 -0.1089
18749TIP3    H277663   6.054   3.441   3.566  1.6278  1.2563 -0.6291
18750TIP3   OH277664   6.653   6.146  14.277 -0.2157 -0.1808  0.4739
18750TIP3    H177665   6.558   6.141  14.288 -0.3694 -1.0081 -1.1703
18750TIP3    H277666   6.671   6.240  14.276 -1.3138  0.0320 -1.5952
18751TIP3   OH277667   5.005   1.653  12.992 -0.1461 -0.4250 -0.0398
18751TIP3    H177668   4.950   1.699  12.928  0.5360 -1.8053 -1.6561
18751TIP3    H277669   4.943   1.625  13.060 -1.2578 -0.8665 -1.2097
18752TIP3   OH277670   5.620   2.270  13.487 -0.2303 -0.5784  0.7154
18752TIP3    H177671   5.672   2.282  13.408  0.3829 -2.4086  0.8175
18752TIP3    H277672   5.565   2.348  13.492 -1.4050 -1.1247 -2.3637
18753TIP3   OH277673   3.924   2.306  13.556  0.2497 -0.1427 -0.3469
18753TIP3    H177674   3.894   2.273  13.640 -0.9699  0.1681 -0.6403
18753TIP3    H277675   4.013   2.338  13.572  0.0110 -0.0585  0.8263
18754TIP3   OH277676   5.827   5.078  11.254 -0.5125 -0.0659  0.1517
18754TIP3    H177677   5.836   5.011  11.187  0.0984 -1.1939  1.3288
18754TIP3    H277678   5.749   5.053  11.304 -0.7110  0.5153  0.1489
18755TIP3   OH277679   1.143   3.302  13.332  0.5158  0.2152 -0.1366
18755TIP3    H177680   1.142   3.378  13.390 -0.3724  0.4264 -0.4250
18755TIP3    H277681   1.051   3.277  13.323  0.6063  0.3369 -1.6370
18756TIP3   OH277682   3.992   3.256   4.628  0.3657 -0.2653  0.4424
18756TIP3    H177683   3.908   3.297   4.650  0.5760 -1.2915  3.5163
18756TIP3    H277684   3.969   3.166   4.604  0.4687 -0.2279  0.2103
18757TIP3   OH277685   2.536   1.003  16.404 -0.0501 -0.3984 -0.5089
18757TIP3    H177686   2.625   1.032  16.425  0.1316 -0.6112 -0.9709
18757TIP3    H277687   2.546   0.954  16.322 -0.1492 -2.9335  0.9364
18758TIP3   OH277688   3.521   6.135   0.251 -0.6851 -0.1907  0.4204
18758TIP3    H177689   3.459   6.141   0.324 -0.0018 -0.0984  0.9981
18758TIP3    H277690   3.589   6.075   0.281 -0.1129  0.2724  0.0708
18759TIP3   OH277691   1.360   2.812   4.605  0.2546 -0.4671  0.6558
18759TIP3    H177692   1.297   2.773   4.665 -0.9491  1.7472  0.8858
18759TIP3    H277693   1.445   2.802   4.648 -0.4942  0.3701  2.3469
18760TIP3   OH277694   4.209   1.772   5.279  0.8693 -0.5453  0.0383
18760TIP3    H177695   4.195   1.680   5.254 -0.4827 -0.0090 -1.2676
18760TIP3    H277696   4.218   1.818   5.196  1.4718  0.5388  0.6886
18761TIP3   OH277697   0.543   2.670  11.516  0.5566  0.0301  0.5178
18761TIP3    H177698   0.453   2.650  11.542  0.8579 -1.9317  0.1273
18761TIP3    H277699   0.577   2.725  11.586 -1.2613  1.6617  0.1698
18762TIP3   OH277700   0.209   5.985  14.915 -0.3775  0.1745 -0.0963
18762TIP3    H177701   0.143   5.934  14.867  0.4393 -1.8919  0.9273
18762TIP3    H277702   0.161   6.061  14.947 -1.8952 -0.5086 -0.6976
18763TIP3   OH277703   0.242   5.847   2.944  0.2904 -0.0024 -0.2282
18763TIP3    H177704   0.232   5.752   2.937  0.4167 -0.0696  0.4497
18763TIP3    H277705   0.185   5.872   3.017 -1.0943  0.6841 -1.5191
18764TIP3   OH277706   5.122   5.651  15.305 -0.5043  0.4143 -0.0285
18764TIP3    H177707   5.077   5.658  15.221 -1.0497 -1.3167  0.1162
18764TIP3    H277708   5.053   5.636  15.369  0.1102 -0.4147  0.4470
18765TIP3   OH277709   6.292   3.037   5.654 -0.1914  0.5560  0.4138
18765TIP3    H177710   6.388   3.034   5.658 -0.1612  2.0271  1.3185
18765TIP3    H277711   6.272   3.124   5.617 -1.1890  1.1672  2.3288
18766TIP3   OH277712   3.373   3.902  13.018  0.0293 -0.4128 -0.3828
18766TIP3    H177713   3.346   3.993  13.007 -0.4453 -0.6385 -1.0821
18766TIP3    H277714   3.405   3.897  13.108 -0.1367  0.3923 -0.2780
18767TIP3   OH277715   3.485   5.894  11.465  0.4728 -0.0080 -0.6172
18767TIP3    H177716   3.392   5.913  11.480  0.8845  1.2946  0.3800
18767TIP3    H277717   3.504   5.933  11.380  0.6412  1.7143  0.1887
18768TIP3   OH277718   6.056   4.852   6.058 -0.6521  0.3947 -0.6806
18768TIP3    H177719   6.055   4.930   6.113  2.0602 -1.0902  1.6005
18768TIP3    H277720   6.141   4.856   6.013 -1.4719 -0.0871 -2.2858
18769TIP3   OH277721   6.218   5.020   2.940  0.2521 -0.3616 -0.5200
18769TIP3    H177722   6.173   5.098   2.907 -0.4103 -0.0055  1.1442
18769TIP3    H277723   6.178   4.947   2.893 -1.2493  0.0637  0.0649
18770TIP3   OH277724   5.284   2.305   4.756 -0.4937 -0.1134 -0.0711
18770TIP3    H177725   5.285   2.399   4.739  1.0267 -0.0999 -0.0070
18770TIP3    H277726   5.227   2.269   4.689 -0.4045  0.7632 -0.6257
18771TIP3   OH277727   4.752   4.056  14.025 -0.2482  0.6331 -0.4371
18771TIP3    H177728   4.822   4.107  14.066  0.5738 -0.0932 -0.9213
18771TIP3    H277729   4.726   4.107  13.949 -1.0542  1.4738  0.3906
18772TIP3   OH277730   1.801   5.655  15.483  0.2510  0.4765  0.8039
18772TIP3    H177731   1.767   5.715  15.549  3.0085  1.3050  1.5494
18772TIP3    H277732   1.805   5.570  15.527  0.4122  0.6687  1.1686
18773TIP3   OH277733   2.126   3.239  15.177  0.2360 -0.3191  0.3064
18773TIP3    H177734   2.141   3.207  15.089  0.1901 -0.1507  0.2380
18773TIP3    H277735   2.077   3.320  15.166  0.1188 -0.3635  0.4919
18774TIP3   OH277736   4.772   5.977   2.647  0.0669  0.5275 -0.2679
18774TIP3    H177737   4.761   5.898   2.595 -2.7084 -0.0770  1.1078
18774TIP3    H277738   4.757   6.049   2.586 -1.5304 -0.1357 -0.6920
18775TIP3   OH277739   2.878   2.878   0.348  0.2339 -0.1724 -0.1164
18775TIP3    H177740   2.844   2.789   0.355 -0.6271  0.0208 -1.6731
18775TIP3    H277741   2.807   2.928   0.308  1.3157  0.8482 -0.8047
18776TIP3   OH277742   1.862   1.755   4.005  0.7491  0.2380  0.7271
18776TIP3    H177743   1.955   1.773   3.990  0.0732  3.4100  0.0283
18776TIP3    H277744   1.830   1.724   3.921  0.6079  1.8654  0.1508
18777TIP3   OH277745   0.079   3.986  12.619  0.0274 -0.2697 -0.6685
18777TIP3    H177746   0.171   3.987  12.591  0.3877  1.1173  0.5053
18777TIP3    H277747   0.041   4.064  12.580 -0.0059  0.5264  0.9138
18778TIP3   OH277748   0.967   3.055   1.971  0.5002 -0.8195 -0.3321
18778TIP3    H177749   0.995   3.146   1.961  1.5974 -0.6580  3.4348
18778TIP3    H277750   0.872   3.060   1.979  0.4647 -0.1162 -1.1974
18779TIP3   OH277751   5.499   4.054  14.281  0.4016  0.5189 -0.2264
18779TIP3    H177752   5.457   4.123  14.230 -0.3554 -0.4479 -0.9497
18779TIP3    H277753   5.446   4.047  14.361 -1.9280 -1.8734 -1.9032
18780TIP3   OH277754   3.896   5.933   5.940  0.1798  0.7796 -0.0528
18780TIP3    H177755   3.842   5.984   6.001 -0.2552  2.1772 -1.5725
18780TIP3    H277756   3.896   5.845   5.977 -2.6224  0.8759  0.3433
18781TIP3   OH277757   1.747   1.594  12.740 -0.1779 -0.0873 -0.0049
18781TIP3    H177758   1.700   1.510  12.733  0.1372 -0.2461 -0.1938
18781TIP3    H277759   1.683   1.653  12.780 -1.1524  0.1810 -1.9158
18782TIP3   OH277760   3.933   5.383  15.546  0.6338  0.3286 -0.0651
18782TIP3    H177761   3.970   5.470  15.528  0.7352  0.3525  0.2531
18782TIP3    H277762   3.848   5.402  15.585  0.7031  0.2870  0.1065
18783TIP3   OH277763   2.582   2.874   3.529  0.6205  0.2131 -0.7385
18783TIP3    H177764   2.522   2.801   3.515  0.2940  0.7535 -2.3304
18783TIP3    H277765   2.600   2.906   3.440  1.7373  1.2724 -0.1357
18784TIP3   OH277766   5.531   3.945  13.477 -0.3971 -0.4382 -0.3541
18784TIP3    H177767   5.514   4.016  13.415  1.6177 -0.1468 -0.6038
18784TIP3    H277768   5.490   3.974  13.559 -1.6490 -0.0892 -1.0836
18785TIP3   OH277769   4.715   0.649  12.321 -0.0262 -0.0543 -0.3634
18785TIP3    H177770   4.645   0.597  12.281 -1.7251  1.6613  0.2819
18785TIP3    H277771   4.791   0.590  12.323 -1.0202 -1.4706 -2.4283
18786TIP3   OH277772   3.384   5.955  11.994  0.1358 -0.3337 -0.2681
18786TIP3    H177773   3.440   5.878  11.993  0.8809  0.0793  2.6932
18786TIP3    H277774   3.427   6.018  11.937  1.1628 -1.0349 -0.2723
18787TIP3   OH277775   5.285   3.457  16.578 -0.6038  0.1394 -0.0594
18787TIP3    H177776   5.338   3.415  16.646 -0.5898  0.3345  0.0510
18787TIP3    H277777   5.227   3.516  16.625 -1.2872 -0.4597 -0.1334
18788TIP3   OH277778   2.160   4.096   6.671 -0.5474 -0.0438  0.4496
18788TIP3    H177779   2.125   4.166   6.616 -0.9176  0.7210  1.6519
18788TIP3    H277780   2.092   4.029   6.669  1.0337 -1.6983 -3.0933
18789TIP3   OH277781   5.734   1.074  16.257  0.2048 -0.3194 -0.6891
18789TIP3    H177782   5.826   1.085  16.234  0.6036  0.0046  1.0135
18789TIP3    H277783   5.692   1.044  16.176  2.2738 -3.0793 -0.7863
18790TIP3   OH277784   1.397   5.264   0.380 -0.8711  0.3226  0.0543
18790TIP3    H177785   1.414   5.327   0.310 -2.6766 -0.9172 -1.5733
18790TIP3    H277786   1.390   5.180   0.334  0.2459 -0.8632  2.0241
18791TIP3   OH277787   5.604   5.668   4.656  0.6630 -0.0028  0.2713
18791TIP3    H177788   5.633   5.598   4.597  0.7711 -0.2517  0.6221
18791TIP3    H277789   5.673   5.673   4.722  2.1326  2.3995 -1.3628
18792TIP3   OH277790   1.967   4.291  17.085 -0.1725 -0.0264  0.5684
18792TIP3    H177791   1.913   4.365  17.113 -0.9235 -0.6356  0.7353
18792TIP3    H277792   1.931   4.216  17.132 -0.4290 -0.7837 -0.8074
18793TIP3   OH277793   2.650   0.865  10.780  0.6592 -0.0384  0.3090
18793TIP3    H177794   2.643   0.808  10.856 -0.5922 -2.3401 -1.4781
18793TIP3    H277795   2.734   0.841  10.740  0.5655  0.0212  0.0737
18794TIP3   OH277796   6.529   4.547  12.394 -0.4757  0.3440 -0.2125
18794TIP3    H177797   6.546   4.575  12.304 -2.7815  1.0699 -0.4452
18794TIP3    H277798   6.513   4.453  12.388  2.7795 -0.3073 -0.0388
18795TIP3   OH277799   4.595   4.702   3.285  0.0471  0.0105  0.1912
18795TIP3    H177800   4.587   4.607   3.283  1.0373 -0.0515 -1.6987
18795TIP3    H277801   4.616   4.722   3.377  3.2796 -1.9235 -0.0434
18796TIP3   OH277802   5.189   0.014   2.723 -0.2304 -0.6408 -0.2528
18796TIP3    H177803   5.271   0.053   2.692 -0.1459 -0.2313  0.4747
18796TIP3    H277804   5.154  -0.030   2.646 -1.1380  2.2234 -1.5799
18797TIP3   OH277805   6.556   0.922   0.881  0.1910 -0.3929  0.5227
18797TIP3    H177806   6.641   0.879   0.874  0.0373 -0.3628 -2.2030
18797TIP3    H277807   6.493   0.851   0.890  0.2689 -0.5669 -0.2805
18798TIP3   OH277808   5.012   5.186   5.206 -0.3106  0.2423  0.2227
18798TIP3    H177809   4.981   5.277   5.209  1.0576  0.6955  1.2314
18798TIP3    H277810   5.099   5.192   5.166 -1.2126 -0.9352 -2.0108
18799TIP3   OH277811   0.574   2.991  15.556  0.3786  0.5375  0.1832
18799TIP3    H177812   0.656   3.000  15.604  1.1104  0.0415 -0.9576
18799TIP3    H277813   0.538   3.080  15.553  1.5280  0.9923 -0.4468
18800TIP3   OH277814   0.822   2.177  14.695 -0.0021 -0.1102 -0.2955
18800TIP3    H177815   0.911   2.154  14.667 -0.3155 -0.2967 -1.1597
18800TIP3    H277816   0.772   2.095  14.687 -0.2946  0.0379  0.0050
18801TIP3   OH277817   1.363   4.840  16.319 -0.0321  0.2090  0.3755
18801TIP3    H177818   1.311   4.919  16.335 -0.5138  0.0551 -0.4351
18801TIP3    H277819   1.301   4.776  16.286  0.7416  0.1575 -1.0255
18802TIP3   OH277820   2.989   2.516   5.620  0.4764 -0.8258  0.5992
18802TIP3    H177821   2.944   2.571   5.684 -0.2194  0.4244 -0.9280
18802TIP3    H277822   2.941   2.433   5.621 -0.9250 -0.0327  0.0866
18803TIP3   OH277823   1.296   5.535   4.369 -0.0878  0.1996  0.9153
18803TIP3    H177824   1.243   5.546   4.291  0.5835 -2.3605  0.0509
18803TIP3    H277825   1.233   5.530   4.441 -0.8673 -0.4088  0.1868
18804TIP3   OH277826   1.814   2.968   1.535 -0.6511 -0.4448 -0.3492
18804TIP3    H177827   1.733   2.965   1.483 -1.7593 -1.4572  1.3950
18804TIP3    H277828   1.795   3.030   1.606  0.1125 -0.6703  0.0591
18805TIP3   OH277829   6.471   0.274   0.789 -0.0628 -0.3002 -0.3561
18805TIP3    H177830   6.518   0.276   0.873 -0.2908 -2.7837 -0.1504
18805TIP3    H277831   6.392   0.223   0.807 -0.7083  0.1812 -1.7907
18806TIP3   OH277832   3.158   3.141   0.451  0.1414 -0.4233  0.4530
18806TIP3    H177833   3.239   3.192   0.454 -0.3764  0.4560 -0.3696
18806TIP3    H277834   3.120   3.151   0.538 -0.6360  1.7259 -0.1208
18807TIP3   OH277835   3.132   5.282   6.315  0.2545  0.3831 -0.3739
18807TIP3    H177836   3.058   5.340   6.330 -0.3766 -0.4218 -0.3196
18807TIP3    H277837   3.109   5.234   6.235  0.9932  0.5683 -0.6990
18808TIP3   OH277838   2.536   5.946   0.881 -0.1801 -0.6850 -0.2715
18808TIP3    H177839   2.598   5.942   0.953  1.3138  1.6453 -1.3839
18808TIP3    H277840   2.585   5.915   0.805 -0.0998  1.8416 -1.3006
18809TIP3   OH277841   1.964   1.456  14.369 -0.2152  0.4802  0.0967
18809TIP3    H177842   1.944   1.402  14.446  0.4780 -1.3955 -0.9985
18809TIP3    H277843   1.886   1.510  14.356 -1.5065 -1.2810  0.3919
18810TIP3   OH277844   2.357   2.366  11.344  0.2828  0.0716 -0.2379
18810TIP3    H177845   2.264   2.354  11.325  0.3313 -1.3078  0.3074
18810TIP3    H277846   2.359   2.397  11.434  0.3433  0.1719 -0.2754
18811TIP3   OH277847   6.302   2.198  13.629 -0.4658 -0.3326  0.1727
18811TIP3    H177848   6.388   2.172  13.596 -0.1497  2.2691 -1.1542
18811TIP3    H277849   6.250   2.118  13.626  1.5232 -1.6341 -0.2610
18812TIP3   OH277850   2.713   1.100   0.227  0.1036  0.5761 -0.0177
18812TIP3    H177851   2.627   1.061   0.209  0.0422  0.9289 -0.4907
18812TIP3    H277852   2.724   1.166   0.159 -0.2126  2.0678  1.3314
18813TIP3   OH277853   3.406   2.968  12.421  0.1029 -0.2292  0.2200
18813TIP3    H177854   3.478   3.006  12.472 -0.0696 -0.5595  0.7128
18813TIP3    H277855   3.449   2.911  12.357  0.3040 -0.0498  0.1931
18814TIP3   OH277856   1.091   3.322  14.272 -0.1142  0.1298  0.1304
18814TIP3    H177857   1.069   3.298  14.182  0.7869 -0.3417  0.0375
18814TIP3    H277858   1.185   3.311  14.278  0.5346  4.5276 -0.1727
18815TIP3   OH277859   1.815   5.656  16.977 -0.3655  0.3565 -0.3356
18815TIP3    H177860   1.830   5.706  16.897  0.9509  0.1337 -0.2323
18815TIP3    H277861   1.786   5.570  16.946  1.1875 -0.0865 -0.6304
18816TIP3   OH277862   1.411   3.390  16.932 -0.0351  0.3122 -0.4494
18816TIP3    H177863   1.376   3.311  16.974  0.1090 -0.4537 -1.7604
18816TIP3    H277864   1.342   3.455  16.945  1.3911  1.0922  3.9325
18817TIP3   OH277865   0.280   6.251   1.477  0.2187  0.0642  0.6930
18817TIP3    H177866   0.330   6.290   1.549 -0.9993  2.8163  0.0966
18817TIP3    H277867   0.288   6.314   1.405 -2.1328 -0.5959 -0.1771
18818TIP3   OH277868   5.910   0.737  15.531  0.1942  0.3695 -0.2075
18818TIP3    H177869   6.001   0.759  15.513 -0.1245  0.3205 -1.9138
18818TIP3    H277870   5.865   0.821  15.536  0.2200  0.3699  0.0173
18819TIP3   OH277871   4.117   1.535  17.064  0.2264  0.0292  0.4047
18819TIP3    H177872   4.189   1.472  17.064  0.3085  0.1226  0.3933
18819TIP3    H277873   4.120   1.576  16.978  0.6981  0.6463  0.7167
18820TIP3   OH277874   2.721   0.669   4.536 -0.3753  0.0995  0.1003
18820TIP3    H177875   2.777   0.739   4.568  1.6582 -0.8747 -1.1892
18820TIP3    H277876   2.742   0.594   4.591  0.3538 -0.5344 -1.0101
18821TIP3   OH277877   1.549   4.055  12.736 -0.0360  0.3215 -0.0152
18821TIP3    H177878   1.498   4.064  12.656  0.8846  2.4866 -0.3984
18821TIP3    H277879   1.583   3.966  12.733  0.7289  0.6558 -2.5075
18822TIP3   OH277880   4.015   1.359   0.510  0.2691  0.7588  0.6087
18822TIP3    H177881   3.926   1.394   0.520  0.4015  0.9775  1.0420
18822TIP3    H277882   4.004   1.264   0.507  0.0911  0.7557  1.4000
18823TIP3   OH277883   3.738   3.311   2.829  0.0421  0.0469  0.5271
18823TIP3    H177884   3.827   3.285   2.854 -0.3944 -1.0584  0.9656
18823TIP3    H277885   3.742   3.406   2.823  1.4654 -0.0405 -0.2595
18824TIP3   OH277886   3.452   2.428  13.330 -0.4917 -0.5477  0.3304
18824TIP3    H177887   3.380   2.391  13.381 -1.9549 -0.4135 -1.5444
18824TIP3    H277888   3.447   2.522  13.346 -1.8469 -0.3495 -1.1045
18825TIP3   OH277889   1.501   4.014  14.315  0.1236  0.2788 -0.1979
18825TIP3    H177890   1.541   3.977  14.394 -1.4004  0.3813  0.6433
18825TIP3    H277891   1.441   4.080  14.348 -0.2379  0.5936 -1.4776
18826TIP3   OH277892   5.071   3.473   1.411  0.1296  0.3275 -0.1700
18826TIP3    H177893   5.139   3.539   1.396  0.1295  0.0763 -1.3663
18826TIP3    H277894   4.989   3.521   1.407  0.1320  0.2783 -0.9919
18827TIP3   OH277895   3.553   6.251  15.760 -0.1655  0.2780 -0.4066
18827TIP3    H177896   3.540   6.345  15.761  3.3497  0.8103  0.0830
18827TIP3    H277897   3.570   6.230  15.668 -1.6717 -0.0061 -0.6287
18828TIP3   OH277898   6.579   5.414  11.382 -0.3779  0.5344 -0.1540
18828TIP3    H177899   6.498   5.422  11.433 -0.0400 -1.2192  0.6945
18828TIP3    H277900   6.614   5.503  11.378 -1.6242  1.0724  0.6843
18829TIP3   OH277901   2.421   4.916   2.714  0.3280 -0.4705  0.0982
18829TIP3    H177902   2.393   4.994   2.762 -0.1747 -0.2057 -0.6178
18829TIP3    H277903   2.516   4.923   2.711  0.2782  0.1558 -0.0402
18830TIP3   OH277904   4.007   4.962  15.249 -0.5530 -0.3056 -0.6467
18830TIP3    H177905   3.943   5.026  15.279 -1.3261  0.3317 -3.4851
18830TIP3    H277906   3.975   4.933  15.164  1.0166 -2.7498 -0.4796
18831TIP3   OH277907   5.820   1.488   1.606 -0.7392  0.3984 -0.3599
18831TIP3    H177908   5.763   1.412   1.615 -1.0893  0.8527  1.3615
18831TIP3    H277909   5.823   1.504   1.512  1.4238 -3.3136 -1.0135
18832TIP3   OH277910   3.121   4.121   2.875  0.4146  0.1553  0.4897
18832TIP3    H177911   3.056   4.053   2.858 -1.3428  1.6955  0.8595
18832TIP3    H277912   3.203   4.085   2.841 -0.4678 -2.1354  0.7048
18833TIP3   OH277913   6.292   5.629   0.180  0.4958  0.0920  1.0888
18833TIP3    H177914   6.225   5.583   0.231 -0.5886 -0.7999 -1.1023
18833TIP3    H277915   6.250   5.711   0.154  0.0736 -0.6444 -0.6279
18834TIP3   OH277916   0.276   6.515  17.049 -0.7317 -0.1845 -0.3046
18834TIP3    H177917   0.206   6.533  17.112 -2.3620 -1.3519 -1.7047
18834TIP3    H277918   0.285   6.420  17.050  1.2304 -0.0006  0.2455
18835TIP3   OH277919   6.656   1.008   3.494  0.1887  0.4577  0.2154
18835TIP3    H177920   6.613   0.979   3.414  1.1506 -0.0214 -0.1419
18835TIP3    H277921   6.597   0.981   3.564 -0.3025  0.2030 -0.2911
18836TIP3   OH277922   6.304   6.366   2.184 -0.1435  0.0566  0.8660
18836TIP3    H177923   6.367   6.373   2.113  0.3889  0.2768  1.3468
18836TIP3    H277924   6.358   6.348   2.261 -0.8909 -2.1899  0.8714
18837TIP3   OH277925   3.284   1.831  14.054 -0.2769  0.5556 -0.2734
18837TIP3    H177926   3.196   1.822  14.019 -0.4202 -0.8442  0.3832
18837TIP3    H277927   3.341   1.829  13.978 -0.8072  1.6109 -0.7114
18838TIP3   OH277928   3.244   4.838   0.409  0.3182  0.2412 -0.7174
18838TIP3    H177929   3.161   4.885   0.394  0.0300  0.3344  1.0034
18838TIP3    H277930   3.233   4.755   0.364 -1.4121 -0.4457  0.8648
18839TIP3   OH277931   4.286   6.576   3.834 -0.4666  0.4488  0.5259
18839TIP3    H177932   4.340   6.644   3.876  1.2910  0.2547 -1.2899
18839TIP3    H277933   4.335   6.495   3.848 -1.2306 -0.0246  0.4499
18840TIP3   OH277934   0.452   2.724   2.812 -0.3218  0.0780 -0.4860
18840TIP3    H177935   0.448   2.691   2.903 -0.6160 -0.7018 -0.7705
18840TIP3    H277936   0.391   2.797   2.811 -0.5113 -0.0699 -0.1118
18841TIP3   OH277937   1.050   5.739   4.605 -0.0153 -0.1558  0.0801
18841TIP3    H177938   0.965   5.734   4.650  0.6099 -0.0453  1.2896
18841TIP3    H277939   1.088   5.652   4.617  0.9315  0.4171  1.3237
18842TIP3   OH277940   5.295   3.590   0.704  0.0592 -0.3988  0.2679
18842TIP3    H177941   5.203   3.579   0.726 -0.1530 -1.6426 -1.1601
18842TIP3    H277942   5.311   3.684   0.713 -2.0730  0.2480 -2.2246
18843TIP3   OH277943   3.117   2.612   2.516 -0.1788  0.0307  0.6834
18843TIP3    H177944   3.204   2.588   2.550  0.4488  0.6493 -0.4578
18843TIP3    H277945   3.104   2.703   2.544  0.0355  0.3101 -0.1102
18844TIP3   OH277946   6.778   3.297  13.762 -0.3651  0.2973  0.4036
18844TIP3    H177947   6.765   3.265  13.673  2.1800  0.3454 -0.0213
18844TIP3    H277948   6.718   3.245  13.816  0.4836 -2.0716 -0.8772
18845TIP3   OH277949   4.835   4.840   0.186 -0.4013  0.2728  0.0287
18845TIP3    H177950   4.833   4.929   0.224  1.1424  0.1018  0.5364
18845TIP3    H277951   4.827   4.782   0.262 -0.3151 -0.0371 -0.2013
18846TIP3   OH277952   4.501   3.028   0.099  0.2553  0.2866 -0.3471
18846TIP3    H177953   4.575   3.087   0.110 -0.5702  1.0974  1.0058
18846TIP3    H277954   4.427   3.086   0.079 -0.3613 -0.3742  0.0083
18847TIP3   OH277955   2.470   3.435   0.960 -0.0142 -0.0220 -0.5290
18847TIP3    H177956   2.524   3.386   0.897  1.3158 -1.3795  1.6191
18847TIP3    H277957   2.532   3.495   1.002 -0.1926 -1.3546  1.7148
18848TIP3   OH277958   4.527   5.726  16.380 -0.3668  0.1781 -0.2753
18848TIP3    H177959   4.512   5.638  16.414  0.1642  0.0389 -0.3989
18848TIP3    H277960   4.603   5.717  16.322 -1.0322  0.4770 -1.2165
18849TIP3   OH277961   2.012   6.264  15.075  0.1898  0.4058 -0.3483
18849TIP3    H177962   2.075   6.203  15.114 -0.9952 -0.1021  0.8319
18849TIP3    H277963   1.931   6.213  15.070 -0.0741  0.9910 -2.0174
18850TIP3   OH277964   4.554   2.126  13.607 -0.1694 -0.2521 -0.5130
18850TIP3    H177965   4.523   2.127  13.698 -1.5880  0.9121 -0.9822
18850TIP3    H277966   4.608   2.048  13.601  0.2828 -0.1201  1.4538
18851TIP3   OH277967   3.827   2.249  14.696 -0.1215 -0.1376 -0.0182
18851TIP3    H177968   3.865   2.337  14.686 -0.4636  0.0589  0.4221
18851TIP3    H277969   3.795   2.227  14.608 -0.7817  0.5200  0.0543
18852TIP3   OH277970   3.080   4.125   2.110  0.1027  0.2396  0.0915
18852TIP3    H177971   3.015   4.151   2.175 -1.5630 -0.4750 -1.2433
18852TIP3    H277972   3.029   4.105   2.031  1.9706 -0.0069 -1.1016
18853TIP3   OH277973   1.128   6.163  15.884 -0.0253 -0.1481  0.0266
18853TIP3    H177974   1.098   6.249  15.912  1.3600  0.6991 -1.0596
18853TIP3    H277975   1.094   6.153  15.795  1.5998  0.1895 -0.6505
18854TIP3   OH277976   0.575   1.345   2.479 -0.0593 -0.5040  0.3995
18854TIP3    H177977   0.525   1.415   2.438 -0.4749 -1.2143 -0.3136
18854TIP3    H277978   0.626   1.389   2.547 -0.8464  0.3812  0.4264
18855TIP3   OH277979   3.015   3.154   3.522  0.2071 -0.0280  0.3781
18855TIP3    H177980   3.036   3.087   3.587  1.7946  1.6925  1.6900
18855TIP3    H277981   2.956   3.110   3.461  1.0536 -2.5676  1.3087
18856TIP3   OH277982   0.047   1.661  14.114 -0.0993  0.1590 -0.1955
18856TIP3    H177983  -0.030   1.670  14.058  0.2231  0.2528 -0.6239
18856TIP3    H277984   0.106   1.603  14.065 -0.5316 -1.1456  0.8006
18857TIP3   OH277985   1.387   4.915  14.202  0.1330 -0.3546  0.1727
18857TIP3    H177986   1.303   4.879  14.229 -0.3218  0.2232 -0.4570
18857TIP3    H277987   1.439   4.918  14.282 -1.3010  1.6422  1.0649
18858TIP3   OH277988   2.812   5.112   2.217 -1.2805  0.1342  0.0668
18858TIP3    H177989   2.855   5.088   2.299 -2.1092 -0.6883  0.2715
18858TIP3    H277990   2.737   5.053   2.211 -2.1545  1.2805 -0.4850
18859TIP3   OH277991   2.663   3.811  14.958  0.1516 -0.0638  0.1685
18859TIP3    H177992   2.658   3.790  15.052  1.9272 -1.2247  0.0237
18859TIP3    H277993   2.612   3.743  14.915  0.5974 -0.4024  0.1774
18860TIP3   OH277994   0.025   5.900   5.719 -0.5350 -0.4122 -0.2817
18860TIP3    H177995   0.112   5.863   5.728 -0.5535 -0.1849  0.8962
18860TIP3    H277996  -0.028   5.828   5.685  0.6120  0.1329 -3.3718
18861TIP3   OH277997   0.417   5.960  14.767  0.3883 -0.3644 -0.8012
18861TIP3    H177998   0.335   5.979  14.813 -0.0868 -0.7442 -1.4928
18861TIP3    H277999   0.443   6.043  14.729  0.9131  0.0158  0.3472
18862TIP3   OH278000   4.327   1.758  12.366  0.2535  0.4223  0.1005
18862TIP3    H178001   4.330   1.744  12.272 -0.0476  3.2655 -0.3767
18862TIP3    H278002   4.418   1.769  12.392  0.2594  0.7368 -0.0513
18863TIP3   OH278003   4.281   4.719  15.347 -0.3431  0.2753  0.2225
18863TIP3    H178004   4.287   4.655  15.276 -2.2773  0.4877 -0.1637
18863TIP3    H278005   4.229   4.674  15.415 -2.7111  1.7954 -0.5234
18864TIP3   OH278006   5.188   2.815   3.096 -0.1406 -0.2894 -0.3410
18864TIP3    H178007   5.153   2.779   3.015 -1.6574 -0.3169  0.3174
18864TIP3    H278008   5.128   2.885   3.119 -0.6321 -1.3043  1.5792
18865TIP3   OH278009   1.049   3.304  11.366  0.4497 -0.2865 -0.2356
18865TIP3    H178010   1.100   3.325  11.444  1.7967  1.1138 -1.4718
18865TIP3    H278011   1.110   3.259  11.307 -0.0632  0.2682 -1.2149
18866TIP3   OH278012   1.671   1.230  11.477  0.4362  0.1383 -0.3915
18866TIP3    H178013   1.675   1.319  11.442  0.9676  0.1197 -0.3767
18866TIP3    H278014   1.588   1.227  11.526  0.7286  0.8232  0.1549
18867TIP3   OH278015   1.929   2.914  14.066 -0.1219  0.2231  0.0666
18867TIP3    H178016   1.953   2.985  14.126  1.1227  0.4955 -0.7332
18867TIP3    H278017   2.013   2.882  14.033 -0.8329  0.5527 -2.0851
18868TIP3   OH278018   0.869   4.916  12.158  0.4420  0.2268 -0.9245
18868TIP3    H178019   0.936   4.970  12.200  2.0176 -1.8379 -0.6877
18868TIP3    H278020   0.802   4.978  12.131  0.7640  1.9614  2.0118
18869TIP3   OH278021   1.131   2.976   6.274  0.1753  0.0677  0.1131
18869TIP3    H178022   1.173   3.062   6.265 -0.3117  0.2649 -0.3368
18869TIP3    H278023   1.181   2.919   6.217  1.6404 -0.3767  1.8148
18870TIP3   OH278024   5.551   2.885   0.344  0.7126 -0.1836  0.6279
18870TIP3    H178025   5.590   2.948   0.282 -0.1490  0.2814  0.5502
18870TIP3    H278026   5.591   2.801   0.322  1.3077  0.2052  0.2277
18871TIP3   OH278027   6.028   6.458  10.472  0.5900  0.4336 -0.4505
18871TIP3    H178028   6.092   6.480  10.539  0.9653  0.9328 -0.9710
18871TIP3    H278029   5.970   6.534  10.469 -0.5526 -0.3695  0.6276
18872TIP3   OH278030   1.501   5.512   1.533 -0.0492 -0.0248  0.6222
18872TIP3    H178031   1.419   5.501   1.485 -0.6216  2.4891  0.9221
18872TIP3    H278032   1.477   5.499   1.624 -0.1294  0.7042  0.7093
18873TIP3   OH278033   0.620   1.219   1.722  0.6633  0.4586  0.4907
18873TIP3    H178034   0.579   1.204   1.807  0.0841 -2.9283 -0.2913
18873TIP3    H278035   0.705   1.177   1.728  1.3934  1.8232 -0.0293
18874TIP3   OH278036   1.592   6.593  13.684 -0.6170  0.0005  0.1408
18874TIP3    H178037   1.531   6.535  13.729 -0.1799 -0.8368 -0.3429
18874TIP3    H278038   1.671   6.592  13.738 -1.0286  1.0779  0.7629
18875TIP3   OH278039   4.081   4.918  16.901 -0.0869 -0.0408 -0.4545
18875TIP3    H178040   4.057   4.827  16.883 -0.7364  0.1497 -0.5585
18875TIP3    H278041   4.177   4.919  16.897 -0.1386 -0.2900 -2.6195
18876TIP3   OH278042   2.292   1.132  15.227  0.3340  0.6300 -1.0661
18876TIP3    H178043   2.292   1.140  15.132  3.4761 -2.4799 -1.3894
18876TIP3    H278044   2.382   1.149  15.253  0.0937 -1.1489  1.0911
18877TIP3   OH278045   6.741   1.518  16.919  0.5914  0.1660 -0.3702
18877TIP3    H178046   6.785   1.446  16.963  0.9618  0.8175  0.3223
18877TIP3    H278047   6.684   1.475  16.855  0.6871 -0.7466  0.1461
18878TIP3   OH278048   5.789   4.001  13.695 -0.4915 -0.7073  0.0104
18878TIP3    H178049   5.752   3.915  13.678 -1.8513  0.2032 -1.8743
18878TIP3    H278050   5.829   3.994  13.782 -2.6248 -2.5472  0.8775
18879TIP3   OH278051   4.642   4.735  13.867 -0.0466  0.0463 -0.1777
18879TIP3    H178052   4.735   4.715  13.864 -0.1402 -0.5175  0.4400
18879TIP3    H278053   4.601   4.663  13.818 -0.3986 -1.4171  2.1772
18880TIP3   OH278054   4.763   0.691  16.076  0.2271  0.3371 -0.1540
18880TIP3    H178055   4.726   0.606  16.054 -0.1960  0.4159  0.2527
18880TIP3    H278056   4.784   0.731  15.992 -0.5670  0.2756 -0.3859
18881TIP3   OH278057   2.124   4.308  11.419 -0.0516 -0.0101  0.3145
18881TIP3    H178058   2.190   4.244  11.444 -0.2234 -0.6366 -0.8110
18881TIP3    H278059   2.054   4.256  11.378 -0.3398  0.8609 -0.3134
18882TIP3   OH278060   5.427   2.031   5.842 -0.4037 -0.0441  0.0958
18882TIP3    H178061   5.337   1.997   5.837 -0.2690 -0.3386 -0.3036
18882TIP3    H278062   5.425   2.110   5.787 -0.0746 -0.7982 -1.0143
18883TIP3   OH278063   5.166   6.196  13.285 -0.1955 -0.3518 -0.9577
18883TIP3    H178064   5.249   6.217  13.242 -0.0796 -1.3540 -1.2347
18883TIP3    H278065   5.148   6.106  13.260 -0.6756 -0.5922  0.2169
18884TIP3   OH278066   4.490   0.982  17.053  0.6388 -0.0802 -0.5373
18884TIP3    H178067   4.581   0.992  17.023  1.0826 -2.1104  0.0202
18884TIP3    H278068   4.494   0.910  17.116 -1.0458  1.1182  0.9884
18885TIP3   OH278069   0.860   5.827  13.711  0.3498  0.3807 -0.1744
18885TIP3    H178070   0.950   5.853  13.689  0.2213  1.1329  0.1806
18885TIP3    H278071   0.834   5.770  13.639  1.0632  0.2752 -0.3581
18886TIP3   OH278072   3.985   4.993   1.811  0.2521  0.0512 -0.1016
18886TIP3    H178073   3.959   5.062   1.750  0.0348  0.7488  0.7701
18886TIP3    H278074   4.000   5.038   1.894  0.6604 -0.8704  0.3419
18887TIP3   OH278075   1.801   5.358  16.984  0.4188 -0.1954  0.4300
18887TIP3    H178076   1.740   5.296  16.945 -0.8855  1.0582  0.4306
18887TIP3    H278077   1.872   5.364  16.920  0.3408 -1.3512  0.2261
18888TIP3   OH278078   1.591   1.088   5.886  0.1031 -0.2830  0.4284
18888TIP3    H178079   1.533   1.135   5.947 -0.0479  1.6980 -1.2048
18888TIP3    H278080   1.671   1.072   5.936  0.6914  2.9568  0.6269
18889TIP3   OH278081   5.721   0.381  15.762  0.5972 -0.0830 -0.1796
18889TIP3    H178082   5.693   0.472  15.752 -0.1009  0.0373  2.4868
18889TIP3    H278083   5.708   0.362  15.855  3.8472 -1.8913 -0.0229
18890TIP3   OH278084   5.693   1.985   3.112  0.3999  0.0671  0.3980
18890TIP3    H178085   5.641   2.060   3.142 -0.8032 -1.1306  1.3189
18890TIP3    H278086   5.742   2.019   3.037 -0.5198  1.6350  0.4846
18891TIP3   OH278087   2.692   5.748   3.201  0.2669  0.1011 -0.0470
18891TIP3    H178088   2.625   5.774   3.263 -1.3878  1.0865 -2.1914
18891TIP3    H278089   2.769   5.801   3.224 -0.6161  1.1081  0.5902
18892TIP3   OH278090   4.431   4.451   3.761  0.0255  0.2781  0.1615
18892TIP3    H178091   4.421   4.382   3.826 -0.9733  1.5947  1.4360
18892TIP3    H278092   4.520   4.485   3.776  1.2620 -1.9371 -1.7330
18893TIP3   OH278093   1.412   0.234  11.795 -0.0134  0.0888 -0.2592
18893TIP3    H178094   1.318   0.248  11.808 -0.0256 -1.1725  1.0869
18893TIP3    H278095   1.418   0.156  11.740  0.2748 -0.9877  1.2786
18894TIP3   OH278096   2.410   2.685  15.368  0.1739  0.1508 -0.4727
18894TIP3    H178097   2.501   2.693  15.396 -0.6736  0.5130  2.3560
18894TIP3    H278098   2.371   2.623  15.429 -1.2744 -0.7094 -2.2061
18895TIP3   OH278099   3.144   3.979  15.217  0.5807  0.4618 -0.0115
18895TIP3    H178100   3.150   3.900  15.271 -0.3084  0.9921  0.8746
18895TIP3    H278101   3.060   3.971  15.172  1.3524 -0.0138 -1.3978
18896TIP3   OH278102   6.626   3.090  11.909  0.4849  0.9568  0.7968
18896TIP3    H178103   6.606   3.034  11.834  3.5969 -0.6120  1.0688
18896TIP3    H278104   6.570   3.167  11.896  0.1429  0.2514 -2.5408
18897TIP3   OH278105   0.751   3.851  14.473 -0.2805  0.5956 -0.3045
18897TIP3    H178106   0.808   3.823  14.544 -0.2134  0.2683 -0.4889
18897TIP3    H278107   0.667   3.869  14.515 -0.5970 -0.8079 -0.3316
18898TIP3   OH278108   6.029   1.505  13.716 -0.2664 -0.4766 -0.1008
18898TIP3    H178109   5.996   1.491  13.805  1.8243  1.5590  1.0575
18898TIP3    H278110   6.122   1.525  13.728  0.1515 -0.6260 -2.7976
18899TIP3   OH278111   4.887   3.228   1.598 -0.1737  0.4888  0.0925
18899TIP3    H178112   4.965   3.275   1.625  2.0086 -2.5862 -0.5000
18899TIP3    H278113   4.876   3.160   1.664 -0.1940 -1.3504 -1.7414
18900TIP3   OH278114   1.706   0.519  12.912  0.2499  0.4189 -0.0341
18900TIP3    H178115   1.750   0.604  12.913  0.7475  0.1730 -0.7671
18900TIP3    H278116   1.619   0.537  12.876 -0.1447  0.8554  1.1254
18901TIP3   OH278117   1.283   6.352   0.382 -0.1215  0.0101  0.2860
18901TIP3    H178118   1.328   6.435   0.365 -0.9522  0.2702 -0.6674
18901TIP3    H278119   1.326   6.317   0.461  0.7352  0.9741  0.2532
18902TIP3   OH278120   2.592   3.810   2.541  0.3468 -0.2191 -0.0287
18902TIP3    H178121   2.505   3.770   2.548  0.0771  0.2476 -0.6709
18902TIP3    H278122   2.586   3.867   2.465  1.4890 -0.8534 -0.6022
18903TIP3   OH278123   4.697   1.811  12.997 -0.5712  0.0684 -0.2582
18903TIP3    H178124   4.757   1.769  12.935  0.0869 -0.6362  0.8478
18903TIP3    H278125   4.728   1.901  13.002  0.5823 -0.3615  0.5214
18904TIP3   OH278126   0.142   4.038  14.330 -0.7999  0.0954 -0.2632
18904TIP3    H178127   0.217   4.063  14.277 -0.2288 -2.0741 -0.5366
18904TIP3    H278128   0.098   3.970  14.278 -0.4762 -1.7479  1.7975
18905TIP3   OH278129   4.955   4.342   5.833 -1.0294  0.6601 -0.1531
18905TIP3    H178130   5.012   4.289   5.777  0.0213  1.2591  0.3477
18905TIP3    H278131   4.872   4.294   5.834 -0.0276 -1.1097  0.4846
18906TIP3   OH278132   0.742   1.765  14.157 -0.2682 -0.7908  0.8510
18906TIP3    H178133   0.720   1.747  14.065  3.2814  0.8328 -0.4148
18906TIP3    H278134   0.700   1.849  14.175 -0.4500 -0.8083  0.5276
18907TIP3   OH278135   3.780   3.705  12.460  0.3995  0.2075 -0.0329
18907TIP3    H178136   3.703   3.692  12.405  0.2160 -1.0803  0.5222
18907TIP3    H278137   3.788   3.801  12.468 -0.7573  0.3563 -0.6068
18908TIP3   OH278138   0.421   0.203  14.351  0.0515  0.2257  0.2971
18908TIP3    H178139   0.443   0.296  14.349  1.9927 -0.2336 -1.8425
18908TIP3    H278140   0.470   0.168  14.426  0.3456  0.6916  0.3198
18909TIP3   OH278141   4.710   4.292   1.165  0.0304 -0.0636  0.1674
18909TIP3    H178142   4.712   4.360   1.098  0.5529 -0.2640 -0.0247
18909TIP3    H278143   4.788   4.308   1.218 -0.0422 -0.2914  0.3452
18910TIP3   OH278144   3.142   3.426  13.877 -0.6607 -0.3117  0.3410
18910TIP3    H178145   3.102   3.513  13.884 -0.4810 -0.3731  2.4339
18910TIP3    H278146   3.206   3.423  13.949  0.1252 -1.7693 -0.3909
18911TIP3   OH278147   0.041   4.576   4.362  0.7122  0.2553 -0.0941
18911TIP3    H178148  -0.003   4.614   4.285  1.4256 -0.5036 -0.8848
18911TIP3    H278149  -0.018   4.506   4.390 -0.4515  1.7093  1.1770
18912TIP3   OH278150   5.187   0.203   0.404 -0.0658  0.1765  0.2567
18912TIP3    H178151   5.280   0.202   0.428  0.5730  2.0861 -1.9839
18912TIP3    H278152   5.186   0.221   0.310 -2.7172  0.3192  0.2645
18913TIP3   OH278153   5.896   4.694  15.388  0.2990  0.4873 -0.1931
18913TIP3    H178154   5.841   4.626  15.427  1.9892 -0.6497  0.2216
18913TIP3    H278155   5.860   4.776  15.422 -0.4236 -0.3122  0.9786
18914TIP3   OH278156   2.717   3.645  14.410  0.4331  0.7764 -0.3349
18914TIP3    H178157   2.733   3.586  14.336  0.2903 -2.4916  2.1554
18914TIP3    H278158   2.629   3.680  14.394  0.0351 -0.6041 -1.2189
18915TIP3   OH278159   2.076   0.421  16.464 -0.0522 -0.5228 -0.2653
18915TIP3    H178160   2.084   0.468  16.547 -1.1734 -1.2555  0.2645
18915TIP3    H278161   2.167   0.412  16.433  0.4158 -0.6591  1.1064
18916TIP3   OH278162   0.467   5.921  16.477 -0.0703 -0.1160  0.1885
18916TIP3    H178163   0.403   5.954  16.540  0.6057  1.8904 -0.1336
18916TIP3    H278164   0.543   5.979  16.487  0.7221 -0.8660 -1.2336
18917TIP3   OH278165   5.012   6.406   4.373 -0.2464  0.0573 -0.1661
18917TIP3    H178166   5.011   6.370   4.462 -0.9265  0.9338  0.2000
18917TIP3    H278167   5.101   6.391   4.342  0.6730  1.7695  1.5210
18918TIP3   OH278168   1.600   5.008   3.832  0.2136 -1.1768 -0.3490
18918TIP3    H178169   1.540   4.950   3.879  1.4260 -2.0161  0.1991
18918TIP3    H278170   1.571   5.003   3.741 -0.5589 -1.5651 -0.0892
18919TIP3   OH278171   0.730   2.351  12.480 -0.4083  0.4555 -0.0953
18919TIP3    H178172   0.816   2.384  12.454 -0.1641 -0.6540 -0.6962
18919TIP3    H278173   0.746   2.262  12.511 -1.2711  0.4110  0.2532
18920TIP3   OH278174   1.003   1.052   3.449  0.0910 -0.5854  0.2000
18920TIP3    H178175   1.006   1.117   3.378 -1.2266 -0.9229 -0.1787
18920TIP3    H278176   1.092   1.020   3.456  0.7752  1.2739  0.3923
18921TIP3   OH278177   2.220   3.132   4.347  0.3458 -0.4007  0.0159
18921TIP3    H178178   2.198   3.219   4.380  0.4664 -0.5465  0.4856
18921TIP3    H278179   2.153   3.075   4.384  0.3549 -0.5304 -0.1686
18922TIP3   OH278180   1.923   2.317  14.974  0.2387  0.1981  0.0065
18922TIP3    H178181   1.944   2.389  15.034 -0.4436  0.5375 -0.1521
18922TIP3    H278182   1.884   2.360  14.898  0.3357 -0.3003 -0.3237
18923TIP3   OH278183   4.347   5.170  14.700  0.7915 -0.0051 -0.4814
18923TIP3    H178184   4.281   5.103  14.683  0.6927  0.2552 -1.0970
18923TIP3    H278185   4.318   5.211  14.782 -0.3279  0.7583 -1.2506
18924TIP3   OH278186   1.062   0.645   4.522  0.3237  0.0797 -0.2593
18924TIP3    H178187   1.128   0.698   4.567  1.2494 -0.4886 -0.9296
18924TIP3    H278188   1.109   0.605   4.449 -0.0037 -2.7611  1.0106
18925TIP3   OH278189   4.482   5.207   2.064  0.2419 -0.1992  0.3579
18925TIP3    H178190   4.495   5.151   1.988  2.4204  0.8371 -0.0815
18925TIP3    H278191   4.495   5.150   2.139 -0.8788 -1.0036 -0.0591
18926TIP3   OH278192   2.104   4.223  12.232  0.9433  0.0042  0.5877
18926TIP3    H178193   2.100   4.139  12.277 -0.0412  0.0282  0.5550
18926TIP3    H278194   2.019   4.263  12.248  0.6572  0.0937 -1.1515
18927TIP3   OH278195   2.173   1.083  14.404  0.0687  0.1985 -0.2806
18927TIP3    H178196   2.178   1.063  14.311  0.0794  2.2884 -0.7540
18927TIP3    H278197   2.206   1.172  14.412 -0.2075  0.1647  1.6902
18928TIP3   OH278198   1.773   5.191  14.854 -0.3588 -0.1831 -0.4058
18928TIP3    H178199   1.708   5.179  14.924 -0.8823 -0.4786 -0.9353
18928TIP3    H278200   1.753   5.276  14.817  0.1499  0.1316  0.0408
18929TIP3   OH278201   6.239   5.725  12.934  0.1384  0.0038 -0.7525
18929TIP3    H178202   6.282   5.806  12.961  1.9055 -0.5711 -1.7867
18929TIP3    H278203   6.310   5.668  12.904 -0.8291 -2.7347  1.8524
18930TIP3   OH278204   6.761   5.552   2.551 -0.1163 -0.7285 -0.1463
18930TIP3    H178205   6.671   5.549   2.582 -0.4843  2.6283 -0.7324
18930TIP3    H278206   6.814   5.553   2.630 -0.6456 -1.4529  0.2199
18931TIP3   OH278207   3.305   5.740   1.515 -0.2050 -0.7520 -0.1382
18931TIP3    H178208   3.218   5.779   1.505 -0.1633 -0.5076  0.4390
18931TIP3    H278209   3.338   5.731   1.425 -1.0575 -1.3710 -0.3984
18932TIP3   OH278210   1.734   2.538  14.122  0.7672 -0.0165 -0.3195
18932TIP3    H178211   1.701   2.614  14.073 -0.0257 -1.0313 -1.3880
18932TIP3    H278212   1.718   2.561  14.214 -0.8588  0.4847 -0.6972
18933TIP3   OH278213   4.229   4.696  16.282  0.3707  0.1143 -0.4356
18933TIP3    H178214   4.164   4.766  16.273 -0.1373 -0.3032 -0.1084
18933TIP3    H278215   4.303   4.724  16.229 -0.0855  0.5983 -0.8185
18934TIP3   OH278216   4.798   4.449   0.605 -0.5696 -0.2539 -0.1334
18934TIP3    H178217   4.762   4.523   0.654  0.6251  0.5336 -0.4016
18934TIP3    H278218   4.723   4.410   0.562 -1.3237  0.3718  0.5921
18935TIP3   OH278219   2.849   6.146  15.123  0.3587  0.2348  0.1137
18935TIP3    H178220   2.891   6.094  15.192  2.2615  0.7946 -0.5826
18935TIP3    H278221   2.788   6.085  15.081  1.5890 -1.0731  0.1677
18936TIP3   OH278222   0.955   2.067  12.473 -0.1534 -0.8767  0.3160
18936TIP3    H178223   0.917   1.986  12.508  1.0495 -1.4476  0.3498
18936TIP3    H278224   0.985   2.043  12.385  1.4397 -0.8721  0.8295
18937TIP3   OH278225   0.887   2.659   0.902  0.2319 -0.4290 -0.6173
18937TIP3    H178226   0.857   2.594   0.838  0.2726 -0.7577 -0.3009
18937TIP3    H278227   0.965   2.696   0.862  0.4224 -0.8378 -0.6326
18938TIP3   OH278228   2.953   1.268   2.320  0.3468  0.5125 -0.4507
18938TIP3    H178229   2.998   1.343   2.280  2.2029  0.4261  1.3665
18938TIP3    H278230   2.977   1.273   2.412 -2.2219 -0.4468  0.2869
18939TIP3   OH278231   2.065   5.588   1.925  0.1327 -0.4474 -0.0788
18939TIP3    H178232   2.000   5.639   1.876 -0.6659 -0.0454  1.3878
18939TIP3    H278233   2.145   5.640   1.921 -0.6618  0.9029  1.3547
18940TIP3   OH278234   2.270   4.052  16.064 -0.0364 -0.1026 -0.1564
18940TIP3    H178235   2.271   3.957  16.054  0.0796 -0.1004 -0.1619
18940TIP3    H278236   2.359   4.074  16.092 -0.5525 -0.1864  1.6177
18941TIP3   OH278237   4.684   4.345   6.617 -0.9317  0.4987  0.0503
18941TIP3    H178238   4.767   4.297   6.622 -0.8702  0.7278  1.4094
18941TIP3    H278239   4.700   4.415   6.554 -0.5137 -0.2841 -0.7108
18942TIP3   OH278240   3.406   2.140   3.299 -0.0717 -0.2565  0.0526
18942TIP3    H178241   3.385   2.221   3.252  0.1645 -0.3864 -0.2783
18942TIP3    H278242   3.455   2.169   3.376 -0.8787 -0.0039  0.4830
18943TIP3   OH278243   0.241   6.777  13.395 -0.0064 -0.3134 -0.8169
18943TIP3    H178244   0.217   6.855  13.445  0.1607  0.9341 -2.6292
18943TIP3    H278245   0.332   6.759  13.418 -0.3070 -0.4870  0.2462
18944TIP3   OH278246   2.326   2.795  14.697  0.0242  0.0304 -0.0945
18944TIP3    H178247   2.251   2.738  14.715  1.2293 -1.7957 -0.6210
18944TIP3    H278248   2.315   2.821  14.605  0.0494 -0.2688 -0.1836
18945TIP3   OH278249   3.017   1.684   1.327  0.3158 -0.3690 -0.7457
18945TIP3    H178250   3.111   1.680   1.347 -0.0053  1.2893  1.3798
18945TIP3    H278251   2.976   1.704   1.412 -1.8369  0.1405 -1.8815
18946TIP3   OH278252   4.513   3.850  10.904  0.2518  0.1146  0.1075
18946TIP3    H178253   4.506   3.755  10.900 -0.1496  0.1487 -0.0512
18946TIP3    H278254   4.602   3.869  10.877  0.1755 -0.1850 -0.3580
18947TIP3   OH278255   6.266   4.678   5.087  0.0595  0.5999 -0.4258
18947TIP3    H178256   6.189   4.629   5.056  0.1517  0.0174  0.2597
18947TIP3    H278257   6.253   4.687   5.181  0.3363  1.3968 -0.4614
18948TIP3   OH278258   1.157   5.653  12.160  0.0111  0.2239  0.7968
18948TIP3    H178259   1.131   5.698  12.080 -2.2498 -1.0252  0.7886
18948TIP3    H278260   1.253   5.657  12.159 -0.0859  3.3061 -0.1413
18949TIP3   OH278261   4.202   4.672   1.641  0.1486 -0.2088  0.5643
18949TIP3    H178262   4.107   4.669   1.653 -0.2065  3.0393 -0.8457
18949TIP3    H278263   4.235   4.720   1.716  0.3259  1.1590 -0.3655
18950TIP3   OH278264   1.007   5.494   3.137  0.1596  0.2815 -0.1513
18950TIP3    H178265   1.004   5.588   3.155  1.7650  0.2966  0.1122
18950TIP3    H278266   0.993   5.487   3.042 -0.8598  0.7118 -0.0378
18951TIP3   OH278267   5.191   2.411   1.538  0.5138  0.7517  0.2818
18951TIP3    H178268   5.169   2.417   1.631 -2.6111  1.8664 -0.4670
18951TIP3    H278269   5.190   2.502   1.507 -0.6427  0.2040 -1.3121
18952TIP3   OH278270   3.498   5.436  13.152  0.8360 -0.5771 -0.0488
18952TIP3    H178271   3.526   5.516  13.108  1.0258 -0.3103  0.5529
18952TIP3    H278272   3.402   5.438  13.148  0.7418  0.8756  2.0441
18953TIP3   OH278273   2.721   5.974   2.710  0.2139  0.3872  0.1506
18953TIP3    H178274   2.749   6.062   2.685  3.0262 -0.2017  1.0210
18953TIP3    H278275   2.764   5.916   2.646  0.8582 -0.5443  1.3950
18954TIP3   OH278276   5.320   2.053   3.590 -1.1357 -0.2889  0.0096
18954TIP3    H178277   5.387   2.121   3.591 -1.3305 -0.0964  0.7576
18954TIP3    H278278   5.286   2.052   3.501 -0.2690 -0.2585 -0.3258
18955TIP3   OH278279   5.858   6.716  10.955  0.0716 -0.0905 -0.3236
18955TIP3    H178280   5.837   6.791  11.010  1.1557 -0.0921  0.0970
18955TIP3    H278281   5.873   6.753  10.868  0.0165  0.1154 -0.2452
18956TIP3   OH278282   5.064   4.588  11.069  0.1540  0.5746  0.7349
18956TIP3    H178283   5.088   4.568  10.979 -0.8369  0.3467  0.5166
18956TIP3    H278284   5.002   4.662  11.062 -0.6500 -0.0457  1.1597
18957TIP3   OH278285   4.634   2.338   3.353 -0.5294  0.4197  0.1853
18957TIP3    H178286   4.703   2.290   3.400 -0.6040 -0.1878 -0.3073
18957TIP3    H278287   4.552   2.297   3.381 -0.5398 -0.3243 -0.8734
18958TIP3   OH278288   3.671   2.359  17.085 -1.0467  0.3234  0.2265
18958TIP3    H178289   3.578   2.377  17.099 -0.9803  1.4131 -0.6444
18958TIP3    H278290   3.716   2.411  17.151 -0.9012  2.7018 -1.6791
18959TIP3   OH278291   5.931   2.192   5.654  0.6333 -1.0470  0.8152
18959TIP3    H178292   5.869   2.149   5.595  0.2276 -0.5160  0.8491
18959TIP3    H278293   5.918   2.285   5.638  2.0970 -0.9488  0.1337
18960TIP3   OH278294   1.557   6.157   2.694 -0.4000  0.0071 -0.1046
18960TIP3    H178295   1.558   6.126   2.604 -0.0427 -0.4332  0.0472
18960TIP3    H278296   1.505   6.237   2.692 -1.1131 -0.4696 -0.5421
18961TIP3   OH278297   1.808   3.782   4.940 -0.1445  0.3438  0.0836
18961TIP3    H178298   1.793   3.832   4.860 -0.3969  1.0993  0.5981
18961TIP3    H278299   1.903   3.780   4.950 -0.0844 -0.2451 -0.5362
18962TIP3   OH278300   5.708   0.648  14.370  0.1817  0.6757  0.3921
18962TIP3    H178301   5.779   0.585  14.357 -0.5119  0.0679 -0.4772
18962TIP3    H278302   5.715   0.673  14.462  0.3749 -0.7818  0.7780
18963TIP3   OH278303   2.910   1.559  14.520  0.2578 -0.4974 -0.3380
18963TIP3    H178304   2.991   1.513  14.496  0.7348 -0.2431  0.7553
18963TIP3    H278305   2.885   1.606  14.441  2.2221  0.9549 -0.1457
18964TIP3   OH278306   3.620   2.221   2.687  0.4540  0.3896 -0.0652
18964TIP3    H178307   3.707   2.244   2.655  1.9147 -1.5116  2.2795
18964TIP3    H278308   3.635   2.189   2.776 -2.5735 -0.6265  0.1545
18965TIP3   OH278309   0.974   5.121   2.977  0.1881  0.5305  0.9615
18965TIP3    H178310   1.048   5.060   2.984 -0.1976 -0.0743 -0.0766
18965TIP3    H278311   0.928   5.094   2.897 -2.6397 -0.7638  2.9171
18966TIP3   OH278312   4.640   3.642   5.724  0.4174 -0.3845 -0.4015
18966TIP3    H178313   4.574   3.655   5.656  0.5095  0.3795 -0.3540
18966TIP3    H278314   4.614   3.701   5.795  1.5884  0.5381 -0.7091
18967TIP3   OH278315   6.074   4.306  16.065  0.5753  0.0925 -0.1753
18967TIP3    H178316   6.158   4.353  16.069 -0.6793  2.5647 -1.6952
18967TIP3    H278317   6.011   4.372  16.036 -2.0128 -1.6129  1.3721
18968TIP3   OH278318   3.102   3.496   3.858  0.3945  0.2285 -0.8700
18968TIP3    H178319   3.031   3.547   3.898  0.2379 -1.0922  0.5700
18968TIP3    H278320   3.088   3.407   3.889  0.7052 -0.7086 -3.3041
18969TIP3   OH278321   2.805   2.659  11.417  0.2990  0.0611  0.6157
18969TIP3    H178322   2.850   2.594  11.364 -0.0343  0.2916  0.0405
18969TIP3    H278323   2.852   2.741  11.401 -0.0458  0.2102  0.3730
18970TIP3   OH278324   2.311   2.674   6.049  0.4295 -0.3833 -0.0788
18970TIP3    H178325   2.220   2.680   6.019  0.6775  1.2913 -0.5389
18970TIP3    H278326   2.362   2.674   5.968  0.7598 -3.9381  0.0494
18971TIP3   OH278327   0.396   4.061   1.022 -0.3047  0.1642 -0.4872
18971TIP3    H178328   0.456   3.987   1.011  0.3814  0.7731 -0.9594
18971TIP3    H278329   0.433   4.111   1.095 -1.7437 -0.8899  0.9700
18972TIP3   OH278330   1.955   3.261  15.650  0.5034  0.1311 -0.5216
18972TIP3    H178331   1.879   3.305  15.687  1.3326 -0.6254  2.1662
18972TIP3    H278332   2.029   3.314  15.676  0.9872  0.6630 -2.8254
18973TIP3   OH278333   2.714   0.347  14.314 -0.2284 -0.1280  0.2556
18973TIP3    H178334   2.753   0.417  14.367 -0.2766  0.1315 -0.0516
18973TIP3    H278335   2.625   0.376  14.297  0.8279  1.4977 -2.9688
18974TIP3   OH278336   2.606   3.136  16.407  0.1383 -0.3799 -0.3953
18974TIP3    H178337   2.603   3.230  16.389 -0.0850 -0.0609  1.2465
18974TIP3    H278338   2.610   3.129  16.502  2.4403 -1.9944 -0.5672
18975TIP3   OH278339   1.340   1.236  15.267  0.1110 -0.5258  0.2127
18975TIP3    H178340   1.321   1.150  15.230  0.1146 -0.4448  0.0251
18975TIP3    H278341   1.403   1.275  15.207 -1.4967  0.4686 -0.8810
18976TIP3   OH278342   6.710   1.733   1.428 -0.1012 -0.4037  0.1752
18976TIP3    H178343   6.775   1.799   1.403  1.4435 -1.9695 -0.0225
18976TIP3    H278344   6.636   1.748   1.368  0.6117  0.5281 -0.4879
18977TIP3   OH278345   0.211   0.549  13.960  0.0198  0.0896 -0.3020
18977TIP3    H178346   0.179   0.626  13.914  2.4311  0.9653 -0.5714
18977TIP3    H278347   0.306   0.560  13.963  0.1437 -1.2514  2.5536
18978TIP3   OH278348   0.643   3.705  10.755  0.3874  0.2469 -0.2774
18978TIP3    H178349   0.615   3.680  10.843  0.3846  0.0073 -0.3463
18978TIP3    H278350   0.562   3.722  10.708  0.2414 -2.2626 -1.0249
18979TIP3   OH278351   3.294   0.317  13.676  0.4548 -0.3377 -0.9515
18979TIP3    H178352   3.298   0.259  13.752 -0.4995  2.2760  1.1782
18979TIP3    H278353   3.385   0.335  13.654  0.7671 -2.9862 -1.9521
18980TIP3   OH278354   5.829   0.469   1.584 -0.0021  0.0104  0.9792
18980TIP3    H178355   5.741   0.446   1.553  0.8833 -1.0611 -0.8179
18980TIP3    H278356   5.848   0.552   1.540 -0.7972  1.1757  2.7680
18981TIP3   OH278357   2.496   5.043  14.826  0.4960  0.2810  0.2654
18981TIP3    H178358   2.451   4.998  14.897  0.2114  1.9851  1.2004
18981TIP3    H278359   2.431   5.106  14.794  1.2211  0.7312 -0.3327
18982TIP3   OH278360   4.522   3.456  14.822  0.0357  0.7481 -0.2596
18982TIP3    H178361   4.476   3.384  14.780  0.0250 -0.9266  2.4753
18982TIP3    H278362   4.455   3.524  14.832 -0.8463 -0.1464  0.0878
18983TIP3   OH278363   0.435   6.010   4.291 -0.2473 -0.2585  0.1929
18983TIP3    H178364   0.481   6.076   4.343 -0.8829  0.5321 -0.2383
18983TIP3    H278365   0.386   5.959   4.355  2.4542 -2.1522  0.8526
18984TIP3   OH278366   1.611   4.941   6.279 -0.1011  0.2641 -0.3297
18984TIP3    H178367   1.578   4.863   6.326 -1.5376  0.4256 -1.0444
18984TIP3    H278368   1.629   4.910   6.191  0.8692  0.3763 -0.1698
18985TIP3   OH278369   5.693   4.398   2.199  0.0598  0.1494  0.5621
18985TIP3    H178370   5.607   4.366   2.226  0.2981  1.1182  2.4983
18985TIP3    H278371   5.755   4.347   2.251  0.6845 -0.4993 -0.7762
18986TIP3   OH278372   1.799   0.803   1.613 -0.2796  0.2959 -0.1678
18986TIP3    H178373   1.784   0.747   1.689 -0.1005 -1.3872 -1.3447
18986TIP3    H278374   1.884   0.775   1.579 -0.9966  0.0265 -1.8155
18987TIP3   OH278375   0.894   1.810  11.661  0.4481  0.0111 -0.1726
18987TIP3    H178376   0.886   1.867  11.738 -2.0380 -1.3829  0.6607
18987TIP3    H278377   0.902   1.722  11.697 -2.2621 -0.8176 -1.4578
18988TIP3   OH278378   1.688   6.458  12.805 -0.4252 -0.1339  0.2727
18988TIP3    H178379   1.628   6.530  12.786 -1.2026 -0.7317  0.4065
18988TIP3    H278380   1.632   6.380  12.802  0.2808 -0.6588  0.7754
18989TIP3   OH278381   2.679   0.593  12.165  0.4320 -0.4498  0.0397
18989TIP3    H178382   2.618   0.658  12.129 -1.1012 -2.1588 -0.5479
18989TIP3    H278383   2.745   0.582  12.097  1.4004  1.3594  0.6429
18990TIP3   OH278384   4.170   0.812  12.382 -0.1288 -0.0339  0.4058
18990TIP3    H178385   4.171   0.725  12.420  1.4189 -0.2771 -0.1669
18990TIP3    H278386   4.240   0.859  12.427 -0.8596  0.8829  0.6132
18991TIP3   OH278387   4.439   1.584  10.608  0.7484 -0.1266  0.0503
18991TIP3    H178388   4.446   1.498  10.650 -0.9243 -1.1346 -1.6519
18991TIP3    H278389   4.424   1.565  10.516  0.1331  1.9976 -0.3279
18992TIP3   OH278390   2.439   3.173  13.761 -0.1558  0.7658 -0.4218
18992TIP3    H178391   2.505   3.126  13.813 -0.7520 -0.1836 -0.5029
18992TIP3    H278392   2.386   3.104  13.722 -2.0544  1.5211  0.7463
18993TIP3   OH278393   1.048   5.779  17.021 -0.5644  0.1807  0.3147
18993TIP3    H178394   1.029   5.865  16.985  0.3001 -0.2482 -1.2137
18993TIP3    H278395   1.143   5.770  17.013 -0.7417 -1.2493 -0.3364
18994TIP3   OH278396   2.896   2.530   2.253 -0.4226  0.2131  0.4105
18994TIP3    H178397   2.839   2.517   2.177 -1.1849 -1.7153  1.2911
18994TIP3    H278398   2.930   2.443   2.273  0.7624  0.9175  1.5185
18995TIP3   OH278399   5.325   4.904  14.344  0.4376 -0.5436  0.3246
18995TIP3    H178400   5.363   4.990  14.328 -1.4332  0.3380  0.4938
18995TIP3    H278401   5.266   4.917  14.418  0.0249 -1.9326  0.2509
18996TIP3   OH278402   1.578   0.866   4.832  0.6507  0.4546  0.2512
18996TIP3    H178403   1.539   0.892   4.916  0.2043  0.6011 -0.0012
18996TIP3    H278404   1.507   0.874   4.769  0.5140 -1.3225  0.1532
18997TIP3   OH278405   1.319   4.165   2.313  0.1228 -0.0898  0.4170
18997TIP3    H178406   1.399   4.117   2.290  0.1034  0.4445 -0.7974
18997TIP3    H278407   1.254   4.137   2.249  0.2655  1.9317 -0.6832
18998TIP3   OH278408   2.820   0.519  14.716  0.0570 -0.5800  0.5359
18998TIP3    H178409   2.761   0.590  14.739  0.0713 -0.4027  0.0269
18998TIP3    H278410   2.907   0.552  14.739  0.0066 -0.6620  0.8487
18999TIP3   OH278411   6.571   6.515  16.263  0.2883 -0.1708  0.3006
18999TIP3    H178412   6.528   6.586  16.310  0.1920 -1.8681  2.9013
18999TIP3    H278413   6.631   6.558  16.202 -1.5876  2.1420  0.0247
19000TIP3   OH278414   1.656   3.813  13.034  0.4123  0.3033 -0.1283
19000TIP3    H178415   1.605   3.893  13.043  0.9942  0.9069 -1.8865
19000TIP3    H278416   1.617   3.768  12.959 -0.7703 -1.7309  1.6937
19001TIP3   OH278417   4.822   4.634   2.693 -0.0299 -0.6297 -0.3539
19001TIP3    H178418   4.742   4.610   2.646  0.8349 -3.7212 -0.3042
19001TIP3    H278419   4.796   4.637   2.785 -0.4694  0.1365 -0.4929
19002TIP3   OH278420   5.679   1.010   4.353  0.2205  0.5048  0.7448
19002TIP3    H178421   5.650   0.922   4.330  1.8541  0.4182 -1.0903
19002TIP3    H278422   5.616   1.040   4.419 -0.6168 -1.8396  1.0367
19003TIP3   OH278423   0.224   4.294   2.701 -0.1544 -0.6047  0.2527
19003TIP3    H178424   0.190   4.211   2.735 -0.2990  0.1343  1.9640
19003TIP3    H278425   0.160   4.359   2.729  0.9434  0.3473  0.5929
19004TIP3   OH278426   1.560   6.678   5.004  0.0715 -0.4945  0.3936
19004TIP3    H178427   1.548   6.761   4.957  2.9030 -0.8242 -1.0283
19004TIP3    H278428   1.543   6.611   4.939  1.2783 -0.9748  0.5533
19005TIP3   OH278429   1.790   0.183  11.903  0.0198 -0.2543 -0.7123
19005TIP3    H178430   1.769   0.192  11.996 -1.6294  1.4735 -1.2294
19005TIP3    H278431   1.885   0.169  11.901 -0.2686 -2.9730  1.3614
19006TIP3   OH278432   6.370   0.292   2.103 -0.1726  0.6183  0.0031
19006TIP3    H178433   6.446   0.256   2.148  0.0583  1.6171  0.4192
19006TIP3    H278434   6.312   0.323   2.172 -0.5551  0.6731 -0.3363
19007TIP3   OH278435   6.673   3.614   5.871  0.1542  0.2427  0.1547
19007TIP3    H178436   6.721   3.533   5.852 -0.9458 -0.1608 -0.9919
19007TIP3    H278437   6.596   3.585   5.919 -1.5866  0.2896 -2.5149
19008TIP3   OH278438   6.184   5.005   3.836  0.0474 -0.2845 -0.0622
19008TIP3    H178439   6.232   4.924   3.850 -1.3135 -1.1755 -0.3749
19008TIP3    H278440   6.112   5.001   3.900  0.5216  1.1370  0.5837
19009TIP3   OH278441   4.535   4.503  11.026 -0.4281 -0.5127 -0.1668
19009TIP3    H178442   4.444   4.520  11.048 -1.0078 -3.1418 -0.3738
19009TIP3    H278443   4.535   4.493  10.930  0.1319 -0.2228 -0.2012
19010TIP3   OH278444   1.538   3.158  13.191 -0.0326  0.6713 -0.1227
19010TIP3    H178445   1.481   3.108  13.250  0.8418  0.6025  0.6730
19010TIP3    H278446   1.482   3.226  13.155 -0.6056  0.6375  0.7031
19011TIP3   OH278447   1.634   5.160   1.755  0.2303 -0.1151  0.1085
19011TIP3    H178448   1.663   5.249   1.772  0.3435 -0.2364  0.5745
19011TIP3    H278449   1.628   5.120   1.842  1.2219 -0.8914 -0.1669
19012TIP3   OH278450   4.330   1.792   0.784 -1.0870  1.0458 -0.0289
19012TIP3    H178451   4.346   1.715   0.728 -2.1143  0.8960 -0.1370
19012TIP3    H278452   4.417   1.826   0.804 -0.5359 -1.0055  1.2161
19013TIP3   OH278453   4.029   4.848  15.522 -0.1329  0.1551 -0.6968
19013TIP3    H178454   4.029   4.893  15.437 -0.4496  2.1607  0.3346
19013TIP3    H278455   3.973   4.903  15.578 -1.3155 -2.0647  0.3376
19014TIP3   OH278456   3.134   1.025   2.200  0.3982 -0.4457 -0.2075
19014TIP3    H178457   3.221   0.999   2.168  0.6574  0.2355 -0.0628
19014TIP3    H278458   3.144   1.117   2.225  0.1762 -0.9393  1.7778
19015TIP3   OH278459   0.647   5.895   1.485 -0.2038 -0.2667  0.1146
19015TIP3    H178460   0.725   5.941   1.456  0.5722 -0.9199  1.1450
19015TIP3    H278461   0.575   5.937   1.437  0.9495 -0.9143 -2.3007
19016TIP3   OH278462   1.547   3.483   2.013 -0.3842  0.2251  0.8494
19016TIP3    H178463   1.452   3.482   2.022 -0.4828  1.4493  0.1401
19016TIP3    H278464   1.580   3.497   2.101 -0.8073 -1.4587  1.2918
19017TIP3   OH278465   0.739   0.667   3.725  0.3383 -0.1443 -0.0282
19017TIP3    H178466   0.725   0.573   3.726 -0.2097 -0.1302 -2.3840
19017TIP3    H278467   0.651   0.705   3.719  0.6253  0.4240 -0.8739
19018TIP3   OH278468   6.379   0.248   2.559 -0.1675  0.2176  0.3052
19018TIP3    H178469   6.397   0.168   2.510  1.0360  1.2077 -0.9146
19018TIP3    H278470   6.453   0.256   2.620 -0.2597  0.4220  0.3940
19019TIP3   OH278471   1.716   6.325   4.266  0.2851  0.0355 -0.2479
19019TIP3    H178472   1.687   6.255   4.208 -2.2166 -0.1002  1.1002
19019TIP3    H278473   1.644   6.388   4.265 -0.0058 -0.1643  2.9896
19020TIP3   OH278474   4.777   3.918   1.474  0.1960 -0.4288 -0.0813
19020TIP3    H178475   4.843   3.987   1.474  1.8709 -1.9900  0.8315
19020TIP3    H278476   4.753   3.907   1.382  0.1963  1.0694 -0.2719
19021TIP3   OH278477   6.090   4.367   5.366  0.2611 -0.3702  0.4447
19021TIP3    H178478   6.179   4.346   5.338  0.8804  0.2797  1.8724
19021TIP3    H278479   6.051   4.411   5.291  1.4774  0.2338  0.1538
19022TIP3   OH278480   3.402   3.363   1.171  0.4911 -0.3407 -0.1480
19022TIP3    H178481   3.437   3.452   1.161 -2.7162  0.9965 -0.3024
19022TIP3    H278482   3.355   3.366   1.254 -1.8946 -1.0599 -1.4352
19023TIP3   OH278483   0.750   0.764   3.985  0.0338 -0.1271 -0.3365
19023TIP3    H178484   0.736   0.713   3.905  0.3147 -0.1069 -0.4004
19023TIP3    H278485   0.763   0.854   3.954 -1.0667  0.0915 -0.1821
19024TIP3   OH278486   6.070   0.629   0.627  0.5814  0.8388  0.0125
19024TIP3    H178487   6.148   0.574   0.640  2.1215  2.8700 -0.4411
19024TIP3    H278488   6.066   0.642   0.532  0.5271  1.9354  0.1663
19025TIP3   OH278489   3.532   0.775  11.830 -0.5471  0.2610  0.2345
19025TIP3    H178490   3.521   0.705  11.765 -1.0561  1.7582 -1.3424
19025TIP3    H278491   3.556   0.730  11.910  1.7060 -1.5602 -1.3896
19026TIP3   OH278492   5.184   1.225   1.249  0.1036  0.2757  0.0067
19026TIP3    H178493   5.255   1.204   1.309  0.2415 -2.6216 -1.0768
19026TIP3    H278494   5.104   1.207   1.299  0.2176 -2.1633 -0.5898
19027TIP3   OH278495   0.345   0.260  11.315  0.0681 -0.2272  0.5472
19027TIP3    H178496   0.430   0.297  11.338  0.3422  1.6369 -3.1493
19027TIP3    H278497   0.282   0.314  11.364  0.7923  1.1371 -0.0122
19028TIP3   OH278498   4.378   3.257  10.951 -0.7341  0.9041  0.5834
19028TIP3    H178499   4.338   3.192  10.892  1.8668 -0.8603  0.6572
19028TIP3    H278500   4.400   3.330  10.894 -0.2453  0.1194 -0.2558
19029TIP3   OH278501   6.305   6.662   1.169  0.2105 -0.0916 -0.1344
19029TIP3    H178502   6.399   6.652   1.178  0.1304  0.4297  1.5360
19029TIP3    H278503   6.274   6.577   1.138  0.9383 -1.1319  1.8963
19030TIP3   OH278504   4.804   3.337  16.188 -0.0571 -0.2278  0.3998
19030TIP3    H178505   4.775   3.428  16.179  1.1018 -0.0380 -1.6632
19030TIP3    H278506   4.761   3.291  16.116  0.7465 -0.9700  0.3885
19031TIP3   OH278507   5.800   6.555  16.447 -0.1657 -0.3437  0.0923
19031TIP3    H178508   5.828   6.505  16.370  1.5604  1.9609 -0.8276
19031TIP3    H278509   5.866   6.537  16.513  0.1782  0.2896 -0.0741
19032TIP3   OH278510   3.622   1.304   5.030  0.3057  0.1516  0.5877
19032TIP3    H178511   3.687   1.261   5.085  2.2436  0.7174 -1.1825
19032TIP3    H278512   3.648   1.396   5.028  1.2068 -0.0860 -2.4039
19033TIP3   OH278513   2.606   0.656   0.427 -0.1040  0.1824  0.0723
19033TIP3    H178514   2.645   0.740   0.403  1.0082 -0.1242  0.7734
19033TIP3    H278515   2.674   0.591   0.409 -1.5647 -0.8102 -2.1554
19034TIP3   OH278516   5.099   2.913   6.448 -0.2705  0.3365 -0.5039
19034TIP3    H178517   5.183   2.928   6.404  0.0760 -1.8774 -0.6863
19034TIP3    H278518   5.075   2.998   6.485  2.2743  0.9141 -0.0808
19035TIP3   OH278519   2.343   2.589   3.700 -0.3189 -0.2951 -0.2221
19035TIP3    H178520   2.267   2.594   3.641 -0.1473 -1.1960 -0.5225
19035TIP3    H278521   2.319   2.646   3.774 -1.4097 -0.7707 -0.1886
19036TIP3   OH278522   6.203   1.043   5.194  0.8070  0.1001  0.0202
19036TIP3    H178523   6.201   1.007   5.105  1.9210  1.2048 -0.4801
19036TIP3    H278524   6.288   1.087   5.200 -0.2018  2.0276  0.8115
19037TIP3   OH278525   3.698   6.596   0.449  0.1335 -0.0242 -0.1513
19037TIP3    H178526   3.734   6.621   0.534 -2.0647 -1.7259  1.3455
19037TIP3    H278527   3.761   6.535   0.413  1.4222  1.2353 -0.0671
19038TIP3   OH278528   5.833   0.024   2.865  0.7039  0.2662  0.3347
19038TIP3    H178529   5.809  -0.064   2.896  2.1273  0.6136  2.4777
19038TIP3    H278530   5.784   0.083   2.922 -0.5188  0.8994 -1.3306
19039TIP3   OH278531   0.743   0.829  15.669  0.0196 -0.5576 -0.2513
19039TIP3    H178532   0.720   0.739  15.646  0.2444 -0.5056 -0.6758
19039TIP3    H278533   0.699   0.883  15.603 -1.3193 -0.2627  0.8520
19040TIP3   OH278534   4.505   0.365  12.565  0.3210 -0.2805  0.0544
19040TIP3    H178535   4.593   0.404  12.558  0.7184 -1.0608  0.6183
19040TIP3    H278536   4.496   0.311  12.487  0.8136 -1.1295  0.5778
19041TIP3   OH278537   6.595   2.051   0.716  0.1845 -0.0790 -0.0106
19041TIP3    H178538   6.522   2.055   0.654 -0.7280 -1.9830  0.8798
19041TIP3    H278539   6.646   1.975   0.688 -0.1423 -0.8563  1.4163
19042TIP3   OH278540   6.249   3.511   3.283 -0.1990 -0.2682 -0.5798
19042TIP3    H178541   6.324   3.490   3.228  1.4936  1.8380  0.8059
19042TIP3    H278542   6.176   3.523   3.223  1.6128  2.0436 -2.3560
19043TIP3   OH278543   0.232   5.717  17.216 -0.9583  0.0014  0.5597
19043TIP3    H178544   0.175   5.783  17.177 -1.9339 -0.8338  0.5344
19043TIP3    H278545   0.290   5.690  17.145 -0.8968  0.4692  0.4294
19044TIP3   OH278546   2.678   5.830  17.109  0.1575 -0.1264 -0.1243
19044TIP3    H178547   2.604   5.788  17.154 -0.2886 -0.9253 -1.5664
19044TIP3    H278548   2.755   5.794  17.152 -0.2986  1.6636  2.2381
19045TIP3   OH278549   4.277   2.945  12.328  0.3241 -0.0472 -0.1189
19045TIP3    H178550   4.309   2.861  12.360  0.6676  1.0543  2.5774
19045TIP3    H278551   4.354   2.988  12.290  0.8432  0.2880  1.2788
19046TIP3   OH278552   2.636   1.754   2.020  0.3351 -0.2675  0.1701
19046TIP3    H178553   2.575   1.823   2.047  0.2973 -0.1708 -0.1571
19046TIP3    H278554   2.722   1.787   2.046  0.3225 -0.0703 -0.0379
19047TIP3   OH278555   4.150   1.579  12.454 -0.0392 -0.0928 -0.1533
19047TIP3    H178556   4.202   1.500  12.441  2.0523  1.1895  0.2304
19047TIP3    H278557   4.207   1.651  12.427 -1.5207  1.3822  0.5233
19048TIP3   OH278558   3.308   5.404   2.864 -0.1145  0.0423 -0.2184
19048TIP3    H178559   3.220   5.394   2.828  0.1745  0.8790 -1.1542
19048TIP3    H278560   3.362   5.429   2.790  0.1934  3.3798  1.0535
19049TIP3   OH278561   2.705   1.146  13.617 -0.9223 -0.1891 -0.3554
19049TIP3    H178562   2.751   1.188  13.543 -0.8019  0.4201  0.0593
19049TIP3    H278563   2.755   1.172  13.694 -1.9197  0.4177  0.0977
19050TIP3   OH278564   1.646   3.872   5.906 -0.0207  0.6658  0.1851
19050TIP3    H178565   1.681   3.810   5.841 -2.1784 -1.2486  0.7974
19050TIP3    H278566   1.723   3.900   5.955  1.3671  0.5185 -1.8006
19051TIP3   OH278567   4.036   0.062  14.705  0.2601  0.4656  0.4584
19051TIP3    H178568   4.047   0.095  14.795 -1.8522  0.9910  0.5619
19051TIP3    H278569   4.006  -0.028  14.716 -0.3267  0.6393  0.2948
19052TIP3   OH278570   5.611   5.387   6.014 -0.0670  0.1034  0.1467
19052TIP3    H178571   5.606   5.421   6.103  1.3050 -1.2908  0.7759
19052TIP3    H278572   5.574   5.456   5.960 -0.3677  1.2102  1.7391
19053TIP3   OH278573   2.938   4.209   0.369 -0.6851 -0.3753 -0.5847
19053TIP3    H178574   2.966   4.266   0.440  0.0897  0.3264 -1.4517
19053TIP3    H278575   2.893   4.136   0.413  0.5450 -0.3921  0.6716
19054TIP3   OH278576   1.498   4.625   1.720  0.2449  0.0564 -0.2610
19054TIP3    H178577   1.430   4.566   1.685 -0.5601  0.9007 -0.1258
19054TIP3    H278578   1.577   4.571   1.720 -0.5312 -1.1277  0.1209
19055TIP3   OH278579   4.931   4.371   4.128 -0.0953 -0.6802  0.0060
19055TIP3    H178580   4.907   4.331   4.211 -0.3756 -0.8433 -0.1534
19055TIP3    H278581   4.864   4.437   4.112 -0.0596 -0.6706 -0.1077
19056TIP3   OH278582   4.344   2.861  15.891 -0.2708 -0.2494 -0.0212
19056TIP3    H178583   4.405   2.904  15.831 -0.5052 -0.9990 -0.8137
19056TIP3    H278584   4.257   2.891  15.862 -0.2913  0.9572  1.2130
19057TIP3   OH278585   0.937   5.726   6.687  0.4042 -0.0406 -0.0688
19057TIP3    H178586   0.894   5.699   6.606 -0.1510  0.3280  0.0986
19057TIP3    H278587   0.928   5.650   6.745 -2.7560  1.1009  1.0301
19058TIP3   OH278588   5.111   2.712   2.392 -0.6620 -0.2696  0.1334
19058TIP3    H178589   5.077   2.623   2.388 -0.4046 -0.3290 -0.8436
19058TIP3    H278590   5.153   2.726   2.307  0.0500  0.4809  0.6023
19059TIP3   OH278591   5.094   0.423   3.492  0.0548  0.1021 -0.2948
19059TIP3    H178592   5.004   0.456   3.486 -0.5433 -0.7443  2.8158
19059TIP3    H278593   5.148   0.501   3.502 -0.5217  0.5381 -0.5777
19060TIP3   OH278594   5.957   0.121  14.771  0.4246  0.1891 -0.6301
19060TIP3    H178595   5.890   0.144  14.836  0.4659  1.3513 -0.9852
19060TIP3    H278596   5.973   0.027  14.784  1.9760  0.8118  2.4972
19061TIP3   OH278597   1.762   5.489   5.655  0.0887  0.4333 -0.0502
19061TIP3    H178598   1.788   5.576   5.625 -1.1098  0.8066  0.0070
19061TIP3    H278599   1.732   5.501   5.745 -2.1068  0.3334 -0.7493
19062TIP3   OH278600   0.686   1.898  11.176  0.0135  0.0252 -0.0681
19062TIP3    H178601   0.598   1.860  11.174  0.1193 -0.2312  0.0566
19062TIP3    H278602   0.672   1.990  11.199 -0.2986  0.2329 -1.0789
19063TIP3   OH278603   2.504   4.646  14.111 -0.0890  0.2654 -0.0370
19063TIP3    H178604   2.447   4.718  14.083  1.6585  2.0427  0.8022
19063TIP3    H278605   2.573   4.643  14.044  0.5861  0.2924  0.6465
19064TIP3   OH278606   5.374   0.442  11.274  0.6265  0.4013  0.0484
19064TIP3    H178607   5.392   0.491  11.194  1.4792  0.7577  0.4532
19064TIP3    H278608   5.394   0.351  11.252 -1.2868  0.1785 -0.8073
19065TIP3   OH278609   2.185   3.314   3.176 -0.1394  0.5029 -0.0692
19065TIP3    H178610   2.218   3.231   3.209  0.3172  1.2296  1.3618
19065TIP3    H278611   2.135   3.351   3.248 -0.9194  1.1534 -0.9270
19066TIP3   OH278612   5.156   0.811  14.991 -0.2481  0.3460 -0.8144
19066TIP3    H178613   5.066   0.826  14.965 -0.6305 -0.4222  0.0267
19066TIP3    H278614   5.188   0.745  14.929 -1.0870 -1.3198  0.4913
19067TIP3   OH278615   0.165   5.466   6.245 -0.4783  0.2747  0.3013
19067TIP3    H178616   0.144   5.496   6.156 -0.4215  0.1901  0.2593
19067TIP3    H278617   0.098   5.400   6.264 -1.0265  0.9349  0.6622
19068TIP3   OH278618   2.550   4.645   1.686 -0.0098  0.5162  0.4762
19068TIP3    H178619   2.565   4.568   1.740 -0.3974 -0.5623 -0.9378
19068TIP3    H278620   2.464   4.677   1.712 -0.7435 -0.7373 -0.3787
19069TIP3   OH278621   6.363   2.863  17.108 -0.3892 -0.0515  0.5209
19069TIP3    H178622   6.270   2.858  17.130 -0.4738 -1.1562 -0.0272
19069TIP3    H278623   6.379   2.786  17.053  0.0264  2.1471 -2.5333
19070TIP3   OH278624   0.948   0.039  13.227  0.4792  0.4564  0.5996
19070TIP3    H178625   1.018   0.002  13.173  0.5422  0.7104  0.5063
19070TIP3    H278626   0.977   0.023  13.317 -0.0902 -0.8331  0.5525
19071TIP3   OH278627   0.661   5.109  12.145 -0.0812  0.2880  0.3720
19071TIP3    H178628   0.595   5.042  12.127  0.0781 -0.0772  1.1044
19071TIP3    H278629   0.648   5.174  12.077  0.1687 -0.7913 -0.7197
19072TIP3   OH278630   4.227   5.603   1.380  0.3346  0.2715 -0.3783
19072TIP3    H178631   4.196   5.515   1.401  0.6145 -0.2947 -2.2347
19072TIP3    H278632   4.322   5.592   1.366  0.1983  0.6479 -1.6780
19073TIP3   OH278633   4.562   2.357  11.974 -0.7910  0.2463 -0.0171
19073TIP3    H178634   4.586   2.303  11.899 -1.3592 -1.8264  1.2510
19073TIP3    H278635   4.640   2.410  11.992  0.1817 -0.9668 -0.5829
19074TIP3   OH278636   5.313   2.977   0.997 -0.2880  0.7401 -0.2398
19074TIP3    H178637   5.365   2.934   0.929 -0.7476 -0.0176 -0.1197
19074TIP3    H278638   5.371   2.980   1.073 -0.9468 -1.5619  0.3884
19075TIP3   OH278639   3.428   1.397   3.988  0.3052 -0.3529  0.4530
19075TIP3    H178640   3.406   1.391   3.895 -1.3751  0.5614  0.7720
19075TIP3    H278641   3.486   1.474   3.994  1.2613 -1.0303  0.0283
19076TIP3   OH278642   0.172   4.472   3.501  0.3454  0.1503 -0.5338
19076TIP3    H178643   0.211   4.540   3.556 -0.6272  1.1604 -1.0673
19076TIP3    H278644   0.078   4.481   3.515  0.1649 -0.5897 -1.2084
19077TIP3   OH278645   2.375   1.147   5.150 -0.0395 -0.2512  0.3019
19077TIP3    H178646   2.378   1.225   5.207  0.7108 -0.1895  0.1809
19077TIP3    H278647   2.337   1.179   5.068  4.4771  1.0848 -1.4234
19078TIP3   OH278648   1.049   1.887   5.643  0.2137 -0.4449  0.6066
19078TIP3    H178649   1.105   1.817   5.611  0.2769 -0.0339 -0.1919
19078TIP3    H278650   1.072   1.896   5.736  0.2530 -1.4255  0.6928
19079TIP3   OH278651   3.402   5.154   4.966  0.0245 -0.5257  0.4519
19079TIP3    H178652   3.332   5.145   5.030  0.2342 -1.1200  0.6007
19079TIP3    H278653   3.362   5.202   4.894 -0.0062  0.7863  1.3339
19080TIP3   OH278654   4.558   4.865  12.305 -0.3223 -0.1567 -0.2416
19080TIP3    H178655   4.529   4.922  12.234 -0.9737 -0.3954 -0.1641
19080TIP3    H278656   4.648   4.841  12.281 -0.4988 -0.1412 -0.9227
19081TIP3   OH278657   4.058   6.038  15.333 -0.4176 -0.1583 -0.0537
19081TIP3    H178658   4.034   6.112  15.388 -1.1908 -0.4005 -0.0643
19081TIP3    H278659   4.149   6.018  15.357  0.2120  1.5483 -0.9015
19082TIP3   OH278660   5.824   5.365   1.344  0.3871  0.1795 -0.1365
19082TIP3    H178661   5.789   5.431   1.285  0.6877  1.6544  1.2898
19082TIP3    H278662   5.906   5.337   1.303  0.5611  1.1341 -0.4525
19083TIP3   OH278663   5.472   4.589  15.655  0.5331  0.0975 -0.2051
19083TIP3    H178664   5.470   4.549  15.568 -1.1702 -4.3244  1.7104
19083TIP3    H278665   5.402   4.655  15.652 -1.3432 -1.8861 -1.3928
19084TIP3   OH278666   4.832   6.344   3.803 -0.3686 -0.8970 -0.0951
19084TIP3    H178667   4.766   6.284   3.837 -1.3388  0.1110 -0.1898
19084TIP3    H278668   4.783   6.418   3.769  0.8211 -0.0046  0.0865
19085TIP3   OH278669   5.883   1.805  11.463  0.1725 -0.0225  0.0948
19085TIP3    H178670   5.863   1.893  11.431 -0.8025 -0.3186 -0.1110
19085TIP3    H278671   5.819   1.748  11.420 -0.0950 -0.6482  1.2966
19086TIP3   OH278672   1.269   2.643   0.824 -0.1367  0.0672 -0.0818
19086TIP3    H178673   1.342   2.705   0.837  0.3292 -0.1741 -1.4647
19086TIP3    H278674   1.277   2.581   0.897  3.8829 -2.6796 -2.6102
19087TIP3   OH278675   2.856   4.955  13.301  0.2777 -0.1402 -0.1682
19087TIP3    H178676   2.837   4.948  13.395  0.5592 -2.4022 -0.2624
19087TIP3    H278677   2.778   4.920  13.258  0.6481 -0.2552 -0.7567
19088TIP3   OH278678   0.303   6.257  17.060  0.6488 -0.5046  0.4938
19088TIP3    H178679   0.393   6.282  17.037  0.4797  0.4021  0.7891
19088TIP3    H278680   0.298   6.164  17.040  1.3649 -0.3469 -0.4395
19089TIP3   OH278681   3.313   6.606  13.200 -0.0451  0.6962 -1.0567
19089TIP3    H178682   3.299   6.561  13.117  0.7264 -0.5782 -0.5063
19089TIP3    H278683   3.406   6.628  13.200  0.3469 -0.8795  0.2305
19090TIP3   OH278684   0.876   2.844  16.862 -0.1470 -0.3016 -0.0161
19090TIP3    H178685   0.838   2.778  16.804  0.1094 -0.3784 -0.0979
19090TIP3    H278686   0.940   2.796  16.914 -0.8138 -0.3651  0.7662
19091TIP3   OH278687   0.170   3.281   2.577 -0.0440  0.0434 -0.3588
19091TIP3    H178688   0.076   3.270   2.561 -0.3021 -0.8832  1.5680
19091TIP3    H278689   0.212   3.213   2.524 -0.6336 -0.9847  0.4663
19092TIP3   OH278690   1.161   6.194   1.550  0.0445  0.6180  0.2032
19092TIP3    H178691   1.186   6.236   1.468  0.0573  0.7855  0.2911
19092TIP3    H278692   1.157   6.266   1.613  1.2415  0.3103  0.6327
19093TIP3   OH278693   4.310   2.931   2.777  0.4232  0.0928 -0.5822
19093TIP3    H178694   4.256   2.863   2.735  0.1357  1.1571 -1.9768
19093TIP3    H278695   4.399   2.909   2.753  0.3420  0.1442 -0.9272
19094TIP3   OH278696   0.840   3.362  14.847 -0.0976  0.1807 -0.1995
19094TIP3    H178697   0.863   3.270  14.836 -0.8060  0.0173 -0.3432
19094TIP3    H278698   0.909   3.410  14.802  0.5302 -0.2598  0.2738
19095TIP3   OH278699   2.010   6.420   1.961  0.1776  0.3326  0.3288
19095TIP3    H178700   2.051   6.480   1.899 -0.7424 -0.2657 -0.8869
19095TIP3    H278701   1.917   6.419   1.936  0.0170 -0.8650  0.9249
19096TIP3   OH278702   2.476   3.809   4.943  0.4512 -0.5515  0.5858
19096TIP3    H178703   2.542   3.875   4.919  0.4854 -0.8374 -0.1126
19096TIP3    H278704   2.511   3.768   5.021 -1.2291  2.6826  3.1928
19097TIP3   OH278705   5.326   5.320  13.053 -0.6721 -0.0172  0.6119
19097TIP3    H178706   5.356   5.306  13.143 -1.9438  0.3357  1.1072
19097TIP3    H278707   5.375   5.257  13.001 -0.2697 -0.5516  1.6273
19098TIP3   OH278708   3.933   2.288  13.259 -0.0193 -0.2597 -0.3629
19098TIP3    H178709   3.957   2.323  13.345  1.5056  2.5213 -1.8541
19098TIP3    H278710   4.015   2.249  13.226 -0.0387  0.6339 -1.4672
19099TIP3   OH278711   3.017   4.926   0.674 -0.0935  0.0836 -0.6207
19099TIP3    H178712   3.063   4.873   0.740 -1.0707 -1.1786 -0.9228
19099TIP3    H278713   2.983   4.862   0.612 -1.0927  1.0941 -1.1375
19100TIP3   OH278714   0.245   6.021   0.667 -0.4703 -0.2103 -0.6757
19100TIP3    H178715   0.324   6.044   0.617 -0.9490  0.4749 -1.1336
19100TIP3    H278716   0.178   6.079   0.632 -0.7733  0.3914  0.8957
19101TIP3   OH278717   0.613   5.714   6.452  0.3075 -0.1435 -0.3902
19101TIP3    H178718   0.536   5.666   6.423  0.2013  0.0145 -0.3713
19101TIP3    H278719   0.578   5.788   6.502  0.5357 -1.3967  1.6872
19102TIP3   OH278720   5.926   3.135  15.128 -0.1102 -0.0903 -0.0659
19102TIP3    H178721   6.007   3.132  15.178 -0.6615  3.0135  1.1412
19102TIP3    H278722   5.954   3.145  15.037  0.8490 -2.0090 -0.0092
19103TIP3   OH278723   5.276   6.409   1.582 -0.2744 -0.0236  0.2044
19103TIP3    H178724   5.330   6.482   1.550 -0.1838 -0.4602 -0.6295
19103TIP3    H278725   5.316   6.331   1.544 -2.2616 -0.2422 -1.5035
19104TIP3   OH278726   2.392   2.139  16.587 -0.3201  0.3703 -0.2421
19104TIP3    H178727   2.412   2.198  16.660  0.3305  0.0459 -0.1500
19104TIP3    H278728   2.406   2.051  16.623 -2.6086  0.0901  0.0161
19105TIP3   OH278729   3.334   5.552   5.800 -0.6544  0.3331 -0.8057
19105TIP3    H178730   3.371   5.529   5.885 -1.7223 -0.7859 -0.6254
19105TIP3    H278731   3.409   5.558   5.741 -0.0429 -0.2719 -0.0890
19106TIP3   OH278732   0.006   0.882   4.854  0.6313  0.0066  0.0830
19106TIP3    H178733  -0.072   0.920   4.813  0.5279 -1.7941 -1.4385
19106TIP3    H278734  -0.001   0.907   4.946 -2.5918 -1.4368  0.2931
19107TIP3   OH278735   3.727   6.397   4.570 -0.3112 -0.2850 -0.4479
19107TIP3    H178736   3.685   6.311   4.582  1.1621 -0.9559  0.0126
19107TIP3    H278737   3.820   6.377   4.561  0.3078  1.4150  1.7087
19108TIP3   OH278738   5.488   2.072   1.985 -0.3318  0.0386 -0.4328
19108TIP3    H178739   5.527   2.125   1.916 -0.0006 -0.4643 -0.6434
19108TIP3    H278740   5.557   2.008   2.007  0.2349  1.2889  1.5784
19109TIP3   OH278741   3.786   4.299   2.360  0.0034  0.0210 -0.4742
19109TIP3    H178742   3.840   4.230   2.398 -1.4705 -0.2163  1.2755
19109TIP3    H278743   3.740   4.256   2.289 -1.3300 -0.9951  0.9590
19110TIP3   OH278744   3.719   0.390  12.514  0.2860  0.5632  0.0814
19110TIP3    H178745   3.677   0.360  12.595 -0.0447  0.5236 -0.1053
19110TIP3    H278746   3.646   0.421  12.459  0.6034  1.6816  0.2623
19111TIP3   OH278747   2.234   0.320  16.863  0.6370  0.1419  0.6532
19111TIP3    H178748   2.237   0.247  16.802  1.2245  0.9653 -0.3171
19111TIP3    H278749   2.141   0.333  16.881  0.5240 -0.7468  0.7249
19112TIP3   OH278750   6.548   2.346   3.493 -0.5718  0.2272  0.2914
19112TIP3    H178751   6.546   2.256   3.526 -2.1816 -0.7525 -2.3413
19112TIP3    H278752   6.457   2.375   3.499 -0.7717  0.2636 -2.5590
19113TIP3   OH278753   2.720   1.813   4.222  0.8609  0.3713  0.5208
19113TIP3    H178754   2.657   1.862   4.275 -0.2108 -1.6676  1.1426
19113TIP3    H278755   2.667   1.768   4.157  1.6856 -1.3014  0.9990
19114TIP3   OH278756   3.906   4.176   3.129 -0.1783 -0.3227 -0.0526
19114TIP3    H178757   3.822   4.155   3.086 -0.4831  1.7926 -0.5516
19114TIP3    H278758   3.972   4.158   3.062 -0.3189 -0.9359 -0.0298
19115TIP3   OH278759   4.842   6.567  15.681 -0.5993 -0.0262 -0.4209
19115TIP3    H178760   4.935   6.565  15.659 -0.4656  0.2423  0.0899
19115TIP3    H278761   4.834   6.641  15.741 -0.9732 -0.6137  0.2705
19116TIP3   OH278762   5.108   4.728   0.683 -0.9206 -0.2471 -0.1493
19116TIP3    H178763   5.102   4.675   0.604 -0.4955 -0.2135 -0.2026
19116TIP3    H278764   5.046   4.800   0.669  0.0399  0.4338 -0.9716
19117TIP3   OH278765   2.171   5.302   4.664  0.5839 -0.0853  0.1155
19117TIP3    H178766   2.129   5.219   4.686 -2.1864  1.3052  0.3014
19117TIP3    H278767   2.262   5.291   4.690 -0.6655 -1.5445  4.2976
19118TIP3   OH278768   6.123   5.451  16.668 -0.2316 -0.5576 -0.5035
19118TIP3    H178769   6.110   5.393  16.744 -0.8928 -0.9354 -0.9102
19118TIP3    H278770   6.217   5.446  16.651 -0.0069 -0.1582  0.5406
19119TIP3   OH278771   5.109   1.007   4.293 -0.1563 -0.2262  0.2895
19119TIP3    H178772   5.115   0.941   4.223  0.1592 -0.5160  0.5886
19119TIP3    H278773   5.021   1.043   4.284  0.6609  1.3514 -1.7198
19120TIP3   OH278774   5.650   2.949  14.712 -0.4723 -0.2913 -0.4047
19120TIP3    H178775   5.690   3.036  14.704 -0.4809  0.0012  2.2035
19120TIP3    H278776   5.556   2.967  14.716 -0.4007 -0.1915  2.0043
19121TIP3   OH278777   2.875   3.404  14.204 -0.4087  0.2597  0.2433
19121TIP3    H178778   2.968   3.388  14.217 -0.4100 -0.4255 -0.5748
19121TIP3    H278779   2.831   3.326  14.237 -0.7321  0.8030  1.1227
19122TIP3   OH278780   4.916   5.238   3.356  0.3432 -0.0801  0.4017
19122TIP3    H178781   4.895   5.229   3.449  0.3494  1.1818  0.5373
19122TIP3    H278782   4.930   5.332   3.344  0.0257 -0.1997 -0.9500
19123TIP3   OH278783   2.875   4.997  14.022 -0.2986 -0.1572  0.0755
19123TIP3    H178784   2.949   5.027  14.075 -0.5166 -1.8308  1.3857
19123TIP3    H278785   2.804   5.058  14.044  0.0461  0.0810  0.5525
19124TIP3   OH278786   4.531   1.104   0.114  0.2517 -0.4736  0.6200
19124TIP3    H178787   4.539   1.011   0.091 -1.0575 -0.4713  0.1058
19124TIP3    H278788   4.595   1.147   0.058  0.2539 -0.9757  0.2244
19125TIP3   OH278789   3.505   6.282  11.779  0.0810  0.1077 -0.1491
19125TIP3    H178790   3.499   6.345  11.707  2.0481 -0.6058 -0.9927
19125TIP3    H278791   3.531   6.200  11.737 -0.7316 -0.8457  1.1484
19126TIP3   OH278792   2.904   3.667   0.871  0.5540  0.1563 -0.8200
19126TIP3    H178793   2.947   3.642   0.953  0.3582 -0.9242 -1.0505
19126TIP3    H278794   2.976   3.687   0.811  0.6999  1.4293 -0.2576
19127TIP3   OH278795   5.909   4.444  13.774  0.6710  0.1112 -0.2434
19127TIP3    H178796   5.936   4.509  13.839 -2.3391  2.4076 -1.1304
19127TIP3    H278797   5.932   4.483  13.690 -2.1227  0.6061 -0.8329
19128TIP3   OH278798   0.415   5.679  11.455 -0.5412  0.1091  0.2791
19128TIP3    H178799   0.416   5.774  11.453  0.4853  0.1118  0.6413
19128TIP3    H278800   0.323   5.656  11.471 -1.4927  0.9234 -3.5570
19129TIP3   OH278801   4.000   4.480  14.309 -0.1274 -0.0704  0.3460
19129TIP3    H178802   3.978   4.396  14.269 -0.8513  1.0871 -1.7835
19129TIP3    H278803   4.072   4.513  14.255  1.2474 -0.0139  2.1453
19130TIP3   OH278804   3.783   2.869  14.900 -0.5529 -0.0362 -0.4553
19130TIP3    H178805   3.772   2.854  14.806 -1.6247 -0.8308 -0.2192
19130TIP3    H278806   3.718   2.811  14.941  0.8318 -0.7155  0.8259
19131TIP3   OH278807   3.929   0.980  11.159 -0.8680  0.2445  0.1658
19131TIP3    H178808   3.920   1.075  11.154  0.8601  0.3951 -0.6332
19131TIP3    H278809   3.853   0.946  11.112 -1.3619  1.2276  0.2434
19132TIP3   OH278810   1.948   0.976  16.657 -0.3470  0.1110  0.4501
19132TIP3    H178811   1.905   1.019  16.732  0.8448 -0.7464  1.6409
19132TIP3    H278812   1.996   0.903  16.696 -1.1201 -1.4040 -1.3795
19133TIP3   OH278813   4.207   1.280   3.396  0.7007 -0.0808  0.1956
19133TIP3    H178814   4.213   1.373   3.372 -0.2331  0.3375  1.5503
19133TIP3    H278815   4.297   1.248   3.390  1.0171  0.8885 -0.3354
19134TIP3   OH278816   4.502   5.716   2.409 -0.0466  0.2587  0.0459
19134TIP3    H178817   4.528   5.631   2.445 -1.3054 -0.1757 -0.0270
19134TIP3    H278818   4.426   5.697   2.354  0.9016  1.1490 -1.6120
19135TIP3   OH278819   6.389   3.981  13.741 -0.6276  0.6381  0.2477
19135TIP3    H178820   6.377   3.997  13.648  0.4938  1.3600  0.2127
19135TIP3    H278821   6.402   4.068  13.779 -1.1441  0.3517  1.0855
19136TIP3   OH278822   4.567   1.919   0.691  0.4266 -0.4233 -0.2170
19136TIP3    H178823   4.622   1.915   0.613  0.2311  1.2111 -0.4581
19136TIP3    H278824   4.628   1.933   0.763  0.5683 -1.4968 -0.1226
19137TIP3   OH278825   5.646   1.733   6.356  0.2395 -0.0502 -0.1828
19137TIP3    H178826   5.660   1.653   6.406  0.7392  1.3464  2.0025
19137TIP3    H278827   5.730   1.749   6.314  0.0041 -0.9136 -0.9792
19138TIP3   OH278828   4.235   0.646   2.487 -0.0897  0.6833  0.3068
19138TIP3    H178829   4.171   0.670   2.554 -1.5119  0.6798 -1.0255
19138TIP3    H278830   4.221   0.553   2.472 -1.1403  1.0893 -1.3849
19139TIP3   OH278831   6.099   2.417  11.777  0.5504  0.7098 -0.6512
19139TIP3    H178832   6.045   2.422  11.856 -1.6801  0.7201 -2.1608
19139TIP3    H278833   6.184   2.386  11.809 -0.7552 -0.7523  1.5337
19140TIP3   OH278834   6.304   0.205  12.354 -0.4907  0.4347 -0.1739
19140TIP3    H178835   6.319   0.300  12.354 -0.2498  0.4097  1.3582
19140TIP3    H278836   6.390   0.168  12.374 -0.2029 -0.1862 -2.4945
19141TIP3   OH278837   0.994   0.481   3.074 -0.0646  0.5402  0.0681
19141TIP3    H178838   1.008   0.387   3.074  0.8445  0.6704  0.9739
19141TIP3    H278839   0.969   0.503   3.163  0.2543  1.2312 -0.0042
19142TIP3   OH278840   3.350   6.032   2.898  0.0391 -0.1267  0.1095
19142TIP3    H178841   3.279   6.034   2.835 -1.3792  2.1803  1.6885
19142TIP3    H278842   3.427   6.059   2.848 -0.6027 -0.5715 -1.1328
19143TIP3   OH278843   6.308   3.749   0.820  0.4852 -0.2035  0.7667
19143TIP3    H178844   6.310   3.840   0.789 -0.1918 -0.2944  0.4425
19143TIP3    H278845   6.215   3.729   0.829  0.6504 -0.6566  1.4664
19144TIP3   OH278846   4.041   3.075  11.732  0.1253 -0.1279 -0.1634
19144TIP3    H178847   4.081   3.014  11.670 -2.3690 -2.0778  0.0400
19144TIP3    H278848   4.082   3.056  11.816 -0.0559 -0.9895 -0.2647
19145TIP3   OH278849   4.941   6.103  12.603  0.1998 -0.0244  0.1202
19145TIP3    H178850   4.981   6.017  12.593  0.0617 -0.0586 -0.1623
19145TIP3    H278851   4.955   6.146  12.518 -1.4077 -0.4849 -0.3944
19146TIP3   OH278852   2.631   2.462   4.742 -0.8287 -0.3448 -0.0103
19146TIP3    H178853   2.560   2.442   4.803  0.6916 -1.1738  1.4980
19146TIP3    H278854   2.684   2.527   4.787 -0.3319 -0.0981 -0.9397
19147TIP3   OH278855   3.620   4.674   2.421 -0.5639 -0.5369 -0.3933
19147TIP3    H178856   3.709   4.697   2.395 -1.0451  0.5739 -1.0890
19147TIP3    H278857   3.612   4.581   2.399  1.0358 -1.1399  1.4490
19148TIP3   OH278858   1.843   1.840  11.820  0.2862 -0.6749 -0.0675
19148TIP3    H178859   1.805   1.753  11.830 -1.4781 -0.1666 -2.1173
19148TIP3    H278860   1.794   1.880  11.748  1.3331  1.8739  0.5801
19149TIP3   OH278861   5.069   5.791  16.262 -0.0981  0.5847 -0.8588
19149TIP3    H178862   5.126   5.714  16.260  0.7477  1.2004 -0.9204
19149TIP3    H278863   5.104   5.848  16.193 -0.1443  1.4228 -0.1905
19150TIP3   OH278864   0.685   3.522  17.070  0.3527 -0.5585  0.4033
19150TIP3    H178865   0.768   3.550  17.033 -0.8091  0.0514 -1.8145
19150TIP3    H278866   0.646   3.467  17.002 -1.8446  0.6323  0.6503
19151TIP3   OH278867   1.373   5.251   3.968 -0.3481 -0.0695  0.4187
19151TIP3    H178868   1.318   5.329   3.978 -1.7274 -0.9709 -0.1063
19151TIP3    H278869   1.319   5.179   3.999  0.4203 -1.0160 -0.4298
19152TIP3   OH278870   2.148   5.773   2.906 -0.4342 -0.3027  0.6609
19152TIP3    H178871   2.173   5.750   2.995  1.0955 -0.6627  0.1601
19152TIP3    H278872   2.070   5.827   2.916 -1.1570 -1.5812  2.1275
19153TIP3   OH278873   4.153   4.447  14.021 -0.3940 -0.6182  0.1023
19153TIP3    H178874   4.185   4.375  13.967  1.5282  0.9830 -0.9452
19153TIP3    H278875   4.182   4.526  13.976 -0.0219  0.7881  2.7190
19154TIP3   OH278876   0.058   5.290  12.207 -0.3555 -0.1777 -0.0086
19154TIP3    H178877   0.151   5.294  12.228 -0.5371  0.8575  0.6571
19154TIP3    H278878   0.055   5.263  12.116  0.5826 -0.7781  0.1316
19155TIP3   OH278879   6.058   1.638  15.848  0.1826  0.2553  0.1048
19155TIP3    H178880   6.010   1.720  15.832  1.4391  0.5987 -2.0389
19155TIP3    H278881   6.142   1.651  15.806  1.2627 -1.3062  1.7263
19156TIP3   OH278882   0.237   1.842   4.960  0.0466 -0.5380 -0.1955
19156TIP3    H178883   0.256   1.929   4.923 -0.2698 -0.3947 -0.0242
19156TIP3    H278884   0.179   1.860   5.034 -0.4314 -0.9381 -0.4710
19157TIP3   OH278885   3.239   5.957  15.104 -0.5572 -0.1631  0.1938
19157TIP3    H178886   3.269   6.045  15.086  0.8883 -0.6670  0.1126
19157TIP3    H278887   3.213   5.922  15.019  1.2049 -0.6746 -0.1412
19158TIP3   OH278888   2.761   2.945  15.084 -0.0761  0.0925 -0.5373
19158TIP3    H178889   2.769   2.914  15.174 -0.8078 -0.0934 -0.5295
19158TIP3    H278890   2.847   2.981  15.063  0.0008  0.4277  0.3428
19159TIP3   OH278891   0.029   1.637   1.145 -0.0993 -0.2177 -0.5221
19159TIP3    H178892  -0.058   1.617   1.180  0.6443  0.1886  1.6957
19159TIP3    H278893   0.083   1.649   1.223  1.6707  0.7611 -1.8638
19160TIP3   OH278894   6.344   3.370  11.663 -0.2311 -0.4678  0.4251
19160TIP3    H178895   6.385   3.292  11.625  1.5983  0.2051  0.9671
19160TIP3    H278896   6.389   3.384  11.746 -0.1630  1.4558  0.1089
19161TIP3   OH278897   4.595   4.690  13.497 -0.0477  0.7538  0.6717
19161TIP3    H178898   4.507   4.674  13.464 -0.3308  0.1495  1.7107
19161TIP3    H278899   4.629   4.603  13.519 -0.0612  1.1664  2.4401
19162TIP3   OH278900   4.385   2.544  14.774  0.2015 -0.4783  0.2731
19162TIP3    H178901   4.404   2.624  14.823  2.0076 -1.2124  0.8260
19162TIP3    H278902   4.292   2.551  14.751  0.4773  2.0887 -0.2754
19163TIP3   OH278903   3.115   1.748   4.762 -0.0752 -0.2763  0.4868
19163TIP3    H178904   3.204   1.751   4.727 -0.2365  2.6770  0.2526
19163TIP3    H278905   3.113   1.815   4.830 -2.4659  0.5211 -0.3240
19164TIP3   OH278906   0.513   3.778   3.094  0.7359  0.4342  0.3944
19164TIP3    H178907   0.550   3.698   3.057  0.7311 -0.2878  1.9232
19164TIP3    H278908   0.459   3.814   3.024  0.9425 -0.7684 -0.3940
19165TIP3   OH278909   3.225   2.750  11.182  0.3062 -0.1795  0.4998
19165TIP3    H178910   3.151   2.789  11.136 -0.2772  0.9317  2.2931
19165TIP3    H278911   3.289   2.821  11.189  1.5978 -1.1603 -1.1214
19166TIP3   OH278912   0.032   0.270   3.022 -0.1234 -0.0629  0.0195
19166TIP3    H178913   0.041   0.365   3.015  0.4584 -0.2235 -1.4357
19166TIP3    H278914   0.115   0.235   2.990 -1.0298 -1.1291 -1.1985
19167TIP3   OH278915   1.318   2.342  13.932 -0.0850 -0.4844  0.0462
19167TIP3    H178916   1.318   2.430  13.968 -0.0480 -0.6544  0.4720
19167TIP3    H278917   1.363   2.350  13.848 -0.9632  0.0813 -0.3746
19168TIP3   OH278918   0.404   1.889  16.300  0.3264 -0.2256  0.0722
19168TIP3    H178919   0.468   1.901  16.231 -0.4814  1.7444 -0.3620
19168TIP3    H278920   0.372   1.977  16.320 -1.5914 -1.0585  0.8841
19169TIP3   OH278921   0.686   3.236   1.582  0.2588 -0.0890 -0.6086
19169TIP3    H178922   0.632   3.264   1.656  1.0759  0.4861 -0.2220
19169TIP3    H278923   0.743   3.168   1.617  1.7785  1.3302 -0.2966
19170TIP3   OH278924   0.218   5.422  15.103  0.1605  0.2922 -0.3742
19170TIP3    H178925   0.213   5.327  15.101 -1.9687  0.3568  0.4167
19170TIP3    H278926   0.287   5.442  15.166  0.5907 -0.7318 -0.5238
19171TIP3   OH278927   0.552   5.986   1.094 -0.1052 -0.2089 -0.5959
19171TIP3    H178928   0.534   5.964   1.002 -0.5097 -1.4128 -0.2358
19171TIP3    H278929   0.638   6.027   1.092  0.2923 -1.0611 -1.4017
19172TIP3   OH278930   0.129   2.408   6.210 -0.4967  0.1665  0.4907
19172TIP3    H178931   0.118   2.503   6.204 -0.4032  0.0402 -2.7150
19172TIP3    H278932   0.223   2.393   6.197  0.1311 -0.1866  4.8025
19173TIP3   OH278933   5.839   4.320  12.591  0.0851 -0.0747  0.2228
19173TIP3    H178934   5.854   4.358  12.678 -0.9190 -0.5411  0.6119
19173TIP3    H278935   5.869   4.386  12.530  0.9896  0.1813  0.9347
19174TIP3   OH278936   3.024   6.250   2.319 -0.5306  0.1545 -0.3103
19174TIP3    H178937   3.060   6.281   2.402  0.5985 -1.2175 -0.2650
19174TIP3    H278938   2.942   6.297   2.310 -1.4213 -0.7744  2.3296
19175TIP3   OH278939   2.302   0.037  14.213  0.0391  0.1728 -0.1067
19175TIP3    H178940   2.368   0.097  14.176 -0.2014  1.1072  0.9528
19175TIP3    H278941   2.292   0.066  14.304  0.1120 -1.6624  0.5000
19176TIP3   OH278942   1.458   5.669  11.819 -0.0521 -0.5792  0.0785
19176TIP3    H178943   1.451   5.737  11.753 -1.3866 -1.6630 -0.9262
19176TIP3    H278944   1.385   5.687  11.880  0.1279 -0.5904  0.2972
19177TIP3   OH278945   1.178   6.068  11.327 -0.2286 -0.5174 -0.0972
19177TIP3    H178946   1.096   6.077  11.377 -1.8715 -0.5880 -2.6949
19177TIP3    H278947   1.178   6.143  11.268  2.2292  0.1499  0.7059
19178TIP3   OH278948   2.242   2.880   0.019  0.3264  0.2665 -0.7038
19178TIP3    H178949   2.153   2.916   0.016  0.5264  1.2105  2.6368
19178TIP3    H278950   2.237   2.810   0.084  2.4400  1.6437  0.9912
19179TIP3   OH278951   4.528   5.683  17.218  0.0344  0.1889 -0.2087
19179TIP3    H178952   4.517   5.612  17.154  0.9628  0.5574 -0.8020
19179TIP3    H278953   4.566   5.754  17.167  0.6963  0.5250  0.7425
19180TIP3   OH278954   6.749   4.919  17.085  0.3705 -0.3047  0.2607
19180TIP3    H178955   6.699   4.935  17.165 -0.9357 -0.1225 -0.5772
19180TIP3    H278956   6.745   4.824  17.074 -1.2833 -0.1476 -0.7258
19181TIP3   OH278957   0.695   1.685   0.022 -0.4267 -0.4375 -0.1897
19181TIP3    H178958   0.777   1.635   0.020 -0.2750 -0.1805 -0.5441
19181TIP3    H278959   0.638   1.636   0.081  0.3813  0.0074  0.9776
19182TIP3   OH278960   4.929   3.182   2.619 -0.4918  0.0254  0.2210
19182TIP3    H178961   4.984   3.246   2.663  0.1706 -1.2250  1.2494
19182TIP3    H278962   4.987   3.136   2.559 -0.9292  0.2754 -0.4051
19183TIP3   OH278963   4.691   6.106  15.049  0.7631 -0.5618 -0.7807
19183TIP3    H178964   4.661   6.017  15.031 -0.0505 -0.3086 -0.6925
19183TIP3    H278965   4.734   6.100  15.134  0.3829 -0.8005 -0.6031
19184TIP3   OH278966   3.209   3.230  15.033 -0.1576  0.0723 -0.1212
19184TIP3    H178967   3.257   3.216  15.114  0.2020  0.7169 -0.2124
19184TIP3    H278968   3.276   3.223  14.964 -0.1746  0.9813 -0.2492
19185TIP3   OH278969   1.840   1.743   2.720  0.3906 -0.6204 -0.6968
19185TIP3    H178970   1.796   1.715   2.801  0.4520  0.0859 -0.4204
19185TIP3    H278971   1.929   1.710   2.728  1.0296  1.3201  0.5191
19186TIP3   OH278972   2.552   5.446   6.460  0.0583 -0.1383  0.0118
19186TIP3    H178973   2.463   5.444   6.424  0.6524 -0.7826 -1.4717
19186TIP3    H278974   2.591   5.363   6.433  0.5734 -0.6183  2.1189
19187TIP3   OH278975   1.930   0.229   4.499 -0.7697 -0.0077 -0.2582
19187TIP3    H178976   1.910   0.309   4.451 -0.3698  0.9980  1.2136
19187TIP3    H278977   1.857   0.170   4.478 -1.5985  1.1001 -0.5497
19188TIP3   OH278978   4.428   2.739   5.373 -0.1478 -0.6750  0.1278
19188TIP3    H178979   4.429   2.735   5.468  1.6756 -0.3079  0.1474
19188TIP3    H278980   4.349   2.691   5.347 -1.6691  0.8253  1.8662
19189TIP3   OH278981   3.600   3.631  14.571 -0.0242 -0.5402 -0.7296
19189TIP3    H178982   3.519   3.595  14.608 -0.0942 -1.0841 -1.3928
19189TIP3    H278983   3.651   3.659  14.647 -1.1344  0.4554 -0.3435
19190TIP3   OH278984   5.349   6.545   6.275  0.1646 -0.2877  0.0438
19190TIP3    H178985   5.380   6.636   6.268 -0.0090 -0.1708  0.7981
19190TIP3    H278986   5.386   6.513   6.357 -0.4712 -0.6339  0.2003
19191TIP3   OH278987   5.761   4.975   1.902  0.2861  0.7641  0.2908
19191TIP3    H178988   5.776   4.898   1.847 -0.7758 -1.0749  2.4725
19191TIP3    H278989   5.666   4.986   1.902  0.4996  2.6477 -0.7384
19192TIP3   OH278990   4.092   5.376  14.756 -0.4004 -0.4051  0.0038
19192TIP3    H178991   4.184   5.397  14.741 -1.1275  1.6633 -1.8129
19192TIP3    H278992   4.070   5.314  14.686 -0.6839 -0.0053 -0.2625
19193TIP3   OH278993   3.663   6.458  12.781 -0.3932  0.0392  0.6778
19193TIP3    H178994   3.656   6.369  12.745  1.8871 -0.2973  0.9927
19193TIP3    H278995   3.632   6.515  12.710  1.2709 -0.8142 -0.7585
19194TIP3   OH278996   3.338   0.162  16.554  0.0979  0.0053  1.0922
19194TIP3    H178997   3.300   0.123  16.475 -1.1197  1.3497  1.0021
19194TIP3    H278998   3.425   0.124  16.559  0.0777 -0.3452 -0.7228
19195TIP3   OH278999   1.826   0.032  10.615 -0.1706 -0.2961 -0.4936
19195TIP3    H179000   1.740   0.063  10.645  0.0257 -0.7342  0.5545
19195TIP3    H279001   1.809  -0.056  10.582 -0.1227 -0.3898 -0.2683
19196TIP3   OH279002   2.795   2.107   1.610  0.0265  0.1185  0.4558
19196TIP3    H179003   2.751   2.192   1.611 -0.0868  0.0646 -0.3769
19196TIP3    H279004   2.724   2.043   1.622  0.0482  0.1048  0.5151
19197TIP3   OH279005   6.432   5.433  15.074 -0.0541  0.3983 -0.0513
19197TIP3    H179006   6.517   5.393  15.054 -0.3678 -0.5047  0.4152
19197TIP3    H279007   6.438   5.521  15.037 -0.4443 -1.0379 -3.8076
19198TIP3   OH279008   2.023   4.127  14.427  0.2014  0.0932 -0.0238
19198TIP3    H179009   2.027   4.103  14.334 -1.9297 -0.1794 -0.0611
19198TIP3    H279010   2.001   4.220  14.427  2.5615  0.6965  0.2125
19199TIP3   OH279011   5.369   6.412  16.323 -0.4986 -0.9157 -0.0018
19199TIP3    H179012   5.432   6.460  16.378 -1.1600 -0.9465  0.7860
19199TIP3    H279013   5.422   6.379  16.250  0.5222 -1.4785  0.9763
19200TIP3   OH279014   0.385   3.474  11.855 -0.2444 -0.6120 -0.6484
19200TIP3    H179015   0.458   3.427  11.816  0.1679 -0.6116  0.1150
19200TIP3    H279016   0.330   3.406  11.894  0.3594 -0.4743  0.4692
19201TIP3   OH279017   4.501   0.491  14.780 -0.1692 -0.4941 -0.3427
19201TIP3    H179018   4.484   0.493  14.686 -0.7137  0.3881 -0.2290
19201TIP3    H279019   4.422   0.528  14.819  0.1435 -0.6666  0.4541
19202TIP3   OH279020   3.819   0.472   1.918 -0.1518 -0.3313  0.3855
19202TIP3    H179021   3.841   0.558   1.883 -0.7600 -0.2998  0.0735
19202TIP3    H279022   3.903   0.432   1.939  0.1458  0.2263  0.2628
19203TIP3   OH279023   5.364   2.780   3.295  0.2737 -0.0673  0.6225
19203TIP3    H179024   5.298   2.786   3.225 -0.8910  0.3555  1.7326
19203TIP3    H279025   5.447   2.801   3.252 -0.2121 -1.3160 -0.9541
19204TIP3   OH279026   6.127   1.819  12.732 -0.0909  0.1665  0.1470
19204TIP3    H179027   6.205   1.870  12.711 -0.9277  1.3533 -0.0892
19204TIP3    H279028   6.160   1.746  12.785  1.1818  0.6212 -0.0058
19205TIP3   OH279029   1.815   6.601   5.997  0.1463  0.4652 -0.3061
19205TIP3    H179030   1.910   6.613   6.003 -0.0746  1.6718  0.9473
19205TIP3    H279031   1.780   6.649   6.072 -1.3330 -1.6127  0.3710
19206TIP3   OH279032   4.930   1.561  11.090  0.4904  0.4303  0.4484
19206TIP3    H179033   4.910   1.571  10.997  2.6089  0.4875 -0.0283
19206TIP3    H279034   4.917   1.467  11.106 -1.5389  0.7023  0.5309
19207TIP3   OH279035   3.100   0.528  17.103  0.0665 -0.7700  0.1862
19207TIP3    H179036   3.184   0.572  17.113 -0.0853 -0.4790  0.1672
19207TIP3    H279037   3.074   0.545  17.012  0.1255 -1.1012  0.1065
19208TIP3   OH279038   4.022   5.781  14.056  0.1103 -0.0432  0.5525
19208TIP3    H179039   3.956   5.840  14.093 -0.1435  0.0349 -0.0261
19208TIP3    H279040   4.099   5.835  14.045  0.0174  0.0676  0.4522
19209TIP3   OH279041   5.541   0.139  12.592 -0.5806  0.2135 -0.6128
19209TIP3    H179042   5.619   0.158  12.644 -1.3974  0.6049  0.4862
19209TIP3    H279043   5.572   0.142  12.501  0.2288  2.5805 -0.2960
19210TIP3   OH279044   0.084   3.992  13.300 -0.7758  0.7505  0.0887
19210TIP3    H179045  -0.001   3.954  13.322 -0.9999  1.3919  0.3622
19210TIP3    H279046   0.144   3.956  13.365 -0.6036 -0.6049 -0.8105
19211TIP3   OH279047   2.797   5.039   0.949  0.2806 -0.3975 -0.5544
19211TIP3    H179048   2.751   5.034   1.033  0.4531 -1.8958 -0.5338
19211TIP3    H279049   2.726   5.041   0.884  0.1421 -2.4963 -0.5121
19212TIP3   OH279050   1.637   1.335   5.433  0.3560  0.7730  0.3567
19212TIP3    H179051   1.623   1.276   5.507 -0.5577  2.0388  1.2222
19212TIP3    H279052   1.722   1.375   5.450 -0.2403  1.7097  1.1986
19213TIP3   OH279053   1.421   0.462   2.986  0.5705  0.5779 -0.0184
19213TIP3    H179054   1.489   0.490   2.925  0.8616 -1.1263 -0.5130
19213TIP3    H279055   1.460   0.471   3.073  1.2097  0.1960 -0.2657
19214TIP3   OH279056   5.726   1.882  16.136 -0.1171 -0.5424  0.1350
19214TIP3    H179057   5.649   1.861  16.189 -1.7718 -0.1044 -2.0135
19214TIP3    H279058   5.698   1.864  16.046  2.4389 -0.7572 -0.6388
19215TIP3   OH279059   3.656   0.530   5.138  0.0625  0.0776  0.2137
19215TIP3    H179060   3.576   0.543   5.088  0.2273 -0.3162 -0.1496
19215TIP3    H279061   3.640   0.451   5.189  0.8417 -0.9618 -1.1071
19216TIP3   OH279062   5.373   0.882  15.681  0.3120  0.5992 -0.7459
19216TIP3    H179063   5.345   0.955  15.737 -2.1956  0.5137 -1.8190
19216TIP3    H279064   5.379   0.920  15.593 -0.4699 -0.3573 -1.2228
19217TIP3   OH279065   5.026   0.836   2.452 -0.0716 -0.4452 -0.0182
19217TIP3    H179066   4.995   0.921   2.419 -0.0851  0.2195  1.6794
19217TIP3    H279067   5.112   0.855   2.488 -0.1601 -1.1239  0.5381
19218TIP3   OH279068   0.143   4.012   0.933  0.4430 -0.4247  0.5849
19218TIP3    H179069   0.091   4.029   1.012  0.0483  1.3333 -0.0185
19218TIP3    H279070   0.231   4.042   0.955  0.0358  1.3160 -0.0535
19219TIP3   OH279071   0.838   5.291   2.445 -0.6443 -0.0593 -0.2660
19219TIP3    H179072   0.813   5.255   2.530  0.3888  0.8736  0.4392
19219TIP3    H279073   0.814   5.384   2.449  0.9657  0.3738 -0.3545
19220TIP3   OH279074   0.722   2.312  15.550 -0.0647  0.1807 -0.3047
19220TIP3    H179075   0.681   2.395  15.524  0.1314  0.8861  1.5485
19220TIP3    H279076   0.734   2.264  15.468 -0.6372  1.7797 -1.3449
19221TIP3   OH279077   6.160   6.038   6.281  0.1792  0.1499 -0.0588
19221TIP3    H179078   6.253   6.032   6.303  0.2318 -0.3201 -0.4134
19221TIP3    H279079   6.140   6.131   6.288  0.7115  0.2710 -0.1281
19222TIP3   OH279080   0.502   0.318   1.498 -0.1800  0.6350  0.1957
19222TIP3    H179081   0.497   0.233   1.542 -1.0440  0.7828  0.3805
19222TIP3    H279082   0.412   0.337   1.471  0.0851  1.2813 -0.2505
19223TIP3   OH279083   3.355   4.944  17.097  0.3929  0.0283 -0.2384
19223TIP3    H179084   3.385   4.854  17.086 -1.5889 -0.5732 -0.9612
19223TIP3    H279085   3.370   4.984  17.011  0.0336  0.0067 -0.3097
19224TIP3   OH279086   5.047   2.604   5.598  0.3229  0.2931 -0.0253
19224TIP3    H179087   5.106   2.548   5.647  1.0579  0.9695 -0.1302
19224TIP3    H279088   5.102   2.645   5.531 -1.0684 -2.2856 -2.8810
19225TIP3   OH279089   4.381   0.588   4.741  0.2855  0.0632  0.6929
19225TIP3    H179090   4.328   0.657   4.701  1.3962  1.3608  1.4152
19225TIP3    H279091   4.395   0.525   4.670 -1.2478  0.2664  0.1911
19226TIP3   OH279092   5.348   5.959   2.141  0.8739  0.0147  0.3533
19226TIP3    H179093   5.397   6.011   2.078 -0.5322  0.3751 -0.4452
19226TIP3    H279094   5.322   6.022   2.208  0.1070  0.1307 -0.0551
19227TIP3   OH279095   1.418   1.895  15.972 -0.2103 -0.2342  0.0373
19227TIP3    H179096   1.423   1.809  15.930  0.7596  0.0290 -0.4288
19227TIP3    H279097   1.510   1.921  15.983 -0.4840  0.2822  1.1302
19228TIP3   OH279098   6.641   4.157  12.170 -0.5169  0.6550 -0.0518
19228TIP3    H179099   6.616   4.177  12.080 -0.8543  0.5177  0.0114
19228TIP3    H279100   6.719   4.210  12.186  0.3353 -0.3380 -0.8641
19229TIP3   OH279101   1.618   0.183   1.227  0.3258  0.3595 -0.4860
19229TIP3    H179102   1.695   0.240   1.228  1.6806 -1.3824 -1.2796
19229TIP3    H279103   1.652   0.098   1.258 -1.4555 -0.2170 -0.0855
19230TIP3   OH279104   2.945   3.436   1.961 -0.1328  0.1457 -0.2358
19230TIP3    H179105   3.002   3.359   1.967  1.3498  1.3906  2.2775
19230TIP3    H279106   2.874   3.418   2.022  0.3624  0.9060  0.5578
19231TIP3   OH279107   3.667   3.946   2.912  0.6018  0.4552 -0.0906
19231TIP3    H179108   3.642   3.945   2.820  0.5669  2.9645 -0.1414
19231TIP3    H279109   3.622   4.022   2.949  0.2922 -0.7478  2.0999
19232TIP3   OH279110   3.097   0.062   2.050 -0.3054 -0.7207 -0.2666
19232TIP3    H179111   3.180   0.091   2.013 -0.1125 -1.1297 -0.1557
19232TIP3    H279112   3.115  -0.026   2.083 -0.6216 -0.5666  0.3120
19233TIP3   OH279113   2.009   0.129  16.536  0.7495 -0.3380 -0.1610
19233TIP3    H179114   2.045   0.184  16.466 -0.0699  1.8921  1.1133
19233TIP3    H279115   1.918   0.114  16.510  1.3857 -2.4387 -1.2718
19234TIP3   OH279116   2.504   5.841   2.805 -0.0739  0.0228 -0.3842
19234TIP3    H179117   2.478   5.895   2.880  0.7950  1.1063 -0.8408
19234TIP3    H279118   2.586   5.881   2.775  0.5796 -1.5691 -0.7364
19235TIP3   OH279119   1.773   0.154  14.549  0.1741  0.5598 -0.7887
19235TIP3    H179120   1.844   0.208  14.584  0.1777  0.1621 -0.1654
19235TIP3    H279121   1.808   0.065  14.552 -0.7519  0.2265  0.5718
19236TIP3   OH279122   6.167   6.350   1.299 -0.1726 -0.0091 -0.7332
19236TIP3    H179123   6.260   6.373   1.298  0.3305 -1.8806  0.4765
19236TIP3    H279124   6.137   6.365   1.210  1.8299 -1.5062 -1.6889
19237TIP3   OH279125   5.656   0.924  16.045  0.8443  0.2952 -0.5626
19237TIP3    H179126   5.717   0.852  16.026  1.3243  0.2826  0.9315
19237TIP3    H279127   5.578   0.880  16.079  0.9736  0.4473 -0.0633
19238TIP3   OH279128   5.830   1.878  10.609 -0.0024  0.0895 -0.1912
19238TIP3    H179129   5.851   1.895  10.700  1.5160 -0.4785 -0.4311
19238TIP3    H279130   5.750   1.928  10.593 -0.1394  0.3742  1.3777
19239TIP3   OH279131   3.948   6.532  11.054  0.0955 -0.1839  0.7179
19239TIP3    H179132   3.939   6.502  10.964 -0.9310 -1.0123  1.0827
19239TIP3    H279133   3.987   6.619  11.047  1.8104 -1.0279 -0.4239
19240TIP3   OH279134   1.547   6.461   3.565  1.1111  0.2240  0.2293
19240TIP3    H179135   1.633   6.469   3.523  1.1984 -0.1451  0.3429
19240TIP3    H279136   1.512   6.550   3.562  1.1637  0.2230 -0.5340
19241TIP3   OH279137   1.882   3.881   0.991  0.1244  0.1249  0.3335
19241TIP3    H179138   1.967   3.906   1.029  0.7442 -0.9726 -0.3186
19241TIP3    H279139   1.904   3.836   0.910 -1.0168 -1.5460  0.9236
19242TIP3   OH279140   1.724   3.941  14.483 -0.9238 -0.3742  0.1447
19242TIP3    H179141   1.746   3.970  14.572 -0.5017 -2.1939  0.6595
19242TIP3    H279142   1.745   4.016  14.428  0.7039  0.1002  1.3589
19243TIP3   OH279143   4.885   0.512  15.503  0.7797  0.0206  0.4200
19243TIP3    H179144   4.886   0.482  15.412  1.5847  2.8929 -0.5847
19243TIP3    H279145   4.839   0.596  15.500 -1.0495 -0.8176  3.0256
19244TIP3   OH279146   4.913   0.866   0.725 -0.4978  0.0260  0.1289
19244TIP3    H179147   4.883   0.894   0.811  0.9631 -0.7688  0.9177
19244TIP3    H279148   5.006   0.844   0.738  0.1684  1.4801 -2.0196
19245TIP3   OH279149   4.596   4.252  16.123 -0.4881 -1.1721  0.0623
19245TIP3    H179150   4.552   4.179  16.168 -0.5112 -0.6227  0.9513
19245TIP3    H279151   4.686   4.223  16.112 -0.1655 -0.8159  1.6240
19246TIP3   OH279152   4.260   1.759  11.779  0.0225 -0.1807 -0.4394
19246TIP3    H179153   4.259   1.673  11.738 -2.2988  0.0264 -0.9056
19246TIP3    H279154   4.178   1.763  11.827 -0.2411  2.0473 -1.0168
19247TIP3   OH279155   0.392   0.889  16.458 -0.5042 -0.4925  0.0237
19247TIP3    H179156   0.373   0.840  16.538  0.0158  0.2769  0.6401
19247TIP3    H279157   0.314   0.879  16.404 -0.9243 -0.9002  0.6985
19248TIP3   OH279158   4.916   5.391  15.008  0.1594 -0.2784 -0.2834
19248TIP3    H179159   4.829   5.417  14.978 -0.1330 -0.6933  0.1941
19248TIP3    H279160   4.901   5.353  15.095  0.8696  0.0373 -0.0203
19249TIP3   OH279161   3.011   6.073  10.738 -0.2328  0.0263  0.3758
19249TIP3    H179162   3.083   6.121  10.696 -0.6075  0.0084 -0.2817
19249TIP3    H279163   3.019   5.984  10.705 -1.2261  0.2748 -0.5571
19250TIP3   OH279164   6.555   3.733  16.354 -0.0090  0.1397  0.0468
19250TIP3    H179165   6.485   3.704  16.295  1.6387 -1.2293 -1.2789
19250TIP3    H279166   6.626   3.670  16.339  1.3842  1.3171  1.6142
19251TIP3   OH279167   0.772   2.892   1.433  0.6512  0.2146 -0.3404
19251TIP3    H179168   0.766   2.844   1.351  3.6213 -1.2373  0.2188
19251TIP3    H279169   0.858   2.934   1.430 -0.3723  2.4715  0.8213
19252TIP3   OH279170   0.944   0.314   3.979  0.3222  0.7717  0.1524
19252TIP3    H179171   0.963   0.353   4.064  0.1211  2.3365 -0.4880
19252TIP3    H279172   0.952   0.387   3.917 -2.5846  0.3753 -0.7707
19253TIP3   OH279173   6.572   5.733  13.833 -0.3540 -0.0290  0.0582
19253TIP3    H179174   6.636   5.777  13.889  0.4329 -0.7850 -0.2329
19253TIP3    H279175   6.491   5.734  13.884  0.3602 -0.7327  1.2320
19254TIP3   OH279176   0.300   1.427  12.187  0.5122  0.5063 -0.0182
19254TIP3    H179177   0.328   1.457  12.274  0.1257  0.2104  0.2118
19254TIP3    H279178   0.289   1.506  12.136  1.5252  0.6421 -0.0307
19255TIP3   OH279179   3.085   2.501  13.969  0.6532  0.1040 -0.4844
19255TIP3    H179180   3.096   2.433  13.903  0.3912 -0.0812 -0.3400
19255TIP3    H279181   2.996   2.533  13.956  1.9256  2.8197 -2.8031
19256TIP3   OH279182   4.943   1.429   0.304 -0.8371 -0.3656 -0.6800
19256TIP3    H179183   4.894   1.511   0.312  0.7786  0.6101 -0.7479
19256TIP3    H279184   4.996   1.424   0.383 -1.0553 -1.4471 -0.5907
19257TIP3   OH279185   4.714   1.147  17.098 -0.0722  0.4794  0.0738
19257TIP3    H179186   4.771   1.216  17.135  0.1003  0.4049 -0.0557
19257TIP3    H279187   4.745   1.136  17.008 -0.2507  0.3933  0.0229
19258TIP3   OH279188   6.354   3.412   4.376 -0.5567 -0.2302  0.9871
19258TIP3    H179189   6.386   3.453   4.296  1.0266  0.6083  2.0070
19258TIP3    H279190   6.263   3.440   4.382 -1.0203 -1.2537 -1.1058
19259TIP3   OH279191   5.507   0.480   4.135  0.5505  0.0430 -0.1973
19259TIP3    H179192   5.528   0.388   4.126 -2.8278 -0.7735 -0.5821
19259TIP3    H279193   5.547   0.522   4.059 -0.7523 -1.6695 -1.8712
19260TIP3   OH279194   1.012   0.854   1.934  0.1223  0.1836 -0.1342
19260TIP3    H179195   1.087   0.804   1.901  0.8375  1.5557 -0.6214
19260TIP3    H279196   1.030   0.864   2.027  0.7666  0.8662 -0.3249
19261TIP3   OH279197   2.545   2.063   5.125  0.0439  0.8894  0.1513
19261TIP3    H179198   2.609   2.027   5.186 -1.0971 -0.8707  0.3384
19261TIP3    H279199   2.471   2.003   5.130 -0.4642  1.2747 -2.2190
19262TIP3   OH279200   0.616   4.435  10.824  0.1020  0.1087 -0.1666
19262TIP3    H179201   0.705   4.459  10.847  0.3736  1.6257 -2.6138
19262TIP3    H279202   0.568   4.518  10.822 -1.6329 -0.7859  2.1008
19263TIP3   OH279203   1.049   6.626  11.561 -0.1004 -0.8362  0.5607
19263TIP3    H179204   1.009   6.644  11.476  1.4538 -0.0894 -0.0225
19263TIP3    H279205   1.063   6.531  11.561  1.0788 -0.6737 -0.5580
19264TIP3   OH279206   1.981   3.247   1.000 -0.2626 -0.2766 -0.8382
19264TIP3    H179207   1.946   3.333   0.976 -1.0905  0.1724  1.8277
19264TIP3    H279208   1.911   3.206   1.051  0.1950 -2.4858 -1.9491
19265TIP3   OH279209   3.130   2.694  14.217 -0.1373 -0.1239 -0.3276
19265TIP3    H179210   3.131   2.764  14.282 -0.7964 -1.2239  0.8854
19265TIP3    H279211   3.129   2.740  14.132  3.1156  1.3449  0.3374
19266TIP3   OH279212   0.498   2.050   1.320 -0.3685  0.0641  0.1228
19266TIP3    H179213   0.509   2.075   1.229 -1.4657  2.4303  0.5845
19266TIP3    H279214   0.433   1.979   1.318  0.8342 -1.0272 -1.0348
19267TIP3   OH279215   3.712   0.846   4.753 -0.6785  0.3538 -0.3116
19267TIP3    H179216   3.756   0.819   4.833  0.0180  1.5075 -0.2879
19267TIP3    H279217   3.692   0.764   4.707  0.4707 -0.2252  0.2164
19268TIP3   OH279218   3.519   5.715   0.274  0.1404  0.6267  0.4157
19268TIP3    H179219   3.452   5.658   0.236 -0.7536  0.2146  2.5413
19268TIP3    H279220   3.573   5.741   0.200 -1.9975  0.4630 -1.2602
19269TIP3   OH279221   0.471   0.925   2.635 -0.3997  0.5763 -0.2297
19269TIP3    H179222   0.412   0.855   2.663  1.6334 -1.5108 -0.9676
19269TIP3    H279223   0.523   0.946   2.713 -0.4141  0.6201 -0.2321
19270TIP3   OH279224   1.795   6.385  11.425 -0.0742 -0.1956  0.2080
19270TIP3    H179225   1.806   6.464  11.372 -0.8644 -1.1810 -1.5092
19270TIP3    H279226   1.882   6.346  11.430  0.0075 -0.1072 -0.4403
19271TIP3   OH279227   5.797   0.391   3.324 -0.0960 -0.3347 -0.3995
19271TIP3    H179228   5.720   0.355   3.281 -0.0438 -0.5606 -0.3046
19271TIP3    H279229   5.838   0.447   3.258 -0.7909  0.4352 -0.1842
19272TIP3   OH279230   5.975   5.977  13.925 -0.1152  0.4378 -0.1571
19272TIP3    H179231   5.996   6.056  13.875  0.5559 -0.1175 -0.7585
19272TIP3    H279232   6.006   5.905  13.870 -0.4630 -0.2312  0.5189
19273TIP3   OH279233   3.765   6.421   2.442 -0.0305  0.1692 -0.0271
19273TIP3    H179234   3.860   6.414   2.434  0.1725 -0.0932  2.1828
19273TIP3    H279235   3.732   6.338   2.406  0.7759 -0.9428  1.7007
19274TIP3   OH279236   4.788   0.059   0.629 -0.1192 -0.5003 -0.9361
19274TIP3    H179237   4.788  -0.021   0.577 -0.5127  0.2639 -2.1268
19274TIP3    H279238   4.749   0.033   0.713 -1.2423 -1.3216 -1.6966
19275TIP3   OH279239   6.618   1.361  16.742  0.0402  0.1146 -0.0276
19275TIP3    H179240   6.529   1.327  16.738 -1.0043  2.8421 -0.4810
19275TIP3    H279241   6.666   1.308  16.677 -2.0767  1.0021 -2.4183
19276TIP3   OH279242   2.351   2.977  11.246 -0.2188  0.0869  0.5278
19276TIP3    H179243   2.379   2.887  11.261  1.1791  0.3762 -0.3581
19276TIP3    H279244   2.313   2.976  11.158  1.0749  0.6670 -0.0394
19277TIP3   OH279245   0.419   3.408  15.105 -0.7843 -0.5405 -0.3763
19277TIP3    H179246   0.352   3.468  15.074 -1.2362 -1.5879 -1.4577
19277TIP3    H279247   0.492   3.420  15.044 -0.2555  0.0829  0.3751
19278TIP3   OH279248   3.568   5.487  10.956  0.1718 -0.3868  0.1716
19278TIP3    H179249   3.663   5.475  10.948  0.5399  2.0146  0.6682
19278TIP3    H279250   3.558   5.557  11.020 -1.9115  0.1953 -0.7639
19279TIP3   OH279251   2.893   1.773  16.206 -0.0769 -0.2637  0.0565
19279TIP3    H179252   2.979   1.732  16.203 -0.2744 -0.6613 -0.2199
19279TIP3    H279253   2.835   1.704  16.238 -0.1253  0.2848  1.1670
19280TIP3   OH279254   0.389   5.109  10.966  0.3340  0.9501  0.7302
19280TIP3    H179255   0.299   5.077  10.960  0.7177 -0.0546  0.1541
19280TIP3    H279256   0.442   5.030  10.976  1.1803  1.5114  0.7303
19281TIP3   OH279257   4.134   5.850   5.451  0.2991 -0.1937 -0.0148
19281TIP3    H179258   4.115   5.882   5.539 -1.7761  0.4228 -0.6487
19281TIP3    H279259   4.118   5.926   5.395  2.8603 -0.2138 -0.8133
19282TIP3   OH279260   6.645   2.283   1.881 -0.8834  0.6599  0.0655
19282TIP3    H179261   6.631   2.212   1.944 -1.6574  1.6578  1.0229
19282TIP3    H279262   6.602   2.359   1.920 -1.0744  1.3752 -1.5073
19283TIP3   OH279263   4.404   3.143  13.896 -0.2774 -0.4352 -0.2091
19283TIP3    H179264   4.350   3.136  13.817  0.1726  1.8763 -0.7715
19283TIP3    H279265   4.353   3.197  13.956  0.6766  0.3914 -0.1221
19284TIP3   OH279266   6.671   5.493   1.513 -0.2083  0.5490  0.7956
19284TIP3    H179267   6.600   5.484   1.576 -1.9327 -0.1357 -1.1648
19284TIP3    H279268   6.642   5.441   1.437  2.0936  0.7862 -0.2856
19285TIP3   OH279269   4.468   0.004  12.462  0.2958  0.0396 -0.4172
19285TIP3    H179270   4.427   0.053  12.533 -0.8219  1.6815 -2.1567
19285TIP3    H279271   4.556  -0.016  12.495 -0.0130  1.2335  1.2061
19286TIP3   OH279272   6.679   4.363   2.014  0.6834 -0.2586 -0.4555
19286TIP3    H179273   6.606   4.353   2.076  0.7632  0.5788 -0.2147
19286TIP3    H279274   6.751   4.398   2.066  0.5965  0.9445 -1.0992
19287TIP3   OH279275   0.939   5.491  12.208 -0.4093 -0.1242 -0.1676
19287TIP3    H179276   1.018   5.543  12.190 -0.5722 -0.6438 -2.5484
19287TIP3    H279277   0.971   5.401  12.214 -0.8124 -0.3274 -1.0809
19288TIP3   OH279278   0.171   0.802   0.499 -0.2920 -0.3143 -0.6888
19288TIP3    H179279   0.234   0.852   0.447  0.3604 -0.7236 -0.3058
19288TIP3    H279280   0.170   0.847   0.584  0.1602 -0.8311 -0.4040
19289TIP3   OH279281   4.657   0.671  12.848  0.0544  0.1893 -0.5565
19289TIP3    H179282   4.732   0.629  12.804  0.4267  0.6681 -0.3812
19289TIP3    H279283   4.581   0.622  12.817  0.4076 -0.0893 -0.9969
19290TIP3   OH279284   5.103   6.628   4.622  0.2629  0.6446  0.6482
19290TIP3    H179285   5.115   6.533   4.627 -0.1049  0.5284 -0.5538
19290TIP3    H279286   5.189   6.661   4.594 -0.1613  0.4733 -0.8983
19291TIP3   OH279287   1.915   0.692   4.364 -0.5893  0.9200 -0.5149
19291TIP3    H179288   1.823   0.706   4.387 -0.9033 -1.6272 -0.0635
19291TIP3    H279289   1.963   0.753   4.420 -1.7121 -1.1610  2.8800
19292TIP3   OH279290   6.555   0.829  10.485  0.2615  0.0863  0.3296
19292TIP3    H179291   6.576   0.780  10.406  1.0005 -1.3902  1.4206
19292TIP3    H279292   6.508   0.907  10.454 -1.2905 -1.4967 -1.3909
19293TIP3   OH279293   4.849   5.150  11.504  0.9335 -0.0481 -0.0636
19293TIP3    H179294   4.847   5.082  11.572  1.3531 -0.6943 -0.6882
19293TIP3    H279295   4.864   5.102  11.422 -1.9488  0.4633 -0.9425
19294TIP3   OH279296   0.837   1.553  12.630  0.1189 -0.0074  0.4013
19294TIP3    H179297   0.926   1.540  12.595 -0.0374 -2.1003  0.6761
19294TIP3    H279298   0.786   1.482  12.591 -0.7434 -0.6096  2.5600
19295TIP3   OH279299   0.172   4.622  16.135 -0.0473 -0.4354 -0.6653
19295TIP3    H179300   0.230   4.617  16.211 -0.1215 -0.1456 -0.5859
19295TIP3    H279301   0.084   4.614  16.171 -0.1001  0.0607 -0.6793
19296TIP3   OH279302   3.858   0.810   2.860  0.0562 -0.1539  0.0588
19296TIP3    H179303   3.862   0.900   2.891  0.7076 -0.1641  0.0203
19296TIP3    H279304   3.791   0.769   2.914 -1.0644  0.6452 -0.6942
19297TIP3   OH279305   3.932   5.348   5.833  0.2166 -0.0878 -0.3062
19297TIP3    H179306   3.887   5.433   5.824  1.1517  0.4556  0.0414
19297TIP3    H279307   3.913   5.320   5.923  0.0119 -0.1798 -0.3789
19298TIP3   OH279308   6.468   3.931   3.617 -0.4613 -0.1168  0.3253
19298TIP3    H179309   6.423   3.899   3.695  0.3779 -0.1318  0.8106
19298TIP3    H279310   6.451   4.026   3.617 -1.3821 -0.2797 -0.0854
19299TIP3   OH279311   5.746   4.933  13.382  0.1960  0.8946 -0.1871
19299TIP3    H179312   5.778   4.998  13.319  0.4514 -0.1291 -1.1395
19299TIP3    H279313   5.710   4.863  13.327  0.6720 -0.1404  0.8001
19300TIP3   OH279314   5.555   5.175  12.268  0.5845 -0.0122 -0.0018
19300TIP3    H179315   5.599   5.204  12.348  0.2201 -1.0986  0.6000
19300TIP3    H279316   5.526   5.086  12.287 -0.0958 -0.0421 -1.1111
19301TIP3   OH279317   1.289   0.247  16.191 -0.2750  0.5161  0.2387
19301TIP3    H179318   1.304   0.202  16.274 -0.2625 -0.3436 -0.2237
19301TIP3    H279319   1.232   0.321  16.214 -0.0317  0.4542  1.0594
19302TIP3   OH279320   5.294   4.525   6.670  0.2773 -0.2147  0.3016
19302TIP3    H179321   5.309   4.442   6.714  1.5432  0.9186  2.0917
19302TIP3    H279322   5.201   4.524   6.646  0.2292 -2.0154  0.5015
19303TIP3   OH279323   5.810   3.722  11.956  0.3287 -0.1378  0.1526
19303TIP3    H179324   5.845   3.782  12.022  1.3019 -0.0379 -0.4510
19303TIP3    H279325   5.812   3.771  11.874 -0.3390 -0.4586 -0.0609
19304TIP3   OH279326   3.482   4.863  12.381  0.2223  0.3114 -0.0893
19304TIP3    H179327   3.463   4.781  12.427  0.1400  1.1722  1.4065
19304TIP3    H279328   3.529   4.835  12.302  3.0733 -0.9917  1.9771
19305TIP3   OH279329   1.824   2.263   0.079 -0.3163  0.6787 -0.7786
19305TIP3    H179330   1.764   2.189   0.086  2.5989 -1.8626 -1.4764
19305TIP3    H279331   1.848   2.285   0.169 -0.3849  0.0770 -0.6170
19306TIP3   OH279332   0.797   2.798   5.265 -0.3614  0.2239 -0.1685
19306TIP3    H179333   0.754   2.878   5.297  1.2317  0.9446  0.1842
19306TIP3    H279334   0.748   2.777   5.185  0.2362  2.5242 -1.2098
19307TIP3   OH279335   1.002   2.977   5.463  0.0908 -0.2895  0.0785
19307TIP3    H179336   0.983   2.925   5.386  0.5801  1.0060 -0.9275
19307TIP3    H279337   1.057   3.049   5.432  0.1538  0.3518  1.5880
19308TIP3   OH279338   6.271   4.554   6.453  0.4722 -0.1052  0.2048
19308TIP3    H179339   6.255   4.541   6.360  1.0618  1.2150 -0.1025
19308TIP3    H279340   6.191   4.525   6.496 -0.9314  1.9681 -0.9326
19309TIP3   OH279341   5.009   2.072   1.018 -0.3027 -0.6097 -0.0794
19309TIP3    H179342   5.059   2.017   1.078 -1.7405 -0.9884  0.7973
19309TIP3    H279343   5.004   2.157   1.062 -0.3193 -0.5333 -0.2282
19310TIP3   OH279344   1.009   2.006  15.963  0.1204  0.1051  0.0222
19310TIP3    H179345   0.993   2.034  15.873 -0.5199  1.5689  0.5807
19310TIP3    H279346   1.085   2.057  15.991  2.1470 -2.4501 -0.6246
19311TIP3   OH279347   1.769   3.937   4.716 -0.9026 -0.1974 -0.5738
19311TIP3    H179348   1.702   3.998   4.748 -1.4149 -0.7851 -0.5217
19311TIP3    H279349   1.727   3.890   4.644 -0.5101 -0.4907 -0.6150
19312TIP3   OH279350   3.837   0.718  16.408  0.5905 -0.8575 -0.0395
19312TIP3    H179351   3.779   0.645  16.432 -0.8982 -0.4619 -2.2576
19312TIP3    H279352   3.779   0.780  16.364  2.6244 -0.1788 -1.8088
19313TIP3   OH279353   3.198   4.795  10.439  0.4906  0.1959  0.0319
19313TIP3    H179354   3.160   4.794  10.527  1.0951  0.8139  0.3002
19313TIP3    H279355   3.150   4.863  10.393 -0.6488 -0.9338 -0.4930
19314TIP3   OH279356   6.599   2.966  12.444 -0.4787  0.3750 -0.0703
19314TIP3    H179357   6.585   3.061  12.436 -0.4517  0.2539 -1.7209
19314TIP3    H279358   6.579   2.932  12.357  2.4864 -0.7752 -0.3555
19315TIP3   OH279359   3.018   3.789   0.002 -0.7032 -0.1717  0.0466
19315TIP3    H179360   2.955   3.847  -0.039  0.8816  1.6381  0.1046
19315TIP3    H279361   3.103   3.829  -0.015  0.3897 -2.1089  0.6898
19316TIP3   OH279362   3.326   2.270   1.542  0.0971 -0.2539  0.6837
19316TIP3    H179363   3.334   2.177   1.560  1.7427 -0.4700 -0.9116
19316TIP3    H279364   3.417   2.300   1.533 -0.4588  1.0933 -0.6688
19317TIP3   OH279365   4.199   1.307   5.714 -0.1276  0.6722 -0.1440
19317TIP3    H179366   4.132   1.294   5.647  1.3088  1.8234 -1.8520
19317TIP3    H279367   4.156   1.358   5.783 -1.7452 -0.9220  0.0489
19318TIP3   OH279368   6.074   2.860  11.544  0.1767  0.6792 -0.5077
19318TIP3    H179369   6.118   2.804  11.608 -0.2364  1.8543  0.8384
19318TIP3    H279370   5.982   2.832  11.549  0.3684 -0.2014 -1.6453
19319TIP3   OH279371   3.661   0.690  15.412  0.3192 -0.3911  0.2767
19319TIP3    H179372   3.729   0.751  15.386 -0.2274  0.0273 -0.1751
19319TIP3    H279373   3.627   0.725  15.494  1.5964 -1.3598  1.2562
19320TIP3   OH279374   2.528   6.473  15.846  0.0993  0.2621  0.8978
19320TIP3    H179375   2.567   6.468  15.933  0.4498  1.6616  0.8410
19320TIP3    H279376   2.550   6.561  15.816 -2.2559  0.7135  0.4595
19321TIP3   OH279377   4.500   0.704   2.643 -0.4479 -0.2265 -0.3101
19321TIP3    H179378   4.562   0.639   2.608  0.9764  2.4657 -3.0267
19321TIP3    H279379   4.415   0.659   2.642  0.9570 -3.0677  0.8533
19322TIP3   OH279380   1.488   4.211  11.767 -0.0611  0.4926 -0.0970
19322TIP3    H179381   1.425   4.191  11.836  0.5773  0.9628  0.6470
19322TIP3    H279382   1.529   4.293  11.796  2.8581 -1.2162  0.8908
19323TIP3   OH279383   3.953   4.450  14.589 -0.1749  0.2605 -0.4535
19323TIP3    H179384   4.000   4.529  14.613 -1.8311  1.2537 -0.3885
19323TIP3    H279385   3.954   4.450  14.493 -0.6552  0.6529 -0.4577
19324TIP3   OH279386   2.699   5.779   4.244  0.0379  0.3987  0.1514
19324TIP3    H179387   2.606   5.789   4.226 -0.0291 -1.2884 -0.5504
19324TIP3    H279388   2.736   5.748   4.161  0.7862 -1.4521  1.1490
19325TIP3   OH279389   0.414   4.649   6.456 -0.1794 -0.0999  0.2188
19325TIP3    H179390   0.485   4.713   6.464 -0.7119  0.7127 -1.2875
19325TIP3    H279391   0.458   4.565   6.451  0.6037  0.2661  0.8376
19326TIP3   OH279392   1.665   6.643   2.801  0.3789  0.6454 -0.1412
19326TIP3    H179393   1.574   6.661   2.825  0.2159 -0.6579  0.2892
19326TIP3    H279394   1.704   6.608   2.881  1.0885  0.5997 -0.5039
19327TIP3   OH279395   0.091   5.755  13.481  0.1924 -0.1348 -0.7191
19327TIP3    H179396   0.187   5.756  13.474  0.3500 -1.3456  1.0615
19327TIP3    H279397   0.063   5.828  13.426  2.1912  0.8146 -0.5458
19328TIP3   OH279398   5.995   6.621  14.818  0.2104  0.3504 -0.0711
19328TIP3    H179399   6.028   6.646  14.905 -1.3023 -1.9520  1.2349
19328TIP3    H279400   6.069   6.576  14.777 -0.3593 -2.5059  1.8423
19329TIP3   OH279401   2.468   6.724   5.926 -0.3964  0.1300 -0.1901
19329TIP3    H179402   2.427   6.645   5.962  1.0537 -0.5579 -0.0104
19329TIP3    H279403   2.513   6.764   6.001 -2.1918  1.8384  0.0079
19330TIP3   OH279404   4.573   1.386  12.733 -0.3845 -0.3626  0.2607
19330TIP3    H179405   4.504   1.320  12.728 -0.2087 -0.4781 -0.7909
19330TIP3    H279406   4.594   1.406  12.642 -0.7746  1.5014  0.5572
19331TIP3   OH279407   1.021   5.539  15.945  0.0761 -0.2142 -0.1771
19331TIP3    H179408   0.934   5.580  15.948  0.7895  1.2185  2.2156
19331TIP3    H279409   1.017   5.470  16.011  0.7924 -0.0654  0.0206
19332TIP3   OH279410   5.919   6.503  17.098  0.3312  0.1053  0.3418
19332TIP3    H179411   5.909   6.412  17.128  0.6324 -0.5973 -1.6218
19332TIP3    H279412   5.831   6.541  17.106  0.1414 -0.4348  0.8968
19333TIP3   OH279413   6.632   3.244  11.536 -0.2966  0.4166  0.5582
19333TIP3    H179414   6.660   3.152  11.538 -0.4796  0.2913 -1.6835
19333TIP3    H279415   6.679   3.285  11.609 -0.2288 -1.4503  1.5908
19334TIP3   OH279416   4.065   5.669   6.831  0.0709 -0.2574 -0.2131
19334TIP3    H179417   4.078   5.579   6.801  1.3599  0.0679 -0.6430
19334TIP3    H279418   4.004   5.661   6.904 -1.2585 -1.3042 -1.4063
19335TIP3   OH279419   5.340   3.105  13.131  0.0680 -0.0025  0.1049
19335TIP3    H179420   5.379   3.084  13.047 -1.6379  0.7716 -0.9038
19335TIP3    H279421   5.327   3.200  13.128  0.5778  0.1275  1.5006
19336TIP3   OH279422   2.280   0.212   3.382  0.0628 -0.1930  0.1003
19336TIP3    H179423   2.240   0.276   3.324 -2.5774 -1.2192  0.7178
19336TIP3    H279424   2.319   0.147   3.323 -0.3059  0.1497 -0.5304
19337TIP3   OH279425   0.524   5.156   5.531 -0.2762 -0.1907  0.0563
19337TIP3    H179426   0.591   5.130   5.593 -1.0220 -0.9789  0.5422
19337TIP3    H279427   0.553   5.241   5.498  1.7112 -1.1939 -0.8523
19338TIP3   OH279428   4.084   1.995  15.309 -0.4505  0.5318  0.1050
19338TIP3    H179429   4.133   1.992  15.227 -1.6196  0.4893 -0.6022
19338TIP3    H279430   4.009   2.050  15.290 -0.3831  1.0595  1.3474
19339TIP3   OH279431   1.641   1.642   0.633 -0.2184  0.2792 -0.2745
19339TIP3    H179432   1.644   1.728   0.589 -0.7524  0.3630 -0.1500
19339TIP3    H279433   1.731   1.626   0.661  0.5673 -0.6737 -3.1372
19340TIP3   OH279434   3.258   5.600   3.775  0.1451  0.1333  0.9325
19340TIP3    H179435   3.186   5.661   3.792  0.9751  1.0821  1.0893
19340TIP3    H279436   3.324   5.623   3.840  0.9412 -0.1679  0.2277
19341TIP3   OH279437   4.159   0.508   3.803 -0.0379  0.4123 -0.9673
19341TIP3    H179438   4.190   0.524   3.715 -0.3921  0.9117 -1.0018
19341TIP3    H279439   4.081   0.454   3.791  0.7765 -0.8138 -0.8825
19342TIP3   OH279440   3.693   1.330  13.235  0.7411  0.7050 -0.4918
19342TIP3    H179441   3.775   1.376  13.214  0.0132  2.5275  0.5678
19342TIP3    H279442   3.626   1.377  13.186  0.2125 -0.3442 -0.7912
19343TIP3   OH279443   2.423   1.782  11.302 -0.3269  0.1623  0.2556
19343TIP3    H179444   2.406   1.728  11.379 -1.3001 -1.6765 -1.1915
19343TIP3    H279445   2.497   1.740  11.258  0.6043  1.5353  0.4871
19344TIP3   OH279446   3.905   0.174  11.538 -0.2196 -0.1213 -0.3813
19344TIP3    H179447   3.899   0.230  11.460  0.1471  0.6172  0.1115
19344TIP3    H279448   3.963   0.222  11.597 -0.1875 -0.8613  0.1957
19345TIP3   OH279449   1.148   6.302  11.848  0.0681 -0.0149  0.4345
19345TIP3    H179450   1.202   6.310  11.927 -1.3569 -1.0939  1.5432
19345TIP3    H279451   1.061   6.329  11.876 -0.6098 -1.0925 -0.5904
19346TIP3   OH279452   4.631   3.649  15.094  0.3970  0.6483 -0.3326
19346TIP3    H179453   4.558   3.696  15.134 -0.0416 -1.2018  1.1217
19346TIP3    H279454   4.687   3.623  15.167  1.4220  0.2463 -1.2391
19347TIP3   OH279455   2.534   3.675   5.777  0.3863 -0.0320  0.0221
19347TIP3    H179456   2.609   3.623   5.750 -0.5456 -0.8933 -0.9464
19347TIP3    H279457   2.547   3.761   5.736  0.5099 -0.3875 -0.6862
19348TIP3   OH279458   5.006   1.207  13.122 -0.1708 -0.1962 -0.8591
19348TIP3    H179459   4.985   1.265  13.049 -0.6805  2.1917  1.1280
19348TIP3    H279460   4.935   1.221  13.185 -0.3624 -3.0819 -0.3578
19349TIP3   OH279461   1.248   5.514  12.448  0.3260  0.0388 -0.5524
19349TIP3    H179462   1.191   5.568  12.503  0.4359  1.1760 -1.5384
19349TIP3    H279463   1.278   5.573  12.379  0.3125 -1.3331 -1.7538
19350TIP3   OH279464   5.774   2.720  13.611  0.7606 -0.3805  0.0057
19350TIP3    H179465   5.803   2.631  13.587 -1.2867 -0.6293 -1.6755
19350TIP3    H279466   5.683   2.709  13.637  0.6177  1.1927  0.1901
19351TIP3   OH279467   5.990   5.168   5.185  0.1865 -0.4018  0.0698
19351TIP3    H179468   5.917   5.107   5.175  0.7544 -1.0760 -0.0283
19351TIP3    H279469   5.949   5.254   5.199 -0.6204 -0.8952  0.7659
19352TIP3   OH279470   1.656   5.331  11.376  0.3728  0.1288  0.3582
19352TIP3    H179471   1.687   5.399  11.317 -1.2640  0.6492  0.0598
19352TIP3    H279472   1.586   5.373  11.426  0.2971 -0.9275  1.1682
19353TIP3   OH279473   0.210   0.309  15.635 -0.5045  0.1322  0.3574
19353TIP3    H179474   0.176   0.352  15.556  0.0370  0.0779  0.0910
19353TIP3    H279475   0.145   0.242  15.656 -0.2600 -0.3721 -0.4942
19354TIP3   OH279476   1.435   4.685   2.443  0.0416 -0.6059 -0.0330
19354TIP3    H179477   1.436   4.781   2.449  0.9801 -0.6085 -0.1547
19354TIP3    H279478   1.508   4.663   2.385  1.1761 -1.5006  1.6842
19355TIP3   OH279479   5.147   3.476   3.149  0.1302  0.5342 -0.3127
19355TIP3    H179480   5.103   3.419   3.086  2.6611  0.9421 -2.5489
19355TIP3    H279481   5.240   3.453   3.142  0.7359  2.2429  1.5709
19356TIP3   OH279482   5.736   2.333   0.415  0.2759  0.4015  0.1617
19356TIP3    H179483   5.749   2.241   0.391 -0.7724  0.0630  0.8726
19356TIP3    H279484   5.825   2.367   0.425  0.6821 -0.3481 -0.7951
19357TIP3   OH279485   6.688   4.611   0.786 -0.0226 -0.8088 -0.1967
19357TIP3    H179486   6.745   4.573   0.719  0.5614  0.0158 -0.1829
19357TIP3    H279487   6.641   4.681   0.741 -1.1414 -1.5743 -0.2413
19358TIP3   OH279488   2.760   3.817   3.124 -0.0646  0.3577  0.8812
19358TIP3    H179489   2.843   3.779   3.096  0.1562  0.2237  1.6962
19358TIP3    H279490   2.760   3.906   3.088  0.2488  0.2184  0.5384
19359TIP3   OH279491   0.825   3.691  15.929  0.2813 -0.4925 -0.5170
19359TIP3    H179492   0.733   3.678  15.951  0.0824  0.8312 -0.4826
19359TIP3    H279493   0.867   3.608  15.949 -0.6527 -0.6563  0.8391
19360TIP3   OH279494   2.171   3.740  16.102  0.1398  0.0838  0.4862
19360TIP3    H179495   2.168   3.697  16.016  0.9180 -0.0212  0.5066
19360TIP3    H279496   2.252   3.708  16.142  0.7066  1.5423  0.5241
19361TIP3   OH279497   5.278   0.043  12.531  0.1378  0.5364 -0.1846
19361TIP3    H179498   5.235   0.094  12.599  1.9745 -1.1063  2.3011
19361TIP3    H279499   5.371   0.064  12.540  0.5753 -0.8156 -1.2147
19362TIP3   OH279500   5.181   5.147   1.797 -0.2279 -0.2790 -0.0663
19362TIP3    H179501   5.200   5.063   1.839  1.2376 -0.1115 -0.3433
19362TIP3    H279502   5.196   5.130   1.704 -2.1018 -0.2860 -0.3732
19363TIP3   OH279503   4.337   4.971   5.853  0.2416 -0.7797 -0.0001
19363TIP3    H179504   4.358   5.056   5.815 -0.2220 -0.8715 -0.4592
19363TIP3    H279505   4.375   4.974   5.941 -1.1936  0.5170  0.5831
19364TIP3   OH279506   4.441   4.478  14.889 -0.1284  0.1391 -0.2621
19364TIP3    H179507   4.345   4.479  14.883 -0.2198  0.0328  1.0473
19364TIP3    H279508   4.464   4.386  14.875 -0.3631 -0.1670  1.2066
19365TIP3   OH279509   3.470   1.101   4.351 -0.5571  0.1036 -0.2564
19365TIP3    H179510   3.414   1.104   4.429 -0.9062 -1.9609 -0.4211
19365TIP3    H279511   3.414   1.130   4.280 -0.6103  0.7287  0.0360
19366TIP3   OH279512   0.204   5.610  12.226 -0.0500 -0.2176  0.3798
19366TIP3    H179513   0.260   5.650  12.293  0.0388 -2.6774  1.8260
19366TIP3    H279514   0.120   5.597  12.269  0.0381 -1.9261  0.0752
19367TIP3   OH279515   0.306   1.431  16.560  0.1455  0.2071 -0.1972
19367TIP3    H179516   0.362   1.357  16.584  0.4291  0.0060 -1.4231
19367TIP3    H279517   0.364   1.490  16.511  0.2192  1.8293  1.8024
19368TIP3   OH279518   2.900   4.875   1.775 -0.8057  0.6372 -0.1124
19368TIP3    H179519   2.934   4.914   1.856 -0.1098  2.0609 -1.0659
19368TIP3    H279520   2.807   4.895   1.776 -0.9637 -0.0755  0.7251
19369TIP3   OH279521   3.213   5.014  16.649  0.1221 -0.1726  0.1853
19369TIP3    H179522   3.254   4.995  16.564 -1.1629 -1.6279 -0.1352
19369TIP3    H279523   3.287   5.033  16.707  1.0114  1.0445 -1.2919
19370TIP3   OH279524   2.305   5.766   4.545 -0.4797  0.6812 -0.0204
19370TIP3    H179525   2.374   5.700   4.535 -1.9883 -0.7619 -1.2555
19370TIP3    H279526   2.352   5.850   4.543  1.3267 -0.2865  0.0679
19371TIP3   OH279527   4.532   3.757   4.755  0.1778  0.5010  0.0711
19371TIP3    H179528   4.491   3.675   4.780  1.6755 -0.7822 -1.5779
19371TIP3    H279529   4.495   3.822   4.815 -1.6077 -1.2235  0.8662
19372TIP3   OH279530   4.727   4.764   4.938 -0.6377  0.2227 -0.6502
19372TIP3    H179531   4.676   4.805   4.868  0.8859 -1.4753 -2.8346
19372TIP3    H279532   4.818   4.788   4.919 -0.3216  0.7696  1.4863
19373TIP3   OH279533   4.022   2.437   3.062 -0.5650 -0.4877 -0.2572
19373TIP3    H179534   4.043   2.348   3.034  1.0323 -0.1013 -0.3270
19373TIP3    H279535   4.073   2.450   3.142  0.8080  1.0553 -1.3395
19374TIP3   OH279536   0.378   1.356  14.348  0.1326  0.2203 -0.1049
19374TIP3    H179537   0.287   1.381  14.331  1.0436  2.6282 -1.8400
19374TIP3    H279538   0.429   1.429  14.313  2.7077 -0.5913  1.8001
19375TIP3   OH279539   5.333   5.055  16.551  0.2056  0.3916 -0.2977
19375TIP3    H179540   5.244   5.091  16.554 -0.0459 -0.2591  0.2507
19375TIP3    H279541   5.388   5.129  16.527 -0.5280  0.7234 -1.0028
19376TIP3   OH279542   4.294   5.851  17.175  0.2861 -0.0199  0.0412
19376TIP3    H179543   4.379   5.808  17.188 -0.0316 -0.5217  0.4481
19376TIP3    H279544   4.230   5.780  17.177 -0.2956  0.5277  1.2418
19377TIP3   OH279545   2.473   2.236  13.572 -0.0444 -0.1973  0.4923
19377TIP3    H179546   2.462   2.195  13.658 -0.6680  2.0377  1.5363
19377TIP3    H279547   2.566   2.261  13.569  0.3063 -1.5455 -0.0912
19378TIP3   OH279548   2.039   3.430  16.983 -0.4733 -0.0700 -0.3243
19378TIP3    H179549   1.986   3.418  16.905 -1.7784  0.8557  0.4097
19378TIP3    H279550   1.981   3.473  17.046  0.5108 -0.9111  1.2017
19379TIP3   OH279551   5.783   1.823  14.180  0.1719  0.2217 -0.6687
19379TIP3    H179552   5.726   1.842  14.254 -2.0709 -3.7502 -1.2590
19379TIP3    H279553   5.858   1.779  14.218  1.5177  2.8068 -0.2334
19380TIP3   OH279554   2.906   5.358   0.908  0.1485  0.2227 -0.0424
19380TIP3    H179555   2.828   5.354   0.963 -0.0406 -1.4534 -0.4280
19380TIP3    H279556   2.965   5.292   0.944  1.0371  0.8619 -0.3038
19381TIP3   OH279557   0.640   4.569   5.863 -0.3297 -0.1512 -0.3183
19381TIP3    H179558   0.735   4.557   5.866 -0.0340  2.4848  2.6450
19381TIP3    H279559   0.623   4.643   5.920 -4.2045 -0.4923 -0.9028
19382TIP3   OH279560   0.772   4.304   5.444 -0.0292  0.2160  0.0037
19382TIP3    H179561   0.787   4.328   5.535 -1.0011 -0.2486  0.2863
19382TIP3    H279562   0.858   4.275   5.412  0.1091 -0.5288  1.0350
19383TIP3   OH279563   5.753   5.723   0.140 -0.5762  0.1357  0.0032
19383TIP3    H179564   5.661   5.742   0.122 -0.5226 -0.3313 -0.8040
19383TIP3    H279565   5.786   5.685   0.058  0.5070  0.9307  0.0599
19384TIP3   OH279566   5.688   2.375   4.143 -0.6277 -0.1278  0.5415
19384TIP3    H179567   5.599   2.410   4.144 -0.2498  0.9233 -0.4298
19384TIP3    H279568   5.738   2.440   4.093  0.7287 -0.5953  1.2644
19385TIP3   OH279569   4.295   2.277  15.972  0.0457 -0.3436  0.0532
19385TIP3    H179570   4.271   2.350  15.915 -0.4119 -0.4940  0.0561
19385TIP3    H279571   4.365   2.312  16.027  0.3168 -0.1217 -0.4295
19386TIP3   OH279572   1.539   3.438   1.019 -0.2905  0.1445 -0.3562
19386TIP3    H179573   1.603   3.400   0.958 -1.7124 -2.3127 -0.3674
19386TIP3    H279574   1.514   3.365   1.076  1.0930  2.3949  3.3067
19387TIP3   OH279575   2.199   3.518   0.384  0.2288  0.4859  0.1692
19387TIP3    H179576   2.142   3.589   0.412 -1.9996 -1.0793 -0.2798
19387TIP3    H279577   2.250   3.554   0.312  0.4159  2.1491  1.1080
19388TIP3   OH279578   3.290   1.775   1.087 -0.3200 -0.4539 -0.2946
19388TIP3    H179579   3.266   1.744   0.999  0.3234  0.3201 -0.7516
19388TIP3    H279580   3.378   1.812   1.076  0.5867 -2.1185  1.0969
19389TIP3   OH279581   2.035   0.072   5.859 -0.6762  0.2368 -0.3763
19389TIP3    H179582   1.953   0.106   5.894 -1.4692  0.5111 -2.4384
19389TIP3    H279583   2.065   0.009   5.924 -2.8239 -0.2864  0.1373
19390TIP3   OH279584   1.007   4.627   4.317  0.0264 -0.2257 -0.2053
19390TIP3    H179585   0.930   4.607   4.263  1.1068 -0.8755 -1.5432
19390TIP3    H279586   1.059   4.547   4.316  0.5575  0.1001  0.9654
19391TIP3   OH279587   5.318   2.372  14.049  0.2116 -0.0075  0.1258
19391TIP3    H179588   5.335   2.362  14.142 -2.8616  2.5350  1.0554
19391TIP3    H279589   5.246   2.311  14.031  1.2069 -0.9568 -0.7902
19392TIP3   OH279590   3.784   6.592   1.349  0.2297  0.4210 -0.0797
19392TIP3    H179591   3.767   6.657   1.416  0.3011  0.6384 -0.2745
19392TIP3    H279592   3.702   6.585   1.301 -0.0855 -0.3436  0.5560
19393TIP3   OH279593   1.175   5.626   5.606 -0.0811 -0.0220  0.3453
19393TIP3    H179594   1.160   5.532   5.598  0.6732 -0.3150  2.1019
19393TIP3    H279595   1.270   5.636   5.598 -0.3194  0.8188 -1.7846
19394TIP3   OH279596   6.783   1.190  12.198  0.0008  0.4904 -0.0781
19394TIP3    H179597   6.836   1.214  12.122 -0.0969 -1.5594 -0.8079
19394TIP3    H279598   6.844   1.145  12.256 -0.5151 -0.2358 -0.0931
19395TIP3   OH279599   4.198   4.899   6.198  0.0792  0.1504 -0.9416
19395TIP3    H179600   4.127   4.858   6.248  0.9634 -0.5111 -0.2185
19395TIP3    H279601   4.214   4.839   6.126  0.3445 -0.0281 -0.7356
19396TIP3   OH279602   5.742   1.292   3.332  0.4328  0.2647 -0.0156
19396TIP3    H179603   5.756   1.202   3.361  0.4085 -0.5358 -2.3949
19396TIP3    H279604   5.737   1.342   3.413 -1.7090 -2.1741  1.4336
19397TIP3   OH279605   1.478   6.526  14.264 -0.4426  0.7745 -0.1997
19397TIP3    H179606   1.570   6.554  14.260  0.4966 -1.8981  1.2934
19397TIP3    H279607   1.434   6.594  14.314  0.6030  2.3383 -1.3537
19398TIP3   OH279608   2.305   2.834   1.168 -0.0717  0.1320  0.3132
19398TIP3    H179609   2.267   2.916   1.138  2.8319  1.7973  0.9605
19398TIP3    H279610   2.239   2.768   1.148 -1.6995  2.3494 -1.9244
19399TIP3   OH279611   1.797   5.230   5.616 -0.3121  0.0387 -0.1782
19399TIP3    H179612   1.809   5.325   5.621 -0.1353 -0.0867  2.4035
19399TIP3    H279613   1.875   5.198   5.571  1.6296  0.7488  2.5574
19400TIP3   OH279614   3.883   0.311  12.080 -1.5560  0.5002 -0.0390
19400TIP3    H179615   3.803   0.263  12.101 -1.6858  0.3715 -0.8128
19400TIP3    H279616   3.856   0.374  12.013 -1.3008  1.3751  0.6646
19401TIP3   OH279617   4.718   4.652  16.733  0.5923  1.2780 -0.0201
19401TIP3    H179618   4.806   4.674  16.702  1.0163  0.2860  0.4460
19401TIP3    H279619   4.664   4.652  16.654  0.8124  2.7982 -0.1815
19402TIP3   OH279620   6.725   5.242   1.753  0.2069  0.3516  0.0383
19402TIP3    H179621   6.801   5.300   1.758 -0.5930  1.4687 -0.4937
19402TIP3    H279622   6.714   5.224   1.660  0.6354 -0.9219  0.2253
19403TIP3   OH279623   1.973   5.516   0.926  0.5325 -0.0458 -0.8180
19403TIP3    H179624   1.960   5.489   1.017  0.0070 -0.3380 -0.9819
19403TIP3    H279625   1.971   5.435   0.876 -0.3846  0.2288 -1.2370
19404TIP3   OH279626   0.687   4.303   4.174 -0.7330 -0.5965 -0.2136
19404TIP3    H179627   0.594   4.289   4.189 -0.5785 -2.2170 -0.6727
19404TIP3    H279628   0.696   4.306   4.079 -0.1896 -1.5386 -0.2078
19405TIP3   OH279629   4.010   1.700   5.001 -0.2285 -0.3601  0.2005
19405TIP3    H179630   3.933   1.643   4.994  0.7066 -1.6368  0.0265
19405TIP3    H279631   3.999   1.765   4.932 -0.8708 -0.8624 -0.1739
19406TIP3   OH279632   3.745   1.378   3.228 -0.1053 -0.4030 -0.6774
19406TIP3    H179633   3.805   1.305   3.213 -1.5978 -1.7048 -0.4614
19406TIP3    H279634   3.710   1.399   3.142 -1.2069 -1.3072 -0.4622
19407TIP3   OH279635   4.996   0.041  13.659 -0.1032 -0.1651  0.1936
19407TIP3    H179636   5.057   0.060  13.589  0.2758  2.4002  1.1806
19407TIP3    H279637   4.980  -0.053  13.653  0.4974 -0.0971 -2.8338
19408TIP3   OH279638   5.971   3.439   0.190 -0.2838  0.1454  0.9740
19408TIP3    H179639   5.897   3.494   0.217  0.4760  1.8200 -0.2529
19408TIP3    H279640   5.964   3.436   0.095  0.9838 -0.0578  0.8886
19409TIP3   OH279641   3.670   2.625  13.666 -0.0286  0.6260 -0.2090
19409TIP3    H179642   3.700   2.609  13.577 -0.4595 -2.6109  0.1675
19409TIP3    H279643   3.731   2.576  13.721 -1.7032 -0.1316  1.0288
19410TIP3   OH279644   0.671   1.807   2.604  0.0574 -0.0626  0.3956
19410TIP3    H179645   0.694   1.899   2.595 -0.4407 -0.0140 -0.4191
19410TIP3    H279646   0.600   1.807   2.668 -0.1232  0.1462  0.1963
19411TIP3   OH279647   4.518   3.059  11.929  0.7771  0.6545  0.2372
19411TIP3    H179648   4.452   3.129  11.924 -0.6541 -0.7068 -0.0518
19411TIP3    H279649   4.567   3.067  11.848 -0.9767 -0.2324 -0.9332
19412TIP3   OH279650   0.507   4.411  13.990  0.0695 -0.2577  0.2193
19412TIP3    H179651   0.467   4.332  13.954 -1.0145  0.1494  0.4985
19412TIP3    H279652   0.432   4.469  14.008  0.7843  0.4596  0.8882
19413TIP3   OH279653   4.772   1.706  12.009  0.0121 -0.7929 -0.9429
19413TIP3    H179654   4.752   1.620  12.045 -1.7804  1.3452  3.4692
19413TIP3    H279655   4.860   1.726  12.042  0.1229 -0.5816 -1.3572
19414TIP3   OH279656   6.507   6.215  16.812  0.8380 -0.0578 -0.0245
19414TIP3    H179657   6.494   6.184  16.723  0.0942 -0.2139  0.1275
19414TIP3    H279658   6.541   6.140  16.860 -1.1559 -0.7258  0.3915
19415TIP3   OH279659   0.371   6.210   0.954  0.4241 -0.8653  0.3147
19415TIP3    H179660   0.392   6.190   1.045  0.2327 -0.6513  0.4051
19415TIP3    H279661   0.331   6.130   0.920 -2.3018  0.0153  1.2736
19416TIP3   OH279662   4.871   5.551  15.462  0.5377  0.1238  0.5369
19416TIP3    H179663   4.883   5.617  15.531  1.0003  0.3411  0.2482
19416TIP3    H279664   4.919   5.474  15.494  2.1509  0.7693 -0.3033
19417TIP3   OH279665   0.145   2.314  14.676  0.1246  0.2221 -0.3274
19417TIP3    H179666   0.192   2.367  14.612 -0.3971 -0.5121 -1.3397
19417TIP3    H279667   0.077   2.372  14.709 -1.7114 -0.3555 -2.8853
19418TIP3   OH279668   0.507   4.998  16.151 -0.4042 -0.1012 -0.3588
19418TIP3    H179669   0.582   4.941  16.165  0.3573  0.6954 -1.1470
19418TIP3    H279670   0.523   5.074  16.205 -1.1898 -0.4038  0.3198
19419TIP3   OH279671   1.821   2.000  10.299  0.7105 -0.5163 -0.0887
19419TIP3    H179672   1.914   2.006  10.277  0.9573 -0.8520  0.8042
19419TIP3    H279673   1.817   1.928  10.363 -0.1150 -0.2785  0.1321
19420TIP3   OH279674   3.683   3.411  11.264  0.1137  0.4412 -0.4843
19420TIP3    H179675   3.601   3.458  11.280 -1.0445 -1.3932 -0.9026
19420TIP3    H279676   3.694   3.414  11.169 -1.0753 -1.8842 -0.7353
19421TIP3   OH279677   5.874   3.550  12.990 -0.3114 -0.2925 -0.2460
19421TIP3    H179678   5.949   3.490  12.996 -0.3795 -0.2872  0.6848
19421TIP3    H279679   5.864   3.585  13.079 -0.9727  0.2509 -0.5337
19422TIP3   OH279680   2.263   1.662   0.897  0.2606  0.0645  0.4703
19422TIP3    H179681   2.179   1.692   0.933 -0.2313 -2.5362  1.5674
19422TIP3    H279682   2.327   1.725   0.931 -0.9738  0.9435  1.2263
19423TIP3   OH279683   4.844   1.754  11.237  1.0686  0.3404 -0.4028
19423TIP3    H179684   4.907   1.806  11.187  0.2004  0.4566 -1.3910
19423TIP3    H279685   4.855   1.665  11.203  2.4311 -0.1212  1.1653
19424TIP3   OH279686   2.324   0.039  15.301  0.1374  0.1627  0.2236
19424TIP3    H179687   2.407   0.017  15.260  0.7988  1.8918  0.5918
19424TIP3    H279688   2.261  -0.021  15.262  1.3626 -0.4515 -0.8366
19425TIP3   OH279689   0.653   4.225   4.524  0.5666  0.2189 -0.4199
19425TIP3    H179690   0.630   4.142   4.482 -0.4790 -0.9407  2.2959
19425TIP3    H279691   0.745   4.239   4.501  0.2344 -0.7334 -2.4118
19426TIP3   OH279692   5.239   1.125   3.426 -0.0798  0.4847 -0.0063
19426TIP3    H179693   5.214   1.046   3.377  0.1754  0.4735 -0.1150
19426TIP3    H279694   5.332   1.115   3.444 -0.1065  0.6344  0.2164
19427TIP3   OH279695   0.888   1.112  13.036  0.0252  0.5441  0.4444
19427TIP3    H179696   0.804   1.067  13.026  0.4605  0.0289 -1.0354
19427TIP3    H279697   0.948   1.065  12.978  1.6628  0.1315  2.4046
19428TIP3   OH279698   5.556   0.215   4.627  0.2569 -0.2256 -0.1403
19428TIP3    H179699   5.545   0.216   4.531 -1.1301 -0.4698  0.0033
19428TIP3    H279700   5.650   0.202   4.640  0.9860  3.1324 -1.4730
19429TIP3   OH279701   6.056   5.462   0.306 -0.0668 -0.0702  0.3247
19429TIP3    H179702   5.974   5.509   0.320  0.0695  0.5629 -0.9536
19429TIP3    H279703   6.039   5.404   0.232  0.1084 -1.2481  1.1864
19430TIP3   OH279704   1.630   0.951   6.703 -0.1803 -0.2031  0.3500
19430TIP3    H179705   1.654   0.867   6.662  0.8276  0.4841 -0.5034
19430TIP3    H279706   1.574   0.994   6.638  0.7646  0.5401  0.0044
19431TIP3   OH279707   4.303   0.534  16.506  0.0155  0.4613  0.3023
19431TIP3    H179708   4.222   0.550  16.458 -0.7631  1.5275  1.9282
19431TIP3    H279709   4.333   0.449  16.475 -0.1973  1.3398 -2.4181
19432TIP3   OH279710   6.437   0.393  16.301  0.0447 -0.0548  0.0077
19432TIP3    H179711   6.432   0.308  16.344 -0.9012 -0.3434 -0.6707
19432TIP3    H279712   6.489   0.378  16.222 -1.8957 -0.4556 -1.1999
19433TIP3   OH279713   3.253   4.269  14.240  0.7354  0.2416 -0.7488
19433TIP3    H179714   3.186   4.212  14.277  1.1563  0.6055  0.6215
19433TIP3    H279715   3.221   4.291  14.153 -0.2747 -0.6591 -0.6155
19434TIP3   OH279716   2.513   4.070  11.219  0.3215  0.2016 -0.3880
19434TIP3    H179717   2.589   4.014  11.207 -1.1487 -2.4397  2.1426
19434TIP3    H279718   2.458   4.052  11.143  1.7967  1.5296 -1.8127
19435TIP3   OH279719   2.683   5.542  11.463  0.1523  0.2653 -0.4317
19435TIP3    H179720   2.756   5.480  11.464 -1.4523 -1.6971  1.7019
19435TIP3    H279721   2.709   5.610  11.526 -0.4051 -1.1527  1.3753
19436TIP3   OH279722   5.716   0.704   3.343 -0.3039  0.0805  0.4184
19436TIP3    H179723   5.728   0.611   3.361 -0.6300  0.0300  0.3878
19436TIP3    H279724   5.670   0.737   3.421  3.0801  0.9865  2.1164
19437TIP3   OH279725   3.713   3.489   3.827  0.0880 -0.2319 -0.3993
19437TIP3    H179726   3.763   3.408   3.826 -1.4123 -1.2077  0.6470
19437TIP3    H279727   3.625   3.463   3.801 -0.0087  1.3630 -1.7609
19438TIP3   OH279728   0.145   0.311   5.975 -0.5176  0.3360  0.4670
19438TIP3    H179729   0.201   0.373   6.020 -0.8595  0.6745  0.4225
19438TIP3    H279730   0.091   0.364   5.917  0.2522 -0.1232 -0.7067
19439TIP3   OH279731   5.024   3.198   3.627 -0.0414 -0.4857  0.0792
19439TIP3    H179732   5.051   3.228   3.540 -0.3674 -0.4257 -0.0022
19439TIP3    H279733   5.008   3.104   3.616  0.4625 -0.5871  0.2080
19440TIP3   OH279734   1.553   0.430  14.419  0.7185 -0.0007 -0.0167
19440TIP3    H179735   1.513   0.390  14.342  0.1188  0.3122  0.1326
19440TIP3    H279736   1.485   0.428  14.486  2.1844 -3.1151  1.4954
19441TIP3   OH279737   4.543   1.261  11.437 -0.2471 -0.2441 -0.4932
19441TIP3    H179738   4.468   1.313  11.466 -0.1080 -0.3485  0.0733
19441TIP3    H279739   4.578   1.308  11.362 -0.5794  0.0769 -0.4463
19442TIP3   OH279740   5.357   3.881  12.283 -0.3383  0.1477 -0.0277
19442TIP3    H179741   5.372   3.935  12.360  1.7520 -0.9887  0.4116
19442TIP3    H279742   5.365   3.941  12.209 -1.0569  0.9951  0.5721
19443TIP3   OH279743   3.658   1.935  15.744 -0.1379  0.3771  0.3313
19443TIP3    H179744   3.660   2.031  15.733  0.1137  0.3755  0.3466
19443TIP3    H279745   3.656   1.922  15.838 -1.6422  0.3821  0.3032
19444TIP3   OH279746   5.000   4.072   1.504  0.6206  0.1269 -0.0004
19444TIP3    H179747   5.021   4.093   1.413 -0.3045 -1.2079 -0.5427
19444TIP3    H279748   4.965   4.154   1.540 -1.7167 -0.0715 -1.6956
19445TIP3   OH279749   5.162   5.101   6.111  0.0847  0.4064  0.1201
19445TIP3    H179750   5.227   5.036   6.137 -0.4367  0.0921  0.6525
19445TIP3    H279751   5.154   5.159   6.187 -0.3886  0.3337  0.1293
19446TIP3   OH279752   1.150   4.993  12.167  0.0446 -0.4871  0.1015
19446TIP3    H179753   1.144   4.971  12.260 -0.2722 -0.1220  0.1678
19446TIP3    H279754   1.242   4.979  12.145  0.4543  0.9100  0.8443
19447TIP3   OH279755   0.596   4.668   4.969 -0.4913 -0.2115 -0.7273
19447TIP3    H179756   0.681   4.691   4.930  0.9420 -2.4856  0.8943
19447TIP3    H279757   0.559   4.752   4.996  2.7328  0.6615  1.3906
19448TIP3   OH279758   2.709   5.430  16.291  0.5436  0.1123  0.2190
19448TIP3    H179759   2.785   5.403  16.240  0.2313  1.0505 -0.7761
19448TIP3    H279760   2.725   5.522  16.311 -0.2186  0.2490  0.2185
19449TIP3   OH279761   2.807   1.374   5.167  0.8366 -0.0122 -0.7890
19449TIP3    H179762   2.758   1.430   5.228 -0.1372 -2.2185  0.5092
19449TIP3    H279763   2.892   1.361   5.210 -0.2852 -2.5922  0.8147
19450TIP3   OH279764   1.044   3.483  16.561  0.1492  0.1807 -0.3646
19450TIP3    H179765   1.102   3.414  16.592  2.6373  1.5303 -1.8539
19450TIP3    H279766   0.957   3.459  16.595  1.1861 -2.9507  0.1985
19451TIP3   OH279767   6.365   3.652   5.267 -0.1511 -0.0992 -0.3650
19451TIP3    H179768   6.375   3.644   5.173  0.8096  1.8723 -0.4487
19451TIP3    H279769   6.303   3.725   5.279  1.3128  1.0311  0.5346
19452TIP3   OH279770   4.297   4.537  16.574 -0.2489 -0.3858 -0.4043
19452TIP3    H179771   4.258   4.479  16.508  0.7846 -0.9598 -0.5242
19452TIP3    H279772   4.388   4.507  16.581  0.1327  0.8500 -0.0372
19453TIP3   OH279773   1.490   3.262  11.293 -0.3699  0.0258 -0.0748
19453TIP3    H179774   1.506   3.343  11.245  1.2137 -0.1969  0.0284
19453TIP3    H279775   1.405   3.231  11.263  0.1159  0.4563 -1.9422
19454TIP3   OH279776   5.809   3.595  14.148  0.0932 -0.4558  0.4369
19454TIP3    H179777   5.752   3.591  14.225 -0.7826 -1.5448 -0.2643
19454TIP3    H279778   5.879   3.655  14.174 -0.1497 -0.8661  2.1089
19455TIP3   OH279779   0.032   4.754  14.028  0.0200 -0.5368 -0.3988
19455TIP3    H179780  -0.057   4.786  14.010 -0.4048 -0.6018  1.3975
19455TIP3    H279781   0.052   4.695  13.956 -0.0805  2.0096 -2.5681
19456TIP3   OH279782   5.884   0.883  12.519 -0.0339 -0.0155  0.1151
19456TIP3    H179783   5.871   0.976  12.503  0.1943 -0.0234 -0.1076
19456TIP3    H279784   5.848   0.869  12.607 -0.5094  0.1858 -0.0449
19457TIP3   OH279785   2.967   0.451  15.020  0.0943 -0.4101  0.5734
19457TIP3    H179786   3.012   0.514  15.077 -1.0994 -0.5666  1.7070
19457TIP3    H279787   2.897   0.503  14.979  0.0209 -0.6507  0.3952
19458TIP3   OH279788   0.233   1.413   0.388 -0.4276 -0.3553  0.0244
19458TIP3    H179789   0.144   1.448   0.400 -0.6892 -0.9193 -0.2341
19458TIP3    H279790   0.287   1.490   0.370 -0.6365  0.1318  1.4294
19459TIP3   OH279791   1.929   2.577   3.938 -0.1752  0.6585 -0.5407
19459TIP3    H179792   1.996   2.512   3.916 -1.1500 -0.8229  0.7580
19459TIP3    H279793   1.978   2.650   3.976  1.0431  1.1902 -3.0144
19460TIP3   OH279794   5.793   3.220  13.533 -0.2186 -0.2263 -0.6801
19460TIP3    H179795   5.792   3.130  13.565  3.5080 -0.2733 -0.4615
19460TIP3    H279796   5.799   3.212  13.438 -0.8913 -0.1810 -0.7298
19461TIP3   OH279797   6.444   5.301  13.570  0.0377  0.4972 -0.3350
19461TIP3    H179798   6.407   5.279  13.484  0.5137 -0.5045 -0.2886
19461TIP3    H279799   6.532   5.262  13.568  0.5663  1.6590  0.0857
19462TIP3   OH279800   3.151   2.898   0.310  0.2702  0.3340  0.1087
19462TIP3    H179801   3.057   2.878   0.310  0.4821 -0.6526  0.1652
19462TIP3    H279802   3.156   2.987   0.346 -0.5321 -0.0865  1.2801
19463TIP3   OH279803   1.693   5.105  11.571  0.6619 -0.3881  0.3994
19463TIP3    H179804   1.680   5.170  11.502  2.2888  0.1577  0.5965
19463TIP3    H279805   1.641   5.137  11.645  0.6784  0.1805  0.1654
19464TIP3   OH279806   6.068   3.681  14.565 -0.0200 -0.3807 -0.5411
19464TIP3    H179807   5.978   3.714  14.568  0.1592  0.0029  1.2285
19464TIP3    H279808   6.087   3.656  14.655  2.4918  1.8130 -0.4059
19465TIP3   OH279809   5.561   6.643   2.561  0.8553  0.2536  0.3986
19465TIP3    H179810   5.651   6.615   2.579  0.7584 -0.1536  0.2718
19465TIP3    H279811   5.542   6.607   2.474  0.8033  0.9132  0.1367
19466TIP3   OH279812   0.004   2.609   6.466  0.4057 -0.0643  0.9582
19466TIP3    H179813  -0.024   2.545   6.532  0.1589 -1.0197 -0.0596
19466TIP3    H279814  -0.075   2.632   6.418  0.8807 -0.7816 -0.2036
19467TIP3   OH279815   4.836   6.041   4.966  0.1137  0.1670 -0.3284
19467TIP3    H179816   4.751   6.030   5.009  0.3008 -1.0079 -0.2484
19467TIP3    H279817   4.815   6.039   4.872  0.0268  0.1466 -0.3091
19468TIP3   OH279818   2.795   0.265   0.484 -0.4912  0.2344 -0.1227
19468TIP3    H179819   2.820   0.224   0.401  0.7312 -0.6918  0.6839
19468TIP3    H279820   2.780   0.191   0.543  1.2898  0.9104  1.2229
19469TIP3   OH279821   3.180   0.727   4.172 -0.2831  0.1083 -0.2099
19469TIP3    H179822   3.087   0.705   4.178 -0.4987  1.2180  0.6141
19469TIP3    H279823   3.213   0.674   4.099 -1.2676 -1.3164  0.3573
19470TIP3   OH279824   6.060   4.845  14.728  0.2814  0.6396 -0.2806
19470TIP3    H179825   5.978   4.799  14.748  1.3744 -0.9370  0.6231
19470TIP3    H279826   6.105   4.852  14.812  0.7245  2.2395 -0.6300
19471TIP3   OH279827   5.872   6.093   3.093 -0.1709 -0.1934 -0.4289
19471TIP3    H179828   5.934   6.154   3.133  1.0808  0.4050 -3.1818
19471TIP3    H279829   5.865   6.021   3.157 -0.7705  2.2196  2.3161
19472TIP3   OH279830   6.161   6.292  11.003  0.4688 -0.1508  0.0475
19472TIP3    H179831   6.250   6.275  10.974 -0.4868 -2.1209 -1.8950
19472TIP3    H279832   6.120   6.205  11.009 -1.5292  0.7565  0.1288
19473TIP3   OH279833   5.122   2.458  16.844  0.1099  0.2960 -0.6805
19473TIP3    H179834   5.177   2.410  16.782  0.6173  1.2877 -1.0127
19473TIP3    H279835   5.182   2.519  16.887 -0.7133  1.3297 -0.9825
19474TIP3   OH279836   0.821   0.220  11.408  0.0090  0.1015  0.0704
19474TIP3    H179837   0.810   0.137  11.454 -0.1491 -0.9029 -1.7241
19474TIP3    H279838   0.851   0.281  11.475  1.1189 -1.6536  1.2275
19475TIP3   OH279839   0.966   0.987   6.512  0.0901  0.4813 -0.0094
19475TIP3    H179840   0.965   1.063   6.571  1.0982  0.3905  0.1344
19475TIP3    H279841   0.894   1.003   6.451  0.0043  1.3280  0.3059
19476TIP3   OH279842   3.973   0.420  12.744  0.0245 -0.1742  0.1904
19476TIP3    H179843   3.990   0.358  12.674 -1.6643 -1.6283  1.0284
19476TIP3    H279844   3.880   0.441  12.735 -0.0579  0.1065  1.6079
19477TIP3   OH279845   1.099   5.021  16.115 -0.1508  0.3017 -0.3562
19477TIP3    H179846   1.083   4.993  16.024  1.0959 -1.5115 -0.0555
19477TIP3    H279847   1.017   5.002  16.161  0.3324 -2.0404 -0.3826
19478TIP3   OH279848   4.682   6.728   0.257  0.2054  0.5484 -0.8456
19478TIP3    H179849   4.677   6.691   0.345  1.3306  0.4465 -0.8232
19478TIP3    H279850   4.738   6.668   0.208 -0.7365  0.3889 -1.7538
19479TIP3   OH279851   2.379   6.061   3.969  0.1799 -0.7541 -0.2864
19479TIP3    H179852   2.325   6.030   3.896 -0.3742  1.2219 -0.7452
19479TIP3    H279853   2.322   6.121   4.017  0.9170 -1.1668  1.1382
19480TIP3   OH279854   6.691   0.616  16.760  0.0607  0.3703  0.2149
19480TIP3    H179855   6.737   0.548  16.809  0.7996  1.0544  0.4685
19480TIP3    H279856   6.678   0.578  16.673 -0.8406 -0.6662  0.7768
19481TIP3   OH279857   3.592   3.630  12.271  0.6167 -0.1695  0.0715
19481TIP3    H179858   3.628   3.541  12.276 -0.4105 -0.5925 -0.0367
19481TIP3    H279859   3.560   3.638  12.181 -0.1988 -0.0395  0.3740
19482TIP3   OH279860   0.367   6.398  11.762  0.1242 -0.1435  0.6531
19482TIP3    H179861   0.347   6.330  11.697  0.0887  0.6445 -0.1761
19482TIP3    H279862   0.442   6.364  11.810 -0.4111 -1.1388  0.8006
19483TIP3   OH279863   5.566   3.466   2.630  0.5407 -0.0581 -0.3776
19483TIP3    H179864   5.597   3.471   2.721 -0.4658 -1.0634  0.0319
19483TIP3    H279865   5.582   3.554   2.595  1.7642  0.0871  0.4945
19484TIP3   OH279866   6.064   5.537   5.091  0.0354 -0.1207  0.1226
19484TIP3    H179867   6.057   5.629   5.114 -0.2482  0.2274 -1.2844
19484TIP3    H279868   6.092   5.538   4.999  0.8006 -1.4327  0.3355
19485TIP3   OH279869   0.921   1.425   3.381 -0.3964 -0.6261  0.3240
19485TIP3    H179870   0.942   1.518   3.369 -0.9883 -0.3064  1.7328
19485TIP3    H279871   1.003   1.380   3.363 -0.3663  0.0658 -1.4797
19486TIP3   OH279872   2.246   4.928  10.285  0.1329  0.2375  0.2426
19486TIP3    H179873   2.334   4.963  10.297 -0.9283  2.5798  1.4011
19486TIP3    H279874   2.200   4.996  10.235 -0.8890 -1.1654 -0.7484
19487TIP3   OH279875   6.380   1.961   2.193  0.4460 -0.4755  0.4960
19487TIP3    H179876   6.434   1.916   2.258  0.7000 -0.7627  0.0837
19487TIP3    H279877   6.364   2.048   2.231  1.3280 -0.3361  0.5437
19488TIP3   OH279878   1.800   3.478   5.594 -0.1333 -0.4794  0.2752
19488TIP3    H179879   1.823   3.570   5.581 -1.8040 -0.0995 -0.1847
19488TIP3    H279880   1.798   3.467   5.689  1.9861 -0.5706  0.3317
19489TIP3   OH279881   3.189   2.070   6.418 -0.0992 -0.6198  0.3249
19489TIP3    H179882   3.262   2.031   6.466  0.1541 -0.2244  0.2601
19489TIP3    H279883   3.186   2.023   6.335  0.0013 -0.7214  0.3794
19490TIP3   OH279884   6.640   5.677  15.446 -0.1354 -0.8621  0.7112
19490TIP3    H179885   6.659   5.764  15.410  0.5685 -0.9065  0.9611
19490TIP3    H279886   6.565   5.645  15.395  0.0559 -0.4014  0.1405
19491TIP3   OH279887   3.310   4.181  12.931  0.2758  0.4147  0.3168
19491TIP3    H179888   3.327   4.275  12.937  0.2145  0.5374 -1.2579
19491TIP3    H279889   3.215   4.174  12.930  0.1999  0.0835  3.7635
19492TIP3   OH279890   6.737   1.469   1.497 -0.4937 -0.4804  0.2544
19492TIP3    H179891   6.719   1.562   1.486 -0.8763 -0.7356 -1.3284
19492TIP3    H279892   6.704   1.448   1.584 -0.0907  0.9359  0.7509
19493TIP3   OH279893   5.050   4.182   4.628  0.0652  0.6856  0.0183
19493TIP3    H179894   4.974   4.125   4.643  1.1661 -0.2410  2.2020
19493TIP3    H279895   5.080   4.207   4.715  1.7600  1.7716 -0.8381
19494TIP3   OH279896   0.792   2.271  16.588  0.2936 -0.1690  0.0469
19494TIP3    H179897   0.726   2.205  16.609  1.2447 -1.0935  0.1845
19494TIP3    H279898   0.804   2.319  16.670 -2.4718  2.0883 -0.7836
19495TIP3   OH279899   2.451   1.526  12.367 -0.0368  0.0117  0.8441
19495TIP3    H179900   2.367   1.488  12.392  0.5298 -2.6718 -1.0549
19495TIP3    H279901   2.516   1.479  12.421  0.4784 -0.1187  0.1227
19496TIP3   OH279902   4.356   4.638  13.389  1.1830  0.0995 -0.0852
19496TIP3    H179903   4.261   4.648  13.393  1.3001  0.4198  2.5566
19496TIP3    H279904   4.372   4.594  13.305 -1.1306  1.6274 -1.3749
19497TIP3   OH279905   5.123   0.850   0.494  0.2740 -0.0179  0.3031
19497TIP3    H179906   5.213   0.853   0.525  0.6525  0.7383 -0.8415
19497TIP3    H279907   5.079   0.922   0.539  1.0302  1.6177 -1.5065
19498TIP3   OH279908   6.088   0.410  16.013  0.0843 -0.0847 -0.0373
19498TIP3    H179909   6.132   0.455  16.085  0.4603  0.0090 -0.3201
19498TIP3    H279910   6.072   0.479  15.948  2.1023 -0.6292 -1.1642
19499TIP3   OH279911   5.024   0.348  17.029  0.2235 -0.5456  0.1695
19499TIP3    H179912   4.960   0.352  16.957  2.3201 -1.6448 -1.8137
19499TIP3    H279913   5.046   0.440  17.046 -1.6363 -0.1698  0.6657
19500TIP3   OH279914   1.311   4.756   0.913  0.1248 -0.3761  0.6492
19500TIP3    H179915   1.245   4.691   0.886  0.7707 -1.5173  1.7985
19500TIP3    H279916   1.276   4.839   0.882  0.1773 -1.4641 -2.5458
19501TIP3   OH279917   2.674   5.961  15.048 -0.1501 -0.0113 -0.3788
19501TIP3    H179918   2.596   5.913  15.075  0.2267 -0.4554 -0.0575
19501TIP3    H279919   2.707   5.914  14.971 -1.0662  1.0919 -1.4595
19502TIP3   OH279920   1.627   1.093   2.745  0.0490  0.4081 -0.0280
19502TIP3    H179921   1.618   1.087   2.840  1.8908  0.9988  0.2035
19502TIP3    H279922   1.720   1.110   2.730 -0.1020 -0.2942 -1.9721
19503TIP3   OH279923   5.396   0.633  16.260 -0.0237 -0.5025  0.3943
19503TIP3    H179924   5.352   0.548  16.256  0.3955 -0.6302 -1.6939
19503TIP3    H279925   5.486   0.614  16.236 -0.0301  0.6198 -0.5126
19504TIP3   OH279926   4.090   1.560  11.443  0.4109  0.0456 -0.1594
19504TIP3    H179927   4.051   1.585  11.360  0.6423 -0.2256 -0.3495
19504TIP3    H279928   4.184   1.566  11.429  0.4506  0.1293  0.1240
19505TIP3   OH279929   4.794   5.764   4.474  0.1391 -0.1739 -0.2660
19505TIP3    H179930   4.809   5.793   4.564 -0.9260  2.6010 -0.9050
19505TIP3    H279931   4.881   5.745   4.440  0.4139 -3.0571  1.8606
19506TIP3   OH279932   3.088   0.014  17.040  0.4918  0.7228 -0.0602
19506TIP3    H179933   3.028   0.075  16.997  0.5344 -0.5053 -1.9182
19506TIP3    H279934   3.070  -0.071  16.999  1.4742 -0.2248  1.4203
19507TIP3   OH279935   1.542   3.071  14.109 -0.1728  0.0304  0.1770
19507TIP3    H179936   1.611   3.129  14.077  1.4973 -1.8770  0.1973
19507TIP3    H279937   1.548   3.078  14.205 -1.7824  1.8472  0.1773
19508TIP3   OH279938   5.667   6.701  13.926 -0.3742  0.2880  0.0707
19508TIP3    H179939   5.711   6.756  13.991  1.2198  1.0606 -1.6080
19508TIP3    H279940   5.577   6.696  13.957  0.0726  1.6036  1.7141
19509TIP3   OH279941   5.356   2.434  13.476  0.1809  0.2015 -0.0692
19509TIP3    H179942   5.318   2.382  13.406 -1.0590  1.9308 -0.7440
19509TIP3    H279943   5.336   2.385  13.556 -1.6436  0.0121 -0.6149
19510TIP3   OH279944   5.481   4.153   0.572 -0.1762  0.8795 -0.0450
19510TIP3    H179945   5.545   4.082   0.567 -0.5886  0.3601  1.8704
19510TIP3    H279946   5.501   4.199   0.653 -0.8259  2.0794 -0.5479
19511TIP3   OH279947   0.104   0.619  13.462 -0.0595 -0.6705 -0.3213
19511TIP3    H179948   0.103   0.708  13.425 -0.9071 -0.6308 -0.2090
19511TIP3    H279949   0.016   0.607  13.498  0.4645 -1.0597  0.8499
19512TIP3   OH279950   1.139   6.263  13.265  0.1298  0.6799 -0.2358
19512TIP3    H179951   1.209   6.215  13.221  0.1371  0.6225 -0.1612
19512TIP3    H279952   1.078   6.287  13.195  0.3291  0.9115 -0.3294
19513TIP3   OH279953   5.023   4.036  15.496 -0.0201 -0.4600 -0.4311
19513TIP3    H179954   5.005   4.075  15.411  0.1500  1.6878  0.5015
19513TIP3    H279955   4.999   4.103  15.560  0.9691 -1.5914  1.1880
19514TIP3   OH279956   3.894   5.029  14.740 -0.0909  0.0447  0.8249
19514TIP3    H179957   3.821   4.967  14.738  0.6036 -0.7932  1.2813
19514TIP3    H279958   3.891   5.071  14.654 -1.4906  0.4695  1.0627
19515TIP3   OH279959   4.765   4.296   3.823  0.1642  0.0634 -0.3139
19515TIP3    H179960   4.772   4.242   3.901  1.6728  0.8110  0.0902
19515TIP3    H279961   4.785   4.237   3.750  1.1826 -0.0721  0.0730
19516TIP3   OH279962   2.618   4.092   0.273 -0.3048 -0.2407  0.6266
19516TIP3    H179963   2.627   4.050   0.358 -0.6660  0.0729  0.8204
19516TIP3    H279964   2.690   4.056   0.221 -0.3081 -0.7136  0.9442
19517TIP3   OH279965   5.290   4.932   0.676  0.2008 -0.2573 -0.0933
19517TIP3    H179966   5.235   4.855   0.684  0.3370 -0.4741 -1.1767
19517TIP3    H279967   5.379   4.897   0.667  0.4936  0.0799  1.3094
19518TIP3   OH279968   5.767   3.489  11.491 -0.1070  0.3751 -0.2861
19518TIP3    H179969   5.682   3.466  11.527 -0.0701 -0.2672 -0.6068
19518TIP3    H279970   5.830   3.445  11.547 -0.0020  0.4779 -0.3231
19519TIP3   OH279971   2.053   4.231  13.927 -0.2614  0.4528  0.2330
19519TIP3    H179972   2.110   4.302  13.897  0.8205 -0.7394 -0.5999
19519TIP3    H279973   1.974   4.239  13.873 -0.4253  1.4158  0.6029
19520TIP3   OH279974   2.675   0.776  13.532 -0.5300  0.0883 -0.3094
19520TIP3    H179975   2.632   0.705  13.580  1.2568  0.3047  1.6804
19520TIP3    H279976   2.728   0.731  13.466  2.5422 -0.6560  2.5314
19521TIP3   OH279977   0.906   3.747  11.609  0.3749 -0.6005  0.0980
19521TIP3    H179978   0.980   3.805  11.628 -1.0437  1.5100 -0.7217
19521TIP3    H279979   0.912   3.730  11.515  0.7569 -1.7627  0.3283
19522TIP3   OH279980   0.529   3.103  11.096  0.2045 -0.0030 -0.3130
19522TIP3    H179981   0.464   3.035  11.109  0.6069 -0.3954 -0.3226
19522TIP3    H279982   0.613   3.059  11.111  0.4399  0.6039  0.1519
19523TIP3   OH279983   4.185   1.843  13.266 -0.1165 -0.1949  0.3847
19523TIP3    H179984   4.219   1.884  13.346  1.7931 -0.0539 -0.4658
19523TIP3    H279985   4.090   1.853  13.272  0.1336  1.6464  1.6451
19524TIP3   OH279986   0.400   6.289   1.906 -0.5033  0.0787  0.1598
19524TIP3    H179987   0.463   6.357   1.881 -0.7028  0.0338 -0.4862
19524TIP3    H279988   0.321   6.337   1.931 -1.1684  0.0495 -1.7934
19525TIP3   OH279989   6.605   3.162   0.316  0.0148  0.1236 -0.4810
19525TIP3    H179990   6.670   3.094   0.300  0.3815  0.5934 -1.0216
19525TIP3    H279991   6.521   3.116   0.311  0.3341 -0.6678  1.2387
19526TIP3   OH279992   5.484   3.931   6.158 -1.0151  0.2210  0.0859
19526TIP3    H179993   5.451   3.996   6.219 -1.0485 -0.6115  0.9727
19526TIP3    H279994   5.563   3.897   6.200 -0.7445  0.0173 -0.5821
19527TIP3   OH279995   0.085   3.053  15.038  0.3075 -0.0278 -0.2867
19527TIP3    H179996   0.080   3.030  14.945  2.2105 -1.5598 -0.0347
19527TIP3    H279997   0.070   3.148  15.039 -1.3375 -0.2356 -1.9765
19528TIP3   OH279998   2.395   0.856  14.040 -0.3471 -0.4027 -0.0513
19528TIP3    H179999   2.329   0.915  14.077 -1.5577 -0.9783 -1.2507
19528TIP3    H280000   2.436   0.816  14.117 -1.0598  0.3190  0.7279
19529TIP3   OH280001   2.208   4.955   3.491 -0.5849 -0.1755  0.1569
19529TIP3    H180002   2.165   4.949   3.405 -0.5381 -1.7546  0.2415
19529TIP3    H280003   2.145   4.917   3.552 -0.8088  1.3586  0.9193
19530TIP3   OH280004   2.229   6.431  12.232 -0.4304 -0.4855  0.3776
19530TIP3    H180005   2.203   6.357  12.286 -0.5140 -0.1125  0.8567
19530TIP3    H280006   2.203   6.508  12.284  0.6689 -0.1184  0.3859
19531TIP3   OH280007   4.374   2.389  15.156  0.0988  0.0702 -0.4199
19531TIP3    H180008   4.279   2.402  15.159 -0.2321 -2.4599  0.8496
19531TIP3    H280009   4.392   2.365  15.065 -0.5941 -0.2846 -0.4668
19532TIP3   OH280010   0.662   5.019  13.480  0.0620  0.7565 -0.2736
19532TIP3    H180011   0.669   4.924  13.495  0.1081  0.9828  1.2983
19532TIP3    H280012   0.568   5.035  13.473  0.0822  0.5170 -1.0795
19533TIP3   OH280013   1.180   0.002  11.986  0.4071 -0.4519 -0.5227
19533TIP3    H180014   1.180   0.034  11.896  3.1598 -0.6377 -0.6506
19533TIP3    H280015   1.198   0.079  12.039 -0.1555 -0.5275 -0.2244
19534TIP3   OH280016   3.070   3.210  14.431  0.3722 -0.5733  0.0672
19534TIP3    H180017   3.114   3.255  14.503 -2.0425  1.6344  0.2529
19534TIP3    H280018   2.990   3.175  14.470  0.2785 -1.5416 -0.9842
19535TIP3   OH280019   4.064   2.227  12.293 -0.2234 -0.3494  0.1006
19535TIP3    H180020   4.074   2.134  12.315 -0.2452 -0.5198 -0.6169
19535TIP3    H280021   3.970   2.239  12.280 -0.2097 -0.2425  0.0940
19536TIP3   OH280022   1.698   1.713  13.880 -0.5508  0.2073  0.4456
19536TIP3    H180023   1.671   1.698  13.790  2.3975  0.2661 -0.4820
19536TIP3    H280024   1.706   1.625  13.918 -1.7111  0.1818  0.6741
19537TIP3   OH280025   0.215   4.603  17.099  0.0001 -0.0135  0.4108
19537TIP3    H180026   0.142   4.635  17.046 -1.2148  0.0043  2.0299
19537TIP3    H280027   0.280   4.571  17.036 -0.8436  1.1977 -1.0880
19538TIP3   OH280028   5.600   5.333   3.901  0.5985  0.0172 -0.4050
19538TIP3    H180029   5.667   5.369   3.841  1.0280 -0.1919 -0.0528
19538TIP3    H280030   5.520   5.333   3.849  0.5597  1.6411 -0.3637
19539TIP3   OH280031   3.205   1.617   0.312 -0.6199 -0.0414 -0.3466
19539TIP3    H180032   3.121   1.607   0.357  0.1470 -0.5026  1.0273
19539TIP3    H280033   3.234   1.528   0.295  0.2616  0.0871  0.4710
19540TIP3   OH280034   1.875   3.505   0.973  0.0428 -0.4115  0.2502
19540TIP3    H180035   1.939   3.553   0.919  0.4683 -0.5123  0.6600
19540TIP3    H280036   1.857   3.564   1.046 -1.0233 -0.0043 -0.3228
19541TIP3   OH280037   5.530   3.426  11.331  0.2894 -0.1682  0.0724
19541TIP3    H180038   5.530   3.337  11.366 -1.0942  0.3106  1.3318
19541TIP3    H280039   5.620   3.440  11.301  1.2045 -1.0236  2.3505
19542TIP3   OH280040   1.703   2.402   1.466 -0.5299 -0.0027 -0.4967
19542TIP3    H180041   1.744   2.475   1.513 -0.9011 -1.7541  2.6878
19542TIP3    H280042   1.775   2.344   1.443 -0.4779  0.2960 -1.1011
19543TIP3   OH280043   1.243   0.937  14.068  0.0911 -0.0722 -0.2082
19543TIP3    H180044   1.207   0.858  14.107  0.1946  0.8388  1.7906
19543TIP3    H280045   1.171   0.973  14.016 -0.8132 -0.0759  1.0139
19544TIP3   OH280046   2.244   2.666  10.849  0.5703  0.0003 -0.4012
19544TIP3    H180047   2.234   2.588  10.903  0.0631 -1.2581 -2.2779
19544TIP3    H280048   2.163   2.714  10.862  0.2303 -0.5557 -0.4550
19545TIP3   OH280049   0.352   3.957  16.938 -0.1806 -0.2741  0.1594
19545TIP3    H180050   0.327   4.016  16.867 -1.6437  0.0082  0.8986
19545TIP3    H280051   0.359   4.013  17.015 -0.3736 -0.8653  0.6123
19546TIP3   OH280052   0.987   3.233  15.491  1.1283 -0.3491  0.5556
19546TIP3    H180053   1.041   3.200  15.563  2.7203 -3.2927 -1.8931
19546TIP3    H280054   0.924   3.163  15.474 -0.7199  1.2589  0.5227
19547TIP3   OH280055   2.988   4.347  14.851  0.4872 -0.9508  0.2117
19547TIP3    H180056   3.062   4.308  14.898  1.6712  0.2613 -0.5998
19547TIP3    H280057   3.002   4.441  14.859 -0.5000 -0.7142 -0.7004
19548TIP3   OH280058   5.857   3.948   1.268 -0.7262  0.5973  0.6537
19548TIP3    H180059   5.923   3.950   1.198 -2.8929 -2.3235 -1.6074
19548TIP3    H280060   5.884   3.875   1.324  1.0531  2.9812  3.0521
19549TIP3   OH280061   6.693   5.473   1.940 -0.1580  0.2473  0.1389
19549TIP3    H180062   6.783   5.440   1.942 -0.6237 -1.1625 -0.9426
19549TIP3    H280063   6.696   5.556   1.987  1.3876 -0.5852  1.5365
19550TIP3   OH280064   6.680   5.492   2.884  0.2722  0.1475  0.1113
19550TIP3    H180065   6.602   5.522   2.932  0.0661 -1.1021  0.5728
19550TIP3    H280066   6.747   5.556   2.907 -0.3685  0.7166  0.4445
19551TIP3   OH280067   0.138   0.776   1.125 -0.2513  0.1113 -0.1327
19551TIP3    H180068   0.102   0.789   1.037  0.1853 -0.1920 -0.3583
19551TIP3    H280069   0.067   0.802   1.184 -0.6409  0.0666 -0.5758
19552TIP3   OH280070   6.286   4.329  16.451 -0.8338 -0.4325 -0.2962
19552TIP3    H180071   6.224   4.399  16.429  1.2905  1.2162 -1.3209
19552TIP3    H280072   6.326   4.359  16.533  1.6197  0.7030 -1.8365
19553TIP3   OH280073   0.372   3.925  15.554 -0.3653  0.1394  0.3095
19553TIP3    H180074   0.293   3.946  15.603 -0.5967 -0.5754  0.2504
19553TIP3    H280075   0.414   3.855  15.604 -1.4587 -1.7772 -1.3406
19554TIP3   OH280076   0.929   3.919  17.092  0.2494  0.2957 -0.0988
19554TIP3    H180077   0.861   3.940  17.028 -0.7606 -2.3573  0.0443
19554TIP3    H280078   0.910   3.977  17.166 -2.6019 -1.1737  0.3920
19555TIP3   OH280079   1.441   1.133   2.247  0.0019 -0.4924 -0.3422
19555TIP3    H180080   1.433   1.062   2.311  2.6452  1.2210  2.0187
19555TIP3    H280081   1.373   1.196   2.271 -2.2000 -2.0281 -2.3034
19556TIP3   OH280082   2.689   6.645   0.372  0.7125  0.2136 -0.3007
19556TIP3    H180083   2.762   6.613   0.320  1.4092  0.7053  0.3528
19556TIP3    H280084   2.728   6.709   0.432  0.0577 -0.8327  1.2915
19557TIP3   OH280085   1.905   3.183   0.457 -0.1286  0.2414  0.2466
19557TIP3    H180086   1.814   3.212   0.466 -0.1099  0.6563 -0.7804
19557TIP3    H280087   1.945   3.247   0.398  0.9860  0.3712  1.1288
19558TIP3   OH280088   2.718   5.254   5.563  0.2277  0.4837 -0.1242
19558TIP3    H180089   2.802   5.294   5.585  0.2203  1.3877 -1.7001
19558TIP3    H280090   2.692   5.208   5.643  2.2040  0.2118  0.3896
19559TIP3   OH280091   5.354   0.352   4.992 -0.2470 -0.2738  0.0405
19559TIP3    H180092   5.401   0.415   5.048 -1.2198 -0.3893  0.9963
19559TIP3    H280093   5.401   0.270   5.005 -1.6417 -0.7616  2.2361
19560TIP3   OH280094   2.461   2.044  13.778 -0.1942 -0.1939 -0.0085
19560TIP3    H180095   2.459   1.979  13.709  0.5024 -1.1499  0.8605
19560TIP3    H280096   2.420   2.001  13.854 -1.4978  1.0353  0.0256
19561TIP3   OH280097   1.467   0.513  14.751  0.0314  0.3665  0.4350
19561TIP3    H180098   1.405   0.525  14.680 -0.3402 -0.5825  0.5973
19561TIP3    H280099   1.437   0.574  14.819 -0.1391  0.6239  0.1313
19562TIP3   OH280100   5.172   5.860   3.307  0.3430  0.0983 -0.1594
19562TIP3    H180101   5.109   5.932   3.309  0.6427  0.3533  0.2371
19562TIP3    H280102   5.223   5.875   3.227  0.0116 -0.0132 -0.3922
19563TIP3   OH280103   3.544   0.071   0.792  0.1145  0.2492 -0.6641
19563TIP3    H180104   3.470   0.094   0.849 -1.3814 -2.4573 -1.4625
19563TIP3    H280105   3.508   0.008   0.730  2.7180  0.1371 -2.1177
19564TIP3   OH280106   4.902   4.017   1.080 -0.1416 -0.5667  0.2224
19564TIP3    H180107   4.836   4.041   1.015  1.2504 -0.4473 -1.1931
19564TIP3    H280108   4.854   3.967   1.146 -1.5876 -0.7181 -0.9170
19565TIP3   OH280109   4.154   1.184  14.480  0.4591  0.0122 -0.3518
19565TIP3    H180110   4.218   1.249  14.449  1.4432 -1.1967 -0.8740
19565TIP3    H280111   4.077   1.236  14.503  1.5986  1.4747  0.2128
19566TIP3   OH280112   3.364   1.996  11.316  0.0481 -0.0459 -0.2879
19566TIP3    H180113   3.371   2.025  11.225 -1.0530 -1.3638 -0.8231
19566TIP3    H280114   3.359   2.077  11.367  0.0308  0.7008 -1.4617
19567TIP3   OH280115   0.314   3.179  11.986 -0.3017 -0.0861  0.0837
19567TIP3    H180116   0.219   3.178  12.002 -0.4312 -2.3393 -0.6054
19567TIP3    H280117   0.351   3.221  12.063 -1.8578  0.8173  0.3682
19568TIP3   OH280118   3.092   4.767  14.457 -0.3101  0.4655  0.0329
19568TIP3    H180119   3.153   4.752  14.530  1.9400  0.3493 -1.7989
19568TIP3    H280120   3.099   4.687  14.404 -0.3187  1.4187 -1.4150
19569TIP3   OH280121   5.338   6.357  14.549  0.3437 -0.1176 -0.5294
19569TIP3    H180122   5.292   6.316  14.476  1.1855 -0.7965 -0.6856
19569TIP3    H280123   5.280   6.345  14.624 -0.2611  0.0699 -0.9672
19570TIP3   OH280124   5.759   3.436  11.104  0.5115  0.2437 -0.0887
19570TIP3    H180125   5.730   3.510  11.051 -0.3335  0.3544  0.5119
19570TIP3    H280126   5.758   3.362  11.043  1.0989  0.6742 -0.6243
19571TIP3   OH280127   3.166   1.408  14.063  0.3595  0.1375 -0.5211
19571TIP3    H180128   3.203   1.412  13.975 -1.8416  2.9406 -1.3620
19571TIP3    H280129   3.221   1.466  14.115 -2.0435  3.4717 -1.5352
19572TIP3   OH280130   0.231   5.487   2.742 -0.0038  0.6212 -0.4851
19572TIP3    H180131   0.203   5.397   2.756 -2.3013  1.4958  0.7440
19572TIP3    H280132   0.268   5.515   2.826 -0.6859  1.2978 -0.4035
19573TIP3   OH280133   4.776   1.879  14.846 -0.4069 -0.1331  0.3967
19573TIP3    H180134   4.753   1.819  14.776  1.0404 -0.0918 -0.1306
19573TIP3    H280135   4.721   1.853  14.920 -1.5378 -0.5227 -0.5768
19574TIP3   OH280136   6.419   3.883   0.501 -0.6785  0.0041  0.3283
19574TIP3    H180137   6.326   3.889   0.522 -0.8908  0.0034 -0.6007
19574TIP3    H280138   6.447   3.973   0.489 -1.5577 -0.1556 -3.6251
19575TIP3   OH280139   1.395   4.303   0.647  0.4113  0.4568 -0.0894
19575TIP3    H180140   1.333   4.312   0.575  1.5592  0.4716 -1.0840
19575TIP3    H280141   1.386   4.212   0.675 -1.6023  1.0174  1.2070
19576TIP3   OH280142   0.257   6.411  10.279  0.0322 -0.2774  0.3838
19576TIP3    H180143   0.295   6.495  10.255  1.5489 -0.7365  1.1251
19576TIP3    H280144   0.177   6.433  10.327 -0.3882  0.7013 -0.7441
19577TIP3   OH280145   1.339   5.904  13.852 -0.1292  0.0021 -0.5726
19577TIP3    H180146   1.375   5.962  13.785 -1.6313  1.5868 -0.0623
19577TIP3    H280147   1.350   5.816  13.816  1.2945  0.6647 -1.8090
19578TIP3   OH280148   1.704   2.344   2.126  0.3209 -0.8517  0.3549
19578TIP3    H180149   1.613   2.352   2.099  0.4413 -0.9999 -0.0949
19578TIP3    H280150   1.744   2.427   2.100 -0.1893  0.1063  2.5279
19579TIP3   OH280151   5.999   6.568  16.650  0.2457  0.5149  0.2290
19579TIP3    H180152   6.004   6.663  16.658  0.6841  0.6523 -1.5634
19579TIP3    H280153   6.080   6.544  16.604  0.2710 -0.7535  0.9183
19580TIP3   OH280154   1.283   6.633   6.170 -0.5034 -0.5358 -0.7587
19580TIP3    H180155   1.330   6.557   6.204 -1.3949 -0.5102  0.5443
19580TIP3    H280156   1.239   6.670   6.246 -0.4055  1.0605 -1.4532
19581TIP3   OH280157   1.458   6.214   0.568 -0.2979  0.6572 -0.1379
19581TIP3    H180158   1.492   6.270   0.637 -0.0814  0.2819  0.0625
19581TIP3    H280159   1.532   6.160   0.542 -0.9005 -0.6796  0.8089
19582TIP3   OH280160   5.998   0.847   6.390 -0.1823  0.1451  0.2220
19582TIP3    H180161   6.085   0.847   6.351 -0.8042  1.4249 -1.2124
19582TIP3    H280162   6.008   0.800   6.473  1.7982  0.0439 -0.0706
19583TIP3   OH280163   6.085   2.790   4.026 -0.8974 -0.4335  0.1922
19583TIP3    H180164   6.137   2.793   3.946  0.0939  1.7760  0.8899
19583TIP3    H280165   6.002   2.832   4.002 -0.6772  0.0451  0.2593
19584TIP3   OH280166   5.394   0.340  15.974 -0.3049  0.7360 -0.5266
19584TIP3    H180167   5.317   0.291  15.947  0.8017 -0.4540 -1.6052
19584TIP3    H280168   5.409   0.402  15.903 -0.4759  1.2194 -0.1435
19585TIP3   OH280169   1.077   3.805   5.954 -1.1471  0.6169  0.2232
19585TIP3    H180170   1.164   3.768   5.942 -0.9663  1.0355  0.2316
19585TIP3    H280171   1.083   3.894   5.919 -1.9427  0.1856 -1.0419
19586TIP3   OH280172   3.870   2.565   5.250  0.1157 -0.5193  0.1149
19586TIP3    H180173   3.897   2.484   5.206  1.9139 -1.3228  2.6011
19586TIP3    H280174   3.781   2.548   5.279 -0.1343 -0.9549 -0.8794
19587TIP3   OH280175   4.064   0.754   5.668  0.2521  0.0323  0.0608
19587TIP3    H180176   4.003   0.819   5.631  0.1174  0.5802  1.1978
19587TIP3    H280177   4.150   0.783   5.639 -0.0563 -1.1523 -2.1616
19588TIP3   OH280178   6.551   3.855  10.925  0.3269  0.1427  0.5039
19588TIP3    H180179   6.537   3.926  10.988 -2.7669 -0.5659  0.6980
19588TIP3    H280180   6.502   3.781  10.962  1.8333 -1.4942 -0.7149
19589TIP3   OH280181   4.383   1.262   0.311  0.3597  0.0419  0.3907
19589TIP3    H180182   4.426   1.219   0.237 -0.0589  0.3008  0.0041
19589TIP3    H280183   4.430   1.228   0.388  0.6005 -0.4441  0.0302
19590TIP3   OH280184   6.691   3.475  16.349  0.2744 -0.3042  0.3017
19590TIP3    H180185   6.727   3.433  16.272 -0.1364 -0.9237  0.4423
19590TIP3    H280186   6.678   3.404  16.412 -1.4888 -0.1617  0.1270
19591TIP3   OH280187   1.974   3.940   4.505 -0.0550  0.0892  0.0781
19591TIP3    H180188   1.907   3.929   4.573 -0.3365  1.3910  0.0149
19591TIP3    H280189   2.056   3.916   4.548 -0.5637 -1.6698  0.1175
19592TIP3   OH280190   4.411   0.476  11.269 -0.2463  0.1261  0.3743
19592TIP3    H180191   4.346   0.432  11.324 -1.1055 -0.7918 -1.3277
19592TIP3    H280192   4.443   0.407  11.210 -0.5472  1.4512 -1.3690
19593TIP3   OH280193   5.622   3.332  14.880 -0.2993 -0.3118  0.3339
19593TIP3    H180194   5.644   3.372  14.964  0.3798  0.9619 -0.4343
19593TIP3    H280195   5.568   3.257  14.903  0.8941 -0.7005  1.9773
19594TIP3   OH280196   0.703   5.160   0.616  0.4677  0.4232 -0.0384
19594TIP3    H180197   0.643   5.190   0.685  0.4703 -1.7355  0.9314
19594TIP3    H280198   0.790   5.166   0.656  0.7562  1.9235 -0.8638
19595TIP3   OH280199   5.623   1.281   4.854 -0.3485  0.1026  0.0698
19595TIP3    H180200   5.591   1.244   4.937 -2.0387 -0.0543 -0.6186
19595TIP3    H280201   5.612   1.211   4.791 -2.8234  1.4566 -1.0864
19596TIP3   OH280202   2.802   3.784   3.393  0.2773  0.1565  0.0700
19596TIP3    H180203   2.881   3.731   3.383 -0.1131 -0.2314 -1.0303
19596TIP3    H280204   2.776   3.805   3.303 -1.4727 -0.6111  0.3930
19597TIP3   OH280205   1.893   4.831  12.037 -0.4082 -0.4377 -0.8269
19597TIP3    H180206   1.981   4.850  12.005 -1.0167  0.3308 -2.0986
19597TIP3    H280207   1.868   4.909  12.086  0.4804 -1.5707  1.4784
19598TIP3   OH280208   5.374   1.852  13.754  0.0337 -0.6282  0.4383
19598TIP3    H180209   5.421   1.782  13.709 -0.8862  0.1948 -1.9224
19598TIP3    H280210   5.406   1.932  13.712 -0.7886  0.1815  1.3397
19599TIP3   OH280211   4.307   2.823  17.011 -0.2510 -0.0026 -0.1822
19599TIP3    H180212   4.353   2.874  16.945 -0.7251  0.9777  0.2230
19599TIP3    H280213   4.322   2.732  16.986  0.3873  0.3367 -1.0763
19600TIP3   OH280214   3.433   1.595  17.202  0.6860  0.2524 -0.2411
19600TIP3    H180215   3.445   1.543  17.122 -1.4009  0.3215 -0.6415
19600TIP3    H280216   3.364   1.549  17.250 -1.0392  2.4633 -0.4946
19601TIP3   OH280217   3.953   3.450  15.584 -0.5544  0.0268 -0.4162
19601TIP3    H180218   4.039   3.409  15.593  0.3281  1.3320 -2.5435
19601TIP3    H280219   3.923   3.464  15.674  1.9014  0.4529  0.3691
19602TIP3   OH280220   5.839   6.659  16.117  0.3257 -0.7065  0.0951
19602TIP3    H180221   5.842   6.582  16.173  1.2517  0.4773  1.7289
19602TIP3    H280222   5.879   6.729  16.170 -1.7279  1.2270 -0.8026
19603TIP3   OH280223   2.222   1.747  16.468  0.1077  0.2334  0.1693
19603TIP3    H180224   2.241   1.654  16.461 -0.6065  0.2181 -1.9558
19603TIP3    H280225   2.134   1.757  16.431 -0.3097  1.5820  1.4716
19604TIP3   OH280226   1.458   6.073   4.261 -0.1529 -0.1679  0.1070
19604TIP3    H180227   1.472   6.100   4.352  1.2491  1.2795 -0.5083
19604TIP3    H280228   1.431   6.154   4.216  2.3618 -0.1133 -1.4053
19605TIP3   OH280229   4.853   1.586   2.862 -0.2564 -0.5741  0.1419
19605TIP3    H180230   4.871   1.633   2.780  0.2393 -0.4994  0.2895
19605TIP3    H280231   4.759   1.571   2.861 -0.6494  1.6272  0.7360
19606TIP3   OH280232   4.307   3.181  11.403 -0.0868 -0.4686 -0.1454
19606TIP3    H180233   4.338   3.090  11.406  0.3743 -0.3059  0.1773
19606TIP3    H280234   4.222   3.176  11.360 -0.0104 -1.0404 -0.2409
19607TIP3   OH280235   3.411   3.174  14.830  0.5100  0.3899 -0.2534
19607TIP3    H180236   3.497   3.193  14.867  0.9985 -1.6768 -0.2669
19607TIP3    H280237   3.429   3.134  14.745 -0.4426 -0.4858 -0.0520
19608TIP3   OH280238   2.844   0.815  16.934 -0.1281 -0.4819  0.4417
19608TIP3    H180239   2.927   0.767  16.926 -0.0270 -0.1072 -0.7130
19608TIP3    H280240   2.782   0.764  16.882 -0.0909  0.4762 -0.5514
19609TIP3   OH280241   3.874   3.770  10.479 -0.0717 -0.2781  0.3923
19609TIP3    H180242   3.886   3.815  10.396 -0.0777  1.2041  1.1808
19609TIP3    H280243   3.961   3.738  10.502 -0.1466 -1.0506 -0.3713
19610TIP3   OH280244   0.190   1.906   4.317 -0.1997 -0.1604  0.2325
19610TIP3    H180245   0.236   1.830   4.280 -0.1915 -0.3249  0.5797
19610TIP3    H280246   0.103   1.902   4.277  0.5467  1.0081 -1.5794
19611TIP3   OH280247   4.667   0.836   1.435  0.5224 -0.2957  0.0220
19611TIP3    H180248   4.583   0.878   1.453 -0.0143 -1.8056  1.1966
19611TIP3    H280249   4.675   0.837   1.340 -0.8348 -0.1703 -0.0958
19612TIP3   OH280250   3.708   3.658  11.062 -0.4799 -0.4947 -0.1648
19612TIP3    H180251   3.632   3.683  11.114 -1.4628 -2.4216 -0.6338
19612TIP3    H280252   3.672   3.624  10.981  1.0066  1.1889 -1.5817
19613TIP3   OH280253   2.586   2.948   3.231 -0.1606 -0.0351 -0.1007
19613TIP3    H180254   2.530   3.024   3.217  1.3766  0.9917 -0.8189
19613TIP3    H280255   2.557   2.884   3.166 -0.7136  0.3593 -0.2409
19614TIP3   OH280256   0.480   2.580  12.179  0.3819 -0.0626 -0.4088
19614TIP3    H180257   0.386   2.593  12.165  0.2486 -3.2835 -3.3233
19614TIP3    H280258   0.517   2.581  12.090  2.6783 -1.4032  0.5001
19615TIP3   OH280259   4.797   6.040  14.668  0.2312  0.1365 -0.3987
19615TIP3    H180260   4.887   6.054  14.697  0.0217  2.2084 -0.7118
19615TIP3    H280261   4.804   5.972  14.601  0.9567 -3.3577  3.0096
19616TIP3   OH280262   4.074   1.633   1.701 -0.2393  0.9672  0.1055
19616TIP3    H180263   4.152   1.678   1.669 -0.4439  1.3806  0.1923
19616TIP3    H280264   4.036   1.592   1.623 -0.2316  1.2137 -0.0267
19617TIP3   OH280265   2.344   1.513  11.801  0.3183  0.2727  0.5228
19617TIP3    H180266   2.429   1.471  11.787  1.7934  2.5859  2.0721
19617TIP3    H280267   2.326   1.501  11.894 -1.0194 -0.0876  0.2332
19618TIP3   OH280268   2.996   5.732   3.550  0.0499  0.1416 -0.2666
19618TIP3    H180269   3.072   5.790   3.561  0.2650 -0.0824 -0.5557
19618TIP3    H280270   2.950   5.736   3.633 -0.9262  2.1444 -0.8639
19619TIP3   OH280271   5.758   6.455  15.926 -0.5464 -0.1302  0.0628
19619TIP3    H180272   5.838   6.410  15.900 -0.0371  0.7173  0.1709
19619TIP3    H280273   5.779   6.495  16.011 -1.1104  0.0325  0.1305
19620TIP3   OH280274   6.327   4.871   4.355 -0.6881  0.4379  0.1089
19620TIP3    H180275   6.353   4.934   4.288 -2.1984  0.3807 -0.5621
19620TIP3    H280276   6.307   4.925   4.432  2.3487  0.3975  0.9767
19621TIP3   OH280277   4.491   2.508  14.256 -0.2834  0.2619 -0.0686
19621TIP3    H180278   4.540   2.572  14.205  0.9612  0.2217  1.0615
19621TIP3    H280279   4.553   2.475  14.321 -1.4530 -0.6833  0.6072
19622TIP3   OH280280   2.306   1.221  14.964  0.1370  0.1991 -0.2316
19622TIP3    H180281   2.398   1.236  14.985 -0.1112  1.4371  0.0050
19622TIP3    H280282   2.267   1.308  14.960 -1.6155 -0.4093  2.3231
19623TIP3   OH280283   4.273   3.849  12.420 -0.1850  0.3404 -0.4984
19623TIP3    H180284   4.239   3.785  12.357 -0.0354 -1.1348  0.8776
19623TIP3    H280285   4.368   3.844  12.411 -0.1940  3.6919 -3.5865
19624TIP3   OH280286   5.397   3.324   2.455 -0.2557 -0.1427 -0.1722
19624TIP3    H180287   5.403   3.336   2.360 -1.8042  1.2037 -0.1215
19624TIP3    H280288   5.463   3.383   2.491 -1.2180  1.0320 -0.3237
19625TIP3   OH280289   2.942   0.529   2.670 -0.1192  0.0455  0.0120
19625TIP3    H180290   2.941   0.545   2.765 -0.2602 -1.6389  0.3005
19625TIP3    H280291   2.857   0.489   2.651 -0.0719  0.3359 -0.8248
19626TIP3   OH280292   2.213   3.935   4.669  0.2973 -0.5110  0.4391
19626TIP3    H180293   2.271   3.974   4.604 -0.1782 -0.0781  0.2789
19626TIP3    H280294   2.225   3.989   4.748  1.0178 -1.1495  0.7757
19627TIP3   OH280295   2.311   5.450  11.144  0.2591 -0.0347  0.1450
19627TIP3    H180296   2.260   5.371  11.165 -0.0505  0.3452  0.8095
19627TIP3    H280297   2.367   5.423  11.071  0.1517 -0.8732  0.3688
19628TIP3   OH280298   2.716   2.103  13.604  0.3338 -0.0459  0.3933
19628TIP3    H180299   2.721   2.044  13.680 -0.4874 -0.1525  0.3691
19628TIP3    H280300   2.688   2.047  13.532  0.9263  0.0967  0.0506
19629TIP3   OH280301   3.447   6.709  15.234  0.0229  0.1417  0.4907
19629TIP3    H180302   3.534   6.712  15.273  0.4230  1.8832 -0.4957
19629TIP3    H280303   3.459   6.742  15.145 -1.4879 -0.4456  0.0456
19630TIP3   OH280304   6.062   6.490  10.816  0.7748  0.4945  0.6752
19630TIP3    H180305   6.136   6.488  10.756 -0.2511  2.4726 -0.7370
19630TIP3    H280306   6.068   6.408  10.865  1.0642 -1.7551 -2.8848
19631TIP3   OH280307   5.548   5.207   5.065  0.1437 -0.1736  0.2887
19631TIP3    H180308   5.615   5.275   5.054  0.6551 -0.5487  1.0432
19631TIP3    H280309   5.534   5.173   4.977 -0.0656  0.8674 -0.0815
19632TIP3   OH280310   6.564   4.206  11.862  0.1645  0.9414 -0.7143
19632TIP3    H180311   6.599   4.119  11.847 -0.3993  0.5802  0.0292
19632TIP3    H280312   6.621   4.264  11.811  3.3676  0.6520  2.3805
19633TIP3   OH280313   5.113   1.580   4.477 -0.7303  0.2144 -0.0841
19633TIP3    H180314   5.104   1.502   4.531  0.4261 -1.2285 -1.9253
19633TIP3    H280315   5.033   1.585   4.426 -0.6277 -0.0056 -0.2666
19634TIP3   OH280316   1.508   0.759  13.553 -0.3733 -0.4054  0.4775
19634TIP3    H180317   1.557   0.677  13.557 -0.0935 -0.2086  1.1900
19634TIP3    H280318   1.441   0.744  13.486  1.1690 -0.3873 -1.0993
19635TIP3   OH280319   1.772   6.654   3.452 -0.4936  0.3883  0.0140
19635TIP3    H180320   1.823   6.683   3.376 -0.0689  0.6250  0.3843
19635TIP3    H280321   1.703   6.720   3.462 -1.4938 -0.4618 -1.0920
19636TIP3   OH280322   0.260   5.001   1.275  0.5275  1.0715 -0.6291
19636TIP3    H180323   0.194   4.945   1.233  0.8431  0.3755 -0.2155
19636TIP3    H280324   0.246   5.087   1.237 -1.5349  1.2403  0.4694
19637TIP3   OH280325   3.382   0.053   3.955 -0.1187 -0.3752 -0.9860
19637TIP3    H180326   3.436   0.006   3.892  0.8468 -0.1391 -0.3435
19637TIP3    H280327   3.353   0.132   3.909  2.9743  1.2625 -0.2078
19638TIP3   OH280328   3.892   6.442   6.243  0.1422 -0.6254  0.6506
19638TIP3    H180329   3.913   6.454   6.150 -0.9012 -0.9661  0.3644
19638TIP3    H280330   3.925   6.522   6.285 -0.8565  0.2941 -0.2702
19639TIP3   OH280331   1.648   3.699  12.118  0.0938 -0.0939  0.2688
19639TIP3    H180332   1.601   3.732  12.194  1.0922  3.3240 -0.5194
19639TIP3    H280333   1.698   3.624  12.152  1.0727  1.7851  3.1557
19640TIP3   OH280334   2.540   4.509  14.367 -0.2227 -0.5245 -0.3583
19640TIP3    H180335   2.524   4.541  14.456 -2.4356 -4.9353  1.0095
19640TIP3    H280336   2.545   4.588  14.313  2.7105  2.3703  3.8288
19641TIP3   OH280337   1.319   4.039   3.901 -0.5182  0.2791  0.2665
19641TIP3    H180338   1.235   4.004   3.873 -0.3229 -0.3445  0.4464
19641TIP3    H280339   1.318   4.130   3.873 -0.6103 -0.1498 -1.1549
19642TIP3   OH280340   3.920   3.845   4.313  0.3938 -0.3370  0.1608
19642TIP3    H180341   3.938   3.933   4.281 -2.0673  0.0512 -0.2602
19642TIP3    H280342   3.894   3.858   4.404 -0.5701 -0.5413 -0.0786
19643TIP3   OH280343   4.215   5.026  14.293  0.0101 -0.5232 -0.3656
19643TIP3    H180344   4.193   5.107  14.340 -1.2052 -1.2772  0.3974
19643TIP3    H280345   4.284   5.052  14.232  1.4994  0.5324  1.6793
19644TIP3   OH280346   2.246   6.607  16.791  0.0399  0.4112  0.9108
19644TIP3    H180347   2.163   6.609  16.744  1.3313  0.7836 -1.4871
19644TIP3    H280348   2.288   6.690  16.769  2.0273 -0.7363  0.1142
19645TIP3   OH280349   2.462   6.124   1.130  0.3261  0.6740  0.0977
19645TIP3    H180350   2.479   6.151   1.040 -0.3515 -1.1422 -0.5992
19645TIP3    H280351   2.368   6.133   1.142  0.6470  2.8207  1.2987
19646TIP3   OH280352   1.227   2.135  10.970 -0.2185  0.4518 -0.0737
19646TIP3    H180353   1.132   2.134  10.976 -0.1789  0.5280  0.6333
19646TIP3    H280354   1.252   2.217  11.013  0.2351 -0.1777  0.8842
19647TIP3   OH280355   6.387   3.928  13.391 -0.5352 -0.4055 -0.2419
19647TIP3    H180356   6.292   3.937  13.383 -0.8348 -1.3870  1.8899
19647TIP3    H280357   6.401   3.838  13.421  1.0109  0.0388  0.4509
19648TIP3   OH280358   5.169   3.741  16.722 -0.1480  0.4748  0.3060
19648TIP3    H180359   5.181   3.835  16.712 -2.1087  0.5871 -1.3563
19648TIP3    H280360   5.121   3.714  16.643 -0.0886 -1.8185  1.0050
19649TIP3   OH280361   5.019   0.374   5.896 -0.6980  0.0025 -0.2547
19649TIP3    H180362   4.935   0.357   5.940 -0.4695 -0.0355  0.1654
19649TIP3    H280363   5.021   0.469   5.885 -1.1360 -0.0621 -0.9434
19650TIP3   OH280364   0.600   6.515  13.687 -0.1308  0.3988  0.4825
19650TIP3    H180365   0.669   6.467  13.642  0.7494  1.4716  0.6497
19650TIP3    H280366   0.535   6.449  13.710  0.2130 -0.4130 -0.8483
19651TIP3   OH280367   2.159   1.598   4.177  0.1155 -0.2883 -0.1720
19651TIP3    H180368   2.222   1.542   4.131  0.5341 -0.8906  1.1188
19651TIP3    H280369   2.141   1.669   4.115  0.4113 -1.2536 -1.3997
19652TIP3   OH280370   5.963   3.746   1.421 -0.5260  0.1943  0.4245
19652TIP3    H180371   5.965   3.652   1.406 -2.5015  0.3441 -0.9376
19652TIP3    H280372   5.947   3.755   1.515  0.5147 -0.8066  0.7134
19653TIP3   OH280373   0.597   3.778   5.566  0.8415 -0.5503 -0.2643
19653TIP3    H180374   0.674   3.735   5.604  0.0108 -0.9869  0.9576
19653TIP3    H280375   0.561   3.830   5.638  0.3185  0.0952 -0.9876
19654TIP3   OH280376   3.231   0.734  16.179 -0.0775  0.0659 -0.3179
19654TIP3    H180377   3.234   0.653  16.129  0.6151 -1.5606  2.2286
19654TIP3    H280378   3.238   0.803  16.114 -0.1896 -1.9220 -2.5119
19655TIP3   OH280379   6.410   2.925  13.882 -0.2254 -0.2694  0.0287
19655TIP3    H180380   6.339   2.899  13.941  1.7688 -0.4612  2.3859
19655TIP3    H280381   6.400   3.020  13.872 -0.1935 -0.1444  1.1847
19656TIP3   OH280382   1.284   2.698   3.971 -0.3772  0.0687 -0.2355
19656TIP3    H180383   1.267   2.613   3.929 -0.1953  0.5563 -1.2868
19656TIP3    H280384   1.197   2.736   3.984 -0.6261 -1.2220  2.2415
19657TIP3   OH280385   1.539   2.053   1.345  0.5545 -0.5179 -0.0370
19657TIP3    H180386   1.569   2.083   1.431  0.0253 -1.6554  0.5619
19657TIP3    H280387   1.606   1.992   1.315  1.1248  0.4660 -0.7946
19658TIP3   OH280388   2.329   3.229  15.698 -0.4824  0.3608 -0.6967
19658TIP3    H180389   2.286   3.269  15.774 -0.1738  0.4801 -0.5881
19658TIP3    H280390   2.263   3.233  15.629 -0.4722  0.9797 -0.6651
19659TIP3   OH280391   1.259   5.537   1.370  0.7968  0.4137 -0.0882
19659TIP3    H180392   1.211   5.529   1.452 -0.4593  1.4788 -0.6957
19659TIP3    H280393   1.192   5.554   1.304  1.7121 -1.1427 -1.4622
19660TIP3   OH280394   5.491   6.150   4.677  0.3968 -0.2013 -0.2016
19660TIP3    H180395   5.548   6.085   4.719  0.3115  0.3635  0.7841
19660TIP3    H280396   5.450   6.197   4.749  0.0217  0.5770 -0.9155
19661TIP3   OH280397   3.255   2.518  11.875  0.2652  0.4217  0.2222
19661TIP3    H180398   3.165   2.543  11.853 -0.3074 -1.3531  0.4820
19661TIP3    H280399   3.261   2.534  11.969  0.6506  1.8008 -0.0285
19662TIP3   OH280400   0.383   5.166   1.998 -0.3909 -0.1885 -0.5376
19662TIP3    H180401   0.424   5.097   1.946 -0.8337  0.4845 -1.7962
19662TIP3    H280402   0.443   5.239   1.993  0.2821 -0.5987  1.1507
19663TIP3   OH280403   6.762   1.327   5.194 -0.5323  0.0737  0.7136
19663TIP3    H180404   6.830   1.332   5.127 -0.1692 -0.5695  1.0291
19663TIP3    H280405   6.697   1.392   5.167 -0.3609 -0.1323 -0.2226
19664TIP3   OH280406   3.271   1.276   1.954 -0.6196 -0.5672  0.0511
19664TIP3    H180407   3.318   1.226   1.887 -1.2978  0.5148 -1.2682
19664TIP3    H280408   3.189   1.302   1.910 -1.0607  0.1791  1.3025
19665TIP3   OH280409   4.781   0.169  15.197 -0.3256 -0.2775  0.1197
19665TIP3    H180410   4.838   0.108  15.244 -0.1746 -0.9452 -0.9036
19665TIP3    H280411   4.754   0.120  15.119  0.0867  1.0803 -0.8982
19666TIP3   OH280412   4.032   3.738   1.207  0.2848  0.2034 -0.1870
19666TIP3    H180413   4.023   3.787   1.126 -0.9283  0.4092  0.0608
19666TIP3    H280414   4.007   3.800   1.276 -0.0064 -0.3627  0.2295
19667TIP3   OH280415   2.768   0.920   2.438  0.1217  0.5334 -0.4331
19667TIP3    H180416   2.861   0.901   2.425  0.5104  1.4411  0.8900
19667TIP3    H280417   2.739   0.855   2.502 -1.0910 -2.1237 -3.5655
19668TIP3   OH280418   3.216   1.592   5.144  0.8423  0.3529  0.4223
19668TIP3    H180419   3.282   1.525   5.162 -0.2502 -0.5516  1.1561
19668TIP3    H280420   3.266   1.670   5.121  2.1436 -0.5964 -0.0157
19669TIP3   OH280421   2.175   5.346   3.047 -0.1569  0.3440  0.0748
19669TIP3    H180422   2.209   5.289   2.979  0.1150  0.9379 -0.2888
19669TIP3    H280423   2.081   5.326   3.051 -0.1309  0.1477 -0.3119
19670TIP3   OH280424   2.555   2.426  13.221  0.0847  0.0099 -0.7214
19670TIP3    H180425   2.607   2.496  13.260  0.5213  0.0072 -1.2962
19670TIP3    H280426   2.618   2.372  13.173  0.1278 -2.2274  1.7598
19671TIP3   OH280427   5.338   2.046   4.782  0.4106  0.3579 -0.1323
19671TIP3    H180428   5.415   2.056   4.727 -0.2253  0.3476 -1.0292
19671TIP3    H280429   5.308   2.135   4.799 -1.4932  0.2791 -2.8042
19672TIP3   OH280430   6.207   4.854  14.283 -0.3895 -0.3071 -0.4817
19672TIP3    H180431   6.217   4.923  14.349 -0.3875 -1.0292  0.2869
19672TIP3    H280432   6.172   4.780  14.332 -0.5174 -0.8105 -1.3328
19673TIP3   OH280433   4.880   4.945   3.377  0.5237 -0.5791  0.4967
19673TIP3    H180434   4.919   4.868   3.419 -0.0010 -1.0748  0.0947
19673TIP3    H280435   4.952   5.007   3.369  0.9953 -1.0928  0.6802
19674TIP3   OH280436   2.168   1.929   0.045 -0.1682 -0.1520 -0.0157
19674TIP3    H180437   2.246   1.895   0.001 -1.4016 -1.8844 -0.9247
19674TIP3    H280438   2.181   1.906   0.137  0.6831  0.1328 -0.0572
19675TIP3   OH280439   0.984   0.789  13.630  0.2188  0.5008  0.1633
19675TIP3    H180440   1.066   0.807  13.677 -0.7596 -1.4120  2.7553
19675TIP3    H280441   0.934   0.870  13.638  1.9288  1.7769 -1.6637
19676TIP3   OH280442   3.279   2.523   5.553  0.4906  0.2721  0.7768
19676TIP3    H180443   3.328   2.555   5.629 -0.8819  0.3949  1.6174
19676TIP3    H280444   3.216   2.592   5.534  2.2882  1.2617 -1.8865
19677TIP3   OH280445   3.242   1.180   4.568 -0.1580 -0.5708  0.3206
19677TIP3    H180446   3.174   1.133   4.519 -0.6719  0.0743  0.4031
19677TIP3    H280447   3.204   1.194   4.655  0.3390 -0.7837  0.5727
19678TIP3   OH280448   5.450   6.506   4.335 -0.0511 -0.1746 -0.2436
19678TIP3    H180449   5.506   6.446   4.386  0.6062  1.0966  0.5783
19678TIP3    H280450   5.370   6.457   4.319 -0.5607 -0.3802  2.6808
19679TIP3   OH280451   5.304   2.567  12.308 -0.0930  0.0411  0.0699
19679TIP3    H180452   5.345   2.623  12.373  0.7591 -0.5991  0.0909
19679TIP3    H280453   5.320   2.611  12.224  1.8670 -0.9003 -0.0780
19680TIP3   OH280454   5.885   6.178  10.883 -0.2623  0.0336 -0.6830
19680TIP3    H180455   5.864   6.265  10.847 -2.5536 -0.5608 -0.8740
19680TIP3    H280456   5.865   6.117  10.812  0.6565 -0.7070 -0.3098
19681TIP3   OH280457   4.897   1.477   4.011 -0.2238 -0.5581 -0.3874
19681TIP3    H180458   4.887   1.551   3.951 -1.5004 -0.3974  0.0046
19681TIP3    H280459   4.984   1.488   4.048  1.0258 -1.2380 -2.9694
19682TIP3   OH280460   5.249   4.058   2.560  0.8548 -0.3720 -0.3015
19682TIP3    H180461   5.338   4.063   2.595  0.0640 -1.2579  1.9494
19682TIP3    H280462   5.240   3.967   2.530  0.9089 -0.1130 -1.1138
19683TIP3   OH280463   2.753   0.449   4.724 -0.4896 -0.3365 -0.4089
19683TIP3    H180464   2.811   0.398   4.667 -0.9230 -1.9194  0.5370
19683TIP3    H280465   2.698   0.384   4.767 -1.5377  0.9893  0.3122
19684TIP3   OH280466   5.539   0.628  15.545 -0.2813 -0.1992  0.3692
19684TIP3    H180467   5.505   0.711  15.513  0.2771 -0.7789 -1.8349
19684TIP3    H280468   5.605   0.652  15.610 -2.1774  0.9880  1.8786
19685TIP3   OH280469   4.841   0.779  15.539 -0.1443 -0.4200 -0.3694
19685TIP3    H180470   4.775   0.823  15.484 -0.2118  0.3241  0.3005
19685TIP3    H280471   4.918   0.834  15.534 -0.7157  0.6379  1.7126
19686TIP3   OH280472   0.077   2.859  16.606  0.0848 -0.5075  0.2112
19686TIP3    H180473   0.098   2.949  16.632  1.6356 -0.9532  0.5337
19686TIP3    H280474   0.071   2.862  16.511 -2.8511  0.5426  0.3667
19687TIP3   OH280475   5.760   5.165   2.521 -0.0719 -0.1031  0.3313
19687TIP3    H180476   5.800   5.088   2.481 -1.9507 -1.0080  0.1462
19687TIP3    H280477   5.668   5.142   2.530 -0.5188  1.8519  0.9558
19688TIP3   OH280478   2.112   3.952   0.200  0.0569 -0.4468  0.6268
19688TIP3    H180479   2.070   4.006   0.267 -0.7514 -1.7686  1.1998
19688TIP3    H280480   2.130   4.013   0.128 -1.3287  0.4844  1.0482
19689TIP3   OH280481   1.052   0.656  12.104  0.0537  0.1165 -0.1256
19689TIP3    H180482   1.028   0.577  12.056  4.3489 -0.1481 -2.1407
19689TIP3    H280483   1.088   0.624  12.187 -0.3271  0.1119  0.0389
19690TIP3   OH280484   1.167   0.545  13.584 -0.4628  0.1831 -0.1477
19690TIP3    H180485   1.128   0.628  13.611  0.7474  1.4399 -2.1012
19690TIP3    H280486   1.242   0.534  13.642  0.4845  1.4402 -1.1122
19691TIP3   OH280487   4.536   2.715  10.675  0.5680 -0.0963  0.0053
19691TIP3    H180488   4.466   2.668  10.720 -0.1699  0.3674 -0.6227
19691TIP3    H280489   4.492   2.792  10.637  1.0940 -0.6312 -1.7475
19692TIP3   OH280490   6.113   4.502  12.214  0.2812  0.1486 -0.2165
19692TIP3    H180491   6.073   4.474  12.132  0.5445  0.4529 -0.4479
19692TIP3    H280492   6.184   4.439  12.229  1.5668  1.3027 -1.2895
19693TIP3   OH280493   5.986   3.825  15.851 -0.2252  0.1809 -0.4358
19693TIP3    H180494   5.892   3.806  15.859  0.3343 -1.9877  1.4134
19693TIP3    H280495   6.004   3.885  15.923 -0.1796  0.5463 -0.7515
19694TIP3   OH280496   3.372   4.607  14.733 -0.4058  0.2320 -0.5288
19694TIP3    H180497   3.407   4.606  14.644 -0.0259 -0.1231 -0.3782
19694TIP3    H280498   3.298   4.548  14.732 -0.6998  0.6035 -0.7272
19695TIP3   OH280499   2.144   1.815   3.983 -0.2248 -0.4898 -0.0593
19695TIP3    H180500   2.194   1.758   3.924 -1.5403 -0.4864 -1.1817
19695TIP3    H280501   2.192   1.898   3.981  0.8664 -1.0941  0.4453
19696TIP3   OH280502   2.624   3.833  17.047 -0.0441  0.2809 -0.1545
19696TIP3    H180503   2.572   3.893  16.994  0.8059  0.0341 -1.3097
19696TIP3    H280504   2.676   3.889  17.104 -2.4116  0.4879  1.8382
19697TIP3   OH280505   2.770   5.024  13.544  0.7414 -0.3041  0.4328
19697TIP3    H180506   2.700   5.032  13.610  0.6311 -0.9408  0.3966
19697TIP3    H280507   2.849   5.053  13.590  0.6602 -0.7231  0.8446
19698TIP3   OH280508   3.135   0.729  13.380  0.4043  0.0998 -0.7570
19698TIP3    H180509   3.195   0.681  13.436 -0.3017  0.4575  0.3229
19698TIP3    H280510   3.101   0.800  13.435 -0.3911  0.3865 -1.5887
19699TIP3   OH280511   2.908   1.126  13.845  0.1951 -0.3833 -0.5691
19699TIP3    H180512   2.997   1.090  13.855  1.0083  2.1449  1.6932
19699TIP3    H280513   2.919   1.220  13.854 -2.4464  0.1918 -2.6466
19700TIP3   OH280514   0.864   1.974  13.090  0.2821  0.6050  0.1061
19700TIP3    H180515   0.827   2.017  13.013 -1.7007 -0.2568  0.5220
19700TIP3    H280516   0.892   2.045  13.147  0.9142  1.2588 -1.0014
19701TIP3   OH280517   5.489   1.069   3.504 -0.1211 -0.0262  0.0234
19701TIP3    H180518   5.510   0.988   3.551 -0.6494  0.8047  1.7488
19701TIP3    H280519   5.532   1.138   3.555 -0.2668  0.8510 -1.0242
19702TIP3   OH280520   2.361   1.408   3.177 -0.4986  0.4329 -0.2188
19702TIP3    H180521   2.383   1.492   3.215  1.6275 -0.6022  0.9557
19702TIP3    H280522   2.348   1.350   3.252  1.2045 -1.0206 -1.0184
19703TIP3   OH280523   4.403   0.727   3.872 -0.1515  0.4143 -0.1411
19703TIP3    H180524   4.330   0.754   3.815 -0.0502  2.0977  0.4704
19703TIP3    H280525   4.471   0.698   3.813 -0.3851  1.2865 -0.8512
19704TIP3   OH280526   4.283   1.971  16.508  0.5824 -0.1202 -0.0457
19704TIP3    H180527   4.198   2.009  16.530 -0.8399 -4.0790  1.5856
19704TIP3    H280528   4.272   1.937  16.419  1.3136  1.5946 -0.8241
19705TIP3   OH280529   3.393   3.445  17.005  0.1474  0.3847  0.1272
19705TIP3    H180530   3.317   3.436  16.947  0.5577 -0.9622 -0.2141
19705TIP3    H280531   3.442   3.363  16.994  1.0280  0.7477  1.2448
19706TIP3   OH280532   5.582   3.416   4.698  0.5248  0.4605  0.2545
19706TIP3    H180533   5.517   3.392   4.632 -1.0958  1.4617  1.4460
19706TIP3    H280534   5.530   3.450   4.771  2.3588  0.5269  1.5457
19707TIP3   OH280535   5.470   0.070   6.098 -0.2872  0.1066 -0.2828
19707TIP3    H180536   5.515   0.058   6.181 -3.1941 -0.5425  1.2641
19707TIP3    H280537   5.405   0.139   6.116 -1.0341 -0.1304 -1.9827
19708TIP3   OH280538   2.092   2.416   0.076  0.3725 -0.2415 -0.8093
19708TIP3    H180539   2.149   2.405   0.152  0.1038  0.2755 -0.5332
19708TIP3    H280540   2.005   2.432   0.113  0.2982  0.3244 -1.2148
19709TIP3   OH280541   1.766   2.787  16.469 -0.1147 -0.0924  0.5745
19709TIP3    H180542   1.701   2.828  16.526  0.0953 -1.8881  2.1827
19709TIP3    H280543   1.842   2.844  16.474 -0.9939  1.1495 -0.0072
19710TIP3   OH280544   0.160   0.200  16.466  0.4198  0.7518  0.1472
19710TIP3    H180545   0.140   0.107  16.453 -1.1223  1.2177 -1.0428
19710TIP3    H280546   0.237   0.216  16.411 -1.9278  1.1150 -3.2481
19711TIP3   OH280547   0.898   5.122   0.994  0.6805 -0.0214 -0.4826
19711TIP3    H180548   0.920   5.111   1.086  1.1647 -0.4209 -0.6465
19711TIP3    H280549   0.810   5.084   0.985  0.9315 -0.6357 -0.3405
19712TIP3   OH280550   2.442   0.260  15.416  0.2580 -0.4397  0.1830
19712TIP3    H180551   2.361   0.304  15.443  0.6295  1.7032 -2.0048
19712TIP3    H280552   2.414   0.173  15.388 -0.9929 -0.4247  1.3612
19713TIP3   OH280553   2.823   2.648   1.973 -0.2104  0.4293 -0.3136
19713TIP3    H180554   2.874   2.723   2.003 -1.1947  1.2949 -0.7304
19713TIP3    H280555   2.806   2.666   1.880 -0.0650 -0.5351 -0.5338
19714TIP3   OH280556   0.951   4.580   0.209  0.1604 -0.1092  0.6873
19714TIP3    H180557   0.955   4.615   0.298  0.8986  1.5054  0.0308
19714TIP3    H280558   0.927   4.655   0.155  1.4786 -0.6788 -0.7116
19715TIP3   OH280559   6.425   6.125   5.352 -0.2836 -0.1967  0.4742
19715TIP3    H180560   6.445   6.051   5.410  0.2756  0.7632  1.5025
19715TIP3    H280561   6.447   6.203   5.403  0.3938  0.6572 -1.0902
19716TIP3   OH280562   5.492   3.506   0.006  0.4768 -0.3172 -0.5972
19716TIP3    H180563   5.440   3.548   0.075 -0.9871 -1.2619 -1.0785
19716TIP3    H280564   5.557   3.454   0.053  0.8173  0.6818  0.0330
19717TIP3   OH280565   0.732   0.531  14.016  0.0701  0.3664  0.4364
19717TIP3    H180566   0.660   0.472  14.038 -2.4988  2.0564 -2.9053
19717TIP3    H280567   0.730   0.598  14.085 -0.5543 -0.4789  1.2450
19718TIP3   OH280568   2.495   2.513  11.847 -0.1737 -0.3760 -0.5261
19718TIP3    H180569   2.558   2.472  11.788 -1.3911 -1.2337 -1.2543
19718TIP3    H280570   2.523   2.605  11.852  1.0253 -0.7101 -0.9596
19719TIP3   OH280571   2.582   3.132  13.028  0.5981  0.6695  0.3153
19719TIP3    H180572   2.502   3.113  13.077 -0.2648  0.1248 -1.2632
19719TIP3    H280573   2.631   3.050  13.028 -0.8862 -0.2724 -2.3953
19720TIP3   OH280574   2.566   5.275   2.628  0.1838  0.0027 -0.2186
19720TIP3    H180575   2.558   5.180   2.621 -1.6189  0.2133 -1.4411
19720TIP3    H280576   2.647   5.296   2.581  1.0425 -1.0089  0.8066
19721TIP3   OH280577   0.152   6.179  15.094 -0.6099  0.0130  0.5052
19721TIP3    H180578   0.146   6.117  15.167 -0.5192 -1.5453 -0.7969
19721TIP3    H280579   0.106   6.257  15.125 -0.3978 -0.5645  2.3052
19722TIP3   OH280580   3.690   2.028  16.009 -0.6242 -0.3028 -0.3249
19722TIP3    H180581   3.750   2.039  16.082  1.0026 -0.9371 -1.5345
19722TIP3    H280582   3.669   2.117  15.981 -1.3243 -0.0587  0.9372
19723TIP3   OH280583   4.067   2.386   4.723 -0.1651 -0.7605  0.0595
19723TIP3    H180584   4.118   2.332   4.782 -2.7766 -2.1176  1.1629
19723TIP3    H280585   4.089   2.476   4.748  1.3240 -1.3079  0.7776
19724TIP3   OH280586   3.522   2.302  16.278 -0.7250  0.3657 -0.0614
19724TIP3    H180587   3.503   2.301  16.184 -0.8078  1.4527 -0.0625
19724TIP3    H280588   3.598   2.360  16.286  0.6525 -1.4384  0.3036
19725TIP3   OH280589   1.199   3.669  16.877  0.3552 -0.3770 -0.0371
19725TIP3    H180590   1.213   3.665  16.783  0.3357 -0.0579 -0.0543
19725TIP3    H280591   1.136   3.740  16.889  0.7146 -0.1054  0.2516
19726TIP3   OH280592   1.493   5.145  13.566  0.5114 -0.3135  0.2836
19726TIP3    H180593   1.533   5.230  13.546  1.4296 -0.4037  1.6480
19726TIP3    H280594   1.399   5.158  13.550  1.0434 -0.0237 -2.7051
19727TIP3   OH280595   4.674   3.075  11.119  0.1015  0.1428 -0.0097
19727TIP3    H180596   4.712   3.095  11.033  0.7043  2.2358  0.6978
19727TIP3    H280597   4.622   3.153  11.141  0.8271  0.1033  1.9843
19728TIP3   OH280598   1.006   1.788   3.918 -0.2161 -0.6344 -0.1466
19728TIP3    H180599   0.998   1.697   3.890 -0.8400 -0.3778 -0.8251
19728TIP3    H280600   0.992   1.786   4.013  4.3330 -1.8454  0.6127
19729TIP3   OH280601   2.816   4.761  14.351  0.4680  0.1824 -0.1928
19729TIP3    H180602   2.788   4.670  14.344 -0.5861  0.5746 -1.1323
19729TIP3    H280603   2.911   4.757  14.343  0.4407 -0.8464 -0.0844
19730TIP3   OH280604   2.865   6.350   4.382  0.1837  0.2905  0.3608
19730TIP3    H180605   2.954   6.342   4.417  0.9465  3.2091 -0.7819
19730TIP3    H280606   2.843   6.261   4.354  2.4361 -0.6261  1.3536
19731TIP3   OH280607   3.869   1.359  15.004 -0.3786 -0.5705  0.1643
19731TIP3    H180608   3.801   1.424  15.020  0.3978 -0.0025  1.2020
19731TIP3    H280609   3.917   1.353  15.087  1.4973 -0.1783 -0.8607
19732TIP3   OH280610   4.882   2.937   1.383 -0.5623 -0.4916  0.0592
19732TIP3    H180611   4.955   2.954   1.443 -1.1763  2.5426  0.0342
19732TIP3    H280612   4.916   2.962   1.297 -1.3793  0.2264 -0.0574
19733TIP3   OH280613   1.428   4.860   3.958  0.1479  0.5766  0.0796
19733TIP3    H180614   1.344   4.900   3.937  0.8275  1.2225 -1.4582
19733TIP3    H280615   1.407   4.795   4.025 -1.7362  0.0021 -1.0255
19734TIP3   OH280616   5.037   6.556   3.651  0.6343  0.1923  0.1319
19734TIP3    H180617   5.005   6.616   3.718 -2.1343 -0.0853 -0.8823
19734TIP3    H280618   5.085   6.489   3.700  0.4048  1.1052  1.6277
19735TIP3   OH280619   5.325   6.677   0.162 -0.2956  0.2597 -0.2650
19735TIP3    H180620   5.330   6.600   0.218 -0.3730 -1.3320 -2.3968
19735TIP3    H280621   5.235   6.708   0.172 -0.0971  0.4452  1.0441
19736TIP3   OH280622   4.387   0.037   4.648 -0.3946 -0.0413  0.5031
19736TIP3    H180623   4.368   0.107   4.710 -1.1599  1.2250 -1.1144
19736TIP3    H280624   4.411   0.082   4.567 -0.2889 -1.6421 -0.3890
19737TIP3   OH280625   2.792   1.391   4.465 -0.5517  0.2401  0.3177
19737TIP3    H180626   2.821   1.475   4.502  0.0399  0.0238  0.3441
19737TIP3    H280627   2.738   1.353   4.534 -1.3904  0.9058  0.0444
19738TIP3   OH280628   0.068   4.180   1.197  0.3012 -0.1472  0.7037
19738TIP3    H180629   0.036   4.091   1.214 -1.9118  0.3275 -0.6679
19738TIP3    H280630   0.048   4.229   1.277 -0.6911 -0.3260  0.5702
19739TIP3   OH280631   5.171   0.830   4.070  0.0372 -0.0766  0.0814
19739TIP3    H180632   5.235   0.897   4.045 -0.9757  0.8364 -0.0861
19739TIP3    H280633   5.194   0.755   4.016 -0.3340  0.9390 -1.5142
19740TIP3   OH280634   0.443   4.326   0.078 -0.4967  0.1598  0.6816
19740TIP3    H180635   0.520   4.380   0.060 -0.4777  0.3161  1.2200
19740TIP3    H280636   0.410   4.301  -0.009 -0.2116  0.6174  0.4388
19741TIP3   OH280637   5.331   3.028  11.421 -0.4188  0.0457 -0.2455
19741TIP3    H180638   5.303   3.069  11.339 -2.2705 -0.0191  0.3444
19741TIP3    H280639   5.291   2.941  11.420  0.1566 -0.2340  0.4048
19742TIP3   OH280640   2.076   5.503   4.453  0.1552  0.1991  0.8614
19742TIP3    H180641   2.084   5.483   4.547  0.6805 -0.9093  0.5965
19742TIP3    H280642   2.087   5.418   4.410  0.4584  0.7796 -0.2290
19743TIP3   OH280643   0.382   4.421   1.453  0.0562 -0.0337  0.0190
19743TIP3    H180644   0.411   4.510   1.435 -3.0212  1.3384  1.4762
19743TIP3    H280645   0.436   4.393   1.527  2.0493  0.0228 -1.3719
19744TIP3   OH280646   1.529   4.769  13.994  0.0015  0.0661 -0.7961
19744TIP3    H180647   1.622   4.757  14.015  0.0000 -0.8473 -1.2596
19744TIP3    H280648   1.495   4.824  14.064  0.6832 -0.3934 -0.0943
19745TIP3   OH280649   1.496   4.886  12.803 -0.3582  0.3733 -0.1870
19745TIP3    H180650   1.476   4.815  12.865 -1.6224 -0.1788 -1.2040
19745TIP3    H280651   1.586   4.869  12.776  0.0307  0.3350  1.1326
19746TIP3   OH280652   1.592   3.521  10.895 -0.3675 -0.7720 -0.2991
19746TIP3    H180653   1.609   3.428  10.912  0.3097 -0.3846  1.2826
19746TIP3    H280654   1.517   3.522  10.837 -0.2455 -2.3260 -0.4926
19747TIP3   OH280655   5.163   5.979  13.644  0.3492 -0.3221  0.0230
19747TIP3    H180656   5.224   5.905  13.642  1.0437  0.2014  1.1862
19747TIP3    H280657   5.219   6.056  13.634 -0.2779  0.0896 -0.2988
19748TIP3   OH280658   2.879   0.605  13.745 -0.4387  0.6395  0.1894
19748TIP3    H180659   2.806   0.612  13.683 -2.4187 -1.4538  2.1843
19748TIP3    H280660   2.839   0.574  13.826  2.6349 -0.2157  1.4626
19749TIP3   OH280661   1.613   4.872  11.414 -0.3187 -0.1736 -0.2192
19749TIP3    H180662   1.667   4.887  11.492 -0.7408 -0.4652  0.1299
19749TIP3    H280663   1.677   4.853  11.345  0.0721  0.3714 -0.0166
19750TIP3   OH280664   6.781   2.871   5.577  0.2299 -0.3160  0.6670
19750TIP3    H180665   6.748   2.955   5.545  3.2878  0.4751 -0.5363
19750TIP3    H280666   6.711   2.808   5.557 -1.8928  1.8235  1.1733
19751TIP3   OH280667   2.446   0.822   4.867  0.4844  0.4755  0.1920
19751TIP3    H180668   2.370   0.830   4.924 -0.2684  2.8942 -1.0999
19751TIP3    H280669   2.519   0.855   4.919  0.0086  1.5304  0.1967
19752TIP3   OH280670   2.635   2.171  15.577 -0.6881  0.0273 -0.3755
19752TIP3    H180671   2.577   2.247  15.567 -0.1856  0.4768  0.1382
19752TIP3    H280672   2.696   2.196  15.647  0.0026 -0.5191 -0.7775
19753TIP3   OH280673   2.178   1.204   5.462 -0.2210  0.2213 -0.1206
19753TIP3    H180674   2.231   1.261   5.405  0.7188 -1.1180 -0.6327
19753TIP3    H280675   2.208   1.224   5.550  1.7022 -1.0213 -0.4516
19754TIP3   OH280676   4.815   6.487   5.562  0.2971 -0.2396 -0.2539
19754TIP3    H180677   4.757   6.498   5.638  1.1950 -0.6099  0.4989
19754TIP3    H280678   4.825   6.575   5.527  1.3712  0.2486  1.1960
19755TIP3   OH280679   3.192   5.592  13.895  0.1430  0.2469  0.0003
19755TIP3    H180680   3.144   5.600  13.978 -1.1440 -1.5453 -0.5497
19755TIP3    H280681   3.257   5.663  13.898  0.2155  0.1112  2.6109
19756TIP3   OH280682   3.626   6.768   2.895  0.6112 -0.1993  0.4647
19756TIP3    H180683   3.532   6.774   2.909  0.6124  0.5270  0.1466
19756TIP3    H280684   3.635   6.725   2.810  0.5702 -0.1997  0.4612
19757TIP3   OH280685   2.128   6.611   5.136 -0.0821 -0.0114  0.3103
19757TIP3    H180686   2.103   6.690   5.087 -1.1501 -0.6790 -0.2315
19757TIP3    H280687   2.127   6.638   5.228 -1.2877  0.3893  0.1865
19758TIP3   OH280688   0.731   6.299  13.569 -0.3954 -0.1496 -0.1432
19758TIP3    H180689   0.761   6.288  13.478  0.3854  1.1662 -0.0567
19758TIP3    H280690   0.676   6.222  13.585 -0.8880 -0.1871 -1.8677
19759TIP3   OH280691   2.769   1.011  12.922  0.6800  0.0215 -0.4370
19759TIP3    H180692   2.816   0.941  12.967 -0.9451 -0.8162 -0.0191
19759TIP3    H280693   2.755   0.977  12.834 -1.6646 -0.9281  0.2781
19760TIP3   OH280694   4.056   5.560  16.353  1.1008 -0.0695  0.1132
19760TIP3    H180695   4.102   5.536  16.433  0.2685 -1.0896  0.3069
19760TIP3    H280696   3.982   5.614  16.383  1.2884  0.2763 -0.0467
19761TIP3   OH280697   3.494   5.534  16.921  0.6579 -0.2004  0.5826
19761TIP3    H180698   3.525   5.620  16.949  0.9532  0.0106 -0.3792
19761TIP3    H280699   3.521   5.475  16.991  1.2044  0.3498  0.8464
19762TIP3   OH280700   1.411   4.916   0.182  0.0275  0.1117  0.2353
19762TIP3    H180701   1.401   4.861   0.104 -0.9173  1.2445 -0.4652
19762TIP3    H280702   1.506   4.924   0.193  0.1722 -0.8664 -0.2155
19763TIP3   OH280703   1.255   3.094  15.409 -0.1044 -0.9202  0.2578
19763TIP3    H180704   1.182   3.132  15.360 -1.2399  0.1039  2.6328
19763TIP3    H280705   1.273   3.011  15.366 -2.4305 -0.9941 -0.6336
19764TIP3   OH280706   4.248   1.101   0.692  0.0500  1.0226 -0.1982
19764TIP3    H180707   4.182   1.062   0.635  1.2778 -2.0378  0.3815
19764TIP3    H280708   4.198   1.138   0.764 -1.0769 -1.2643  0.2339
19765TIP3   OH280709   1.688   5.226   2.369 -0.6554  0.3889 -0.0525
19765TIP3    H180710   1.604   5.272   2.368 -0.8938  0.0434  1.9741
19765TIP3    H280711   1.749   5.289   2.407 -0.3366  0.0970 -0.0769
19766TIP3   OH280712   5.880   3.211  12.855  0.3536 -0.4464  0.4189
19766TIP3    H180713   5.933   3.266  12.798  0.4121 -0.7309  0.1981
19766TIP3    H280714   5.904   3.121  12.831 -0.0438 -0.5717  0.4897
19767TIP3   OH280715   6.412   5.054   5.335 -0.0756 -0.4882  0.8031
19767TIP3    H180716   6.437   4.998   5.409  0.3141  0.5980  1.4970
19767TIP3    H280717   6.333   5.013   5.300  0.6391 -1.9263  0.8091
19768TIP3   OH280718   6.639   0.523  12.607  0.2292 -0.1098  0.2525
19768TIP3    H180719   6.695   0.449  12.628  0.4316 -0.4867 -1.5184
19768TIP3    H280720   6.692   0.578  12.550 -0.4460  0.6381  0.3401
19769TIP3   OH280721   6.362   0.402  12.812  0.1930 -0.4300 -0.1265
19769TIP3    H180722   6.327   0.427  12.726 -0.7674  0.0015  0.3862
19769TIP3    H280723   6.350   0.307  12.815 -0.3112 -0.3753 -0.2437
19770TIP3   OH280724   3.902   5.590   0.955  0.5596 -0.0195  0.3976
19770TIP3    H180725   3.950   5.626   1.029  0.0648  1.4416  0.0323
19770TIP3    H280726   3.869   5.667   0.908 -0.5620 -0.9594 -0.3901
19771TIP3   OH280727   0.871   6.551  15.285  0.0889  0.1294  0.4295
19771TIP3    H180728   0.926   6.623  15.316 -1.4779  0.4021  2.7987
19771TIP3    H280729   0.827   6.586  15.208 -0.7928  1.8573  1.6563
19772TIP3   OH280730   6.604   2.749   5.330 -0.0275  0.1656  0.5195
19772TIP3    H180731   6.640   2.664   5.305 -1.9101 -0.3159 -0.6184
19772TIP3    H280732   6.556   2.732   5.411 -1.5981 -0.1782 -0.4606
19773TIP3   OH280733   0.539   5.909   4.733 -0.0306 -0.1347  0.0413
19773TIP3    H180734   0.521   6.003   4.724  0.2798  0.0866  1.7280
19773TIP3    H280735   0.469   5.876   4.789  0.1033 -0.8390 -0.1945
19774TIP3   OH280736   3.047   1.202  15.156  0.1477  0.3743  0.5383
19774TIP3    H180737   3.103   1.268  15.197 -0.7269  1.2804  0.3143
19774TIP3    H280738   2.978   1.186  15.220 -0.6613  1.0475 -0.1503
19775TIP3   OH280739   1.187   0.405   5.847 -0.0179 -0.2587  0.9416
19775TIP3    H180740   1.149   0.350   5.916  0.5076 -0.6889  0.8912
19775TIP3    H280741   1.170   0.495   5.876  0.8772 -0.4256  2.0056
19776TIP3   OH280742   1.381   5.937   0.165 -0.0900 -0.0874 -0.7966
19776TIP3    H180743   1.409   5.890   0.086 -1.8753  1.4224 -2.3779
19776TIP3    H280744   1.405   6.028   0.148 -0.4502  0.2400  0.4386
19777TIP3   OH280745   3.269   1.502  16.822  0.5887  0.1584 -0.0079
19777TIP3    H180746   3.315   1.584  16.807  0.4751  0.2036 -0.1136
19777TIP3    H280747   3.319   1.438  16.771  2.0182 -0.2751  1.9099
19778TIP3   OH280748   3.091   4.477  10.938 -0.0913  0.4444 -0.0489
19778TIP3    H180749   2.996   4.490  10.932 -0.2109 -0.7841 -1.0918
19778TIP3    H280750   3.102   4.403  10.997  0.2009  0.4290 -0.1195
19779TIP3   OH280751   5.544   4.942   0.314 -0.1209  0.8993  0.0177
19779TIP3    H180752   5.609   4.981   0.373  1.1576 -0.8118 -0.2016
19779TIP3    H280753   5.470   5.002   0.316  0.8170  2.0376  1.5946
19780TIP3   OH280754   1.550   2.259  11.623 -0.1642  0.0091 -0.1524
19780TIP3    H180755   1.542   2.251  11.718 -1.8716 -1.9864 -0.4134
19780TIP3    H280756   1.638   2.227  11.604 -0.4161 -1.2105  0.6310
19781TIP3   OH280757   3.890   6.710  15.514  0.7106 -0.3488 -0.4901
19781TIP3    H180758   3.901   6.616  15.530 -3.2486 -1.0954 -1.7469
19781TIP3    H280759   3.934   6.725  15.430  2.2773 -0.8307  0.2252
19782TIP3   OH280760   5.110   0.519  13.088  0.0589 -0.2187  0.3068
19782TIP3    H180761   5.020   0.509  13.058  0.6469 -1.8987 -0.9846
19782TIP3    H280762   5.107   0.592  13.150 -2.0205  0.3219 -0.3914
19783TIP3   OH280763   0.795   3.503  14.243 -0.2139  0.6980 -0.5102
19783TIP3    H180764   0.837   3.573  14.194  0.5369  1.5597  1.3271
19783TIP3    H280765   0.706   3.535  14.259 -0.5788  0.2535 -1.6191
19784TIP3   OH280766   1.891   5.177  13.466  0.0904  0.1838  0.3829
19784TIP3    H180767   1.879   5.182  13.561  1.6579  0.2181  0.5943
19784TIP3    H280768   1.856   5.092  13.441  0.2742 -0.0939  1.0806
19785TIP3   OH280769   3.256   4.325   1.431  0.1014  0.2201 -0.4278
19785TIP3    H180770   3.230   4.393   1.369  1.4442  0.6034 -0.5902
19785TIP3    H280771   3.259   4.370   1.515  0.5631  0.2498 -0.4627
19786TIP3   OH280772   4.703   1.743   3.340 -0.5014 -0.2589 -0.2003
19786TIP3    H180773   4.772   1.746   3.406 -0.3645 -2.3920 -0.2244
19786TIP3    H280774   4.745   1.706   3.263 -1.1546  0.3811 -0.8662
19787TIP3   OH280775   2.688   5.132  15.853 -0.6811 -0.5424  0.4073
19787TIP3    H180776   2.780   5.104  15.856 -0.5305  0.0395  1.6102
19787TIP3    H280777   2.641   5.058  15.815  0.4733 -0.3344 -1.4540
19788TIP3   OH280778   3.687   4.772  14.638 -0.1256 -0.3509 -0.1406
19788TIP3    H180779   3.694   4.760  14.733  1.8294 -1.3584 -0.3990
19788TIP3    H280780   3.632   4.699  14.609  0.2805 -0.7398  0.0633
19789TIP3   OH280781   0.396   0.308   3.820  0.0239  0.1447  0.0537
19789TIP3    H180782   0.378   0.395   3.783  0.3006  0.6586  1.1072
19789TIP3    H280783   0.392   0.321   3.915  0.5817 -0.8909  0.2279
19790TIP3   OH280784   2.344   1.816   4.495 -0.0408  0.1490 -0.4283
19790TIP3    H180785   2.379   1.729   4.511 -0.3353  0.1671  0.3184
19790TIP3    H280786   2.422   1.872   4.492  0.2218 -0.2709 -1.8535
19791TIP3   OH280787   2.467   4.799  11.129  0.6392 -0.1317 -0.2046
19791TIP3    H180788   2.425   4.877  11.167 -1.1217 -0.3316 -1.6754
19791TIP3    H280789   2.525   4.835  11.061  2.0044  0.0657  1.0416
19792TIP3   OH280790   4.076   0.730   1.079 -0.0937 -0.1055 -0.6950
19792TIP3    H180791   4.126   0.748   0.999 -2.1584  4.1547 -1.2033
19792TIP3    H280792   4.010   0.667   1.052  1.1865 -1.1238 -1.5315
19793TIP3   OH280793   6.225   1.121   0.254  0.0809  0.4001 -0.0252
19793TIP3    H180794   6.199   1.154   0.340 -2.0278 -1.3466  0.0415
19793TIP3    H280795   6.206   1.193   0.193  0.3945  1.1746  0.7841
19794TIP3   OH280796   4.963   6.557  13.586 -0.4534  0.2872 -0.3024
19794TIP3    H180797   4.963   6.544  13.492  0.2534  1.0012 -0.3999
19794TIP3    H280798   4.973   6.469  13.623 -0.3634  0.0518 -0.8944
19795TIP3   OH280799   3.258   1.364  12.300 -0.9765  0.0086 -0.3102
19795TIP3    H180800   3.339   1.321  12.327 -1.2815 -0.5039 -0.2139
19795TIP3    H280801   3.283   1.420  12.227 -1.0276 -2.1245 -1.9858
19796TIP3   OH280802   1.423   0.460   2.659  0.3058  0.0314  0.1149
19796TIP3    H180803   1.343   0.448   2.710  0.7304  0.4736  0.8743
19796TIP3    H280804   1.472   0.378   2.671  0.1218 -0.1128 -0.0969
19797TIP3   OH280805   2.563   4.653  13.601 -0.1236  0.0289  0.2673
19797TIP3    H180806   2.621   4.706  13.655 -0.1906 -1.0704  1.4540
19797TIP3    H280807   2.605   4.651  13.515  0.2462  1.3773  0.4051
19798TIP3   OH280808   0.434   4.200  13.826  0.1803 -0.5135  0.1505
19798TIP3    H180809   0.350   4.167  13.858 -0.3501 -0.0028 -0.6975
19798TIP3    H280810   0.423   4.205  13.731  0.7234  0.7811  0.1451
19799TIP3   OH280811   5.681   0.384   5.369  0.0399  0.0272 -0.1367
19799TIP3    H180812   5.714   0.304   5.408  1.5490  0.9011  0.4063
19799TIP3    H280813   5.724   0.390   5.284 -0.5228 -0.0362 -0.4310
19800TIP3   OH280814   1.277   5.917  11.068  0.1915  0.3486  0.2580
19800TIP3    H180815   1.281   5.933  11.162 -0.5589  0.3376  0.3003
19800TIP3    H280816   1.310   5.997  11.028  2.5121 -0.4282  0.5541
19801TIP3   OH280817   2.422   4.310  14.609 -0.8426  0.1477  0.2876
19801TIP3    H180818   2.422   4.252  14.533 -0.5421  1.1515 -0.5072
19801TIP3    H280819   2.511   4.304  14.644 -0.3753  1.2149 -0.6728
19802TIP3   OH280820   3.204   4.946  12.419 -0.5887 -0.2644  0.4518
19802TIP3    H180821   3.294   4.967  12.394 -1.3048  0.9063 -1.2667
19802TIP3    H280822   3.202   4.959  12.514  1.8880 -3.5950  1.0222
19803TIP3   OH280823   2.321   4.456  14.194  0.4961 -0.0807 -0.3883
19803TIP3    H180824   2.383   4.510  14.145  1.0213  2.4409  2.9020
19803TIP3    H280825   2.377   4.397  14.245  0.0636 -0.1039  0.0562
19804TIP3   OH280826   3.867   4.335   6.288  0.5331  0.3961  0.7108
19804TIP3    H180827   3.809   4.402   6.326  0.3121  0.8181 -0.3431
19804TIP3    H280828   3.902   4.376   6.209  0.4123 -0.7241  0.0587
19805TIP3   OH280829   4.185   0.725  15.771  0.1368 -0.4163  0.6853
19805TIP3    H180830   4.175   0.642  15.725 -1.1145 -0.6856  1.4334
19805TIP3    H280831   4.199   0.701  15.863 -3.3290  0.2365  1.4429
19806TIP3   OH280832   5.607   1.802   1.947 -0.0812  0.8214 -0.2613
19806TIP3    H180833   5.599   1.747   1.869 -1.8881 -0.4727  0.8037
19806TIP3    H280834   5.686   1.854   1.931 -0.7036  0.9749 -3.2010
19807TIP3   OH280835   5.320   2.763  15.824  0.1498  0.2501 -0.4070
19807TIP3    H180836   5.359   2.782  15.739  2.8624 -1.2744  0.4221
19807TIP3    H280837   5.331   2.843  15.874  1.9619 -0.0478 -0.3032
19808TIP3   OH280838   3.113   0.932   3.379 -0.2561  0.1167 -0.6204
19808TIP3    H180839   3.121   0.849   3.427  0.9154 -0.7905 -2.3461
19808TIP3    H280840   3.202   0.967   3.377 -0.1192 -0.3047 -2.8817
19809TIP3   OH280841   0.462   0.876   5.195  0.0162  0.6783 -0.0613
19809TIP3    H180842   0.416   0.867   5.278  0.5848 -1.0874  0.0740
19809TIP3    H280843   0.443   0.795   5.147  1.9317  0.4568 -0.5127
19810TIP3   OH280844   5.549   0.665  12.472 -0.1974  0.5245 -0.5471
19810TIP3    H180845   5.642   0.663  12.493 -0.3171 -1.4460 -0.1213
19810TIP3    H280846   5.512   0.589  12.517 -2.8228  3.6136  2.8318
19811TIP3   OH280847   1.827   5.125  14.205  0.0726 -0.0850 -0.2649
19811TIP3    H180848   1.805   5.205  14.157 -0.3743 -0.5685 -0.8754
19811TIP3    H280849   1.743   5.095  14.241 -0.4324 -2.1852 -2.9732
19812TIP3   OH280850   6.203   3.109   2.115  0.0383  0.2894  0.0921
19812TIP3    H180851   6.185   3.143   2.203  1.0702  1.3538 -0.1007
19812TIP3    H280852   6.120   3.121   2.068  0.3120  2.3189  0.1078
19813TIP3   OH280853   3.852   5.329   3.726  0.0741 -0.4602  0.2379
19813TIP3    H180854   3.775   5.344   3.670  0.5153 -0.4412 -0.3687
19813TIP3    H280855   3.911   5.278   3.671  0.4349 -0.6008  0.7592
19814TIP3   OH280856   6.263   5.110  11.275  0.1135 -0.2933  0.0187
19814TIP3    H180857   6.287   5.038  11.216  1.3258 -0.1883  0.3688
19814TIP3    H280858   6.300   5.188  11.233 -1.4983  0.1812 -0.5402
19815TIP3   OH280859   0.922   5.878   3.427 -0.2712  0.2250 -0.4782
19815TIP3    H180860   0.889   5.910   3.511  0.4561 -0.6426  0.1464
19815TIP3    H280861   0.900   5.947   3.364 -0.8517  0.8579  0.4177
19816TIP3   OH280862   1.077   2.077  14.819  0.0056  0.2909  0.0137
19816TIP3    H180863   1.019   2.066  14.895  1.2271 -2.9805  0.5334
19816TIP3    H280864   1.165   2.063  14.854  0.6379 -0.6092 -1.8912
19817TIP3   OH280865   3.580   3.940  12.726  0.2545  0.3202 -0.3324
19817TIP3    H180866   3.493   3.904  12.708  0.1002  0.3800  0.2838
19817TIP3    H280867   3.640   3.866  12.711  0.0226  0.0550  0.0527
19818TIP3   OH280868   2.736   1.695  13.249  0.6365  0.1484 -0.1018
19818TIP3    H180869   2.729   1.605  13.217 -3.3890  0.5427 -0.6024
19818TIP3    H280870   2.773   1.744  13.175  1.5402 -0.8122 -0.3023
19819TIP3   OH280871   3.777   4.975  11.287  0.0239 -0.3649 -0.3779
19819TIP3    H180872   3.691   4.978  11.246 -0.2115  0.4218  0.1856
19819TIP3    H280873   3.775   5.041  11.356  0.9084 -0.6835 -0.0283
19820TIP3   OH280874   4.611   2.898  12.811  0.8077  0.2226  0.4361
19820TIP3    H180875   4.621   2.850  12.893  0.5208 -0.3360  0.1471
19820TIP3    H280876   4.518   2.886  12.788  0.3481  2.1950  1.1591
19821TIP3   OH280877   4.746   0.333  16.201 -0.2145 -0.3542  0.1189
19821TIP3    H180878   4.790   0.320  16.117  0.5809 -1.0877  0.6345
19821TIP3    H280879   4.786   0.413  16.236 -0.9344  0.2546 -0.4415
19822TIP3   OH280880   2.749   6.228  12.494  0.0500  0.2946 -0.2425
19822TIP3    H180881   2.738   6.294  12.563  0.5580  1.8935 -1.6404
19822TIP3    H280882   2.677   6.245  12.433 -0.6137 -1.3432  0.0646
19823TIP3   OH280883   6.739   3.354  11.763 -0.5210  0.6025 -0.3758
19823TIP3    H180884   6.755   3.387  11.852 -0.1374 -0.7884  0.0733
19823TIP3    H280885   6.820   3.372  11.716  0.1584 -0.8656  0.2226
19824TIP3   OH280886   1.045   3.393   0.126 -0.4561 -0.9496 -0.4753
19824TIP3    H180887   0.997   3.456   0.180 -0.7074 -0.3099 -1.4331
19824TIP3    H280888   1.108   3.353   0.186  0.7523  1.3033 -0.2070
19825TIP3   OH280889   4.648   4.250  14.315 -0.2572 -0.3534  0.5010
19825TIP3    H180890   4.600   4.240  14.397  2.7667  1.3277  2.6143
19825TIP3    H280891   4.705   4.173  14.311  0.7748  0.3615  0.9041
19826TIP3   OH280892   3.420   2.029  15.589  0.3895  0.0385 -0.6560
19826TIP3    H180893   3.496   2.028  15.647  0.9871 -2.2985 -1.4397
19826TIP3    H280894   3.365   2.100  15.622  0.9393 -0.9575  2.4916
19827TIP3   OH280895   4.717   0.043   1.433  0.2430  0.2483 -0.3321
19827TIP3    H180896   4.791  -0.014   1.455 -1.8577 -1.9284  1.3358
19827TIP3    H280897   4.640  -0.010   1.452 -1.7923  3.4533  0.6254
19828TIP3   OH280898   5.315   2.206   2.959 -0.4235  0.1015  0.0617
19828TIP3    H180899   5.393   2.257   2.981  0.4005 -0.7207 -0.9368
19828TIP3    H280900   5.254   2.225   3.030  1.0966 -0.1331  1.4804
19829TIP3   OH280901   5.436   0.867  11.608  0.2291 -0.3812  0.2817
19829TIP3    H180902   5.466   0.936  11.667 -0.9678 -0.1210  0.6117
19829TIP3    H280903   5.467   0.893  11.522 -1.1057  1.1344  0.2310
19830TIP3   OH280904   5.510   0.382   2.323  0.6706  0.4346  0.5524
19830TIP3    H180905   5.472   0.402   2.238 -0.1650 -0.1502  0.7890
19830TIP3    H280906   5.601   0.357   2.303  0.6127  0.7361 -0.1113
19831TIP3   OH280907   0.932   3.702   2.427  0.9656  0.3189  0.5444
19831TIP3    H180908   1.019   3.714   2.465  2.7122 -1.9878 -2.4384
19831TIP3    H280909   0.929   3.610   2.403 -1.4276  0.8406 -1.3903
19832TIP3   OH280910   2.222   2.775   4.300 -0.2027 -0.0541 -0.0731
19832TIP3    H180911   2.224   2.820   4.384 -1.2480 -0.1492  0.0073
19832TIP3    H280912   2.268   2.692   4.315  0.0532  0.1483  0.2634
19833TIP3   OH280913   4.255   5.146   5.183  0.5268  0.0936 -0.0332
19833TIP3    H180914   4.253   5.060   5.139 -0.4622  1.2298 -2.3171
19833TIP3    H280915   4.330   5.191   5.142 -0.8780  1.4521 -1.1568
19834TIP3   OH280916   6.067   2.879   5.711 -0.1572 -0.1171 -0.1191
19834TIP3    H180917   6.149   2.896   5.757 -0.0248 -0.6395 -0.1505
19834TIP3    H280918   6.051   2.958   5.660  0.3304 -0.0124 -0.1158
19835TIP3   OH280919   0.722   6.314  15.947  0.1102 -0.1302 -0.1743
19835TIP3    H180920   0.806   6.285  15.910  0.2530 -1.1482  0.9000
19835TIP3    H280921   0.726   6.410  15.943  1.2580 -0.1700 -0.3022
19836TIP3   OH280922   6.030   4.839   1.974 -0.1876 -0.0472 -0.1131
19836TIP3    H180923   6.034   4.761   2.030 -0.3977 -1.0236 -1.4289
19836TIP3    H280924   6.000   4.806   1.890  0.5368  1.3366 -0.9270
19837TIP3   OH280925   2.734   5.089  14.689  0.4466  0.7186  0.1858
19837TIP3    H180926   2.724   5.164  14.747 -1.0683  0.8787 -0.2553
19837TIP3    H280927   2.663   5.030  14.713  1.1412 -0.2107 -0.0124
19838TIP3   OH280928   5.891   1.754   3.486  0.2793  0.2254 -0.0281
19838TIP3    H180929   5.802   1.753   3.522  0.3150 -2.7712  0.1028
19838TIP3    H280930   5.934   1.827   3.530 -1.3239  0.0144  1.9501
19839TIP3   OH280931   2.032   2.555  16.039  0.0162  0.4757 -0.2922
19839TIP3    H180932   2.014   2.620  15.972  0.7260 -0.0532 -1.0085
19839TIP3    H280933   1.966   2.571  16.107  1.8785  3.7849  0.8876
19840TIP3   OH280934   1.808   5.468  13.805  0.1840 -0.1565 -0.2334
19840TIP3    H180935   1.757   5.547  13.824  0.5500 -0.3723  1.7666
19840TIP3    H280936   1.899   5.497  13.806  0.2897 -0.4950 -0.0103
19841TIP3   OH280937   6.358   5.322  11.124  0.2510 -0.0040  0.4002
19841TIP3    H180938   6.309   5.271  11.060 -3.1819  2.3712  0.9567
19841TIP3    H280939   6.406   5.387  11.072 -0.1576  0.0175  0.0498
19842TIP3   OH280940   3.608   5.236   2.135 -0.2087  0.4823 -0.5668
19842TIP3    H180941   3.521   5.273   2.125  0.1021  1.0971 -1.0211
19842TIP3    H280942   3.667   5.311   2.135  0.1647  0.2412  1.8271
19843TIP3   OH280943   4.713   0.849   1.166  0.3243 -0.2605  0.5114
19843TIP3    H180944   4.770   0.910   1.119  0.3296 -0.0788  0.7506
19843TIP3    H280945   4.712   0.770   1.112 -0.0807  0.1240 -0.0537
19844TIP3   OH280946   6.231   6.056  17.061  0.3635 -0.5612  0.5762
19844TIP3    H180947   6.198   6.144  17.041 -0.6895 -1.0329  0.2113
19844TIP3    H280948   6.225   6.008  16.979  1.3502 -0.8605  0.6695
19845TIP3   OH280949   0.757   0.540  15.690  0.1464 -0.0028  0.3310
19845TIP3    H180950   0.697   0.561  15.762  0.7937  1.5331  0.4241
19845TIP3    H280951   0.826   0.488  15.731  0.3393  0.5844  0.7481
19846TIP3   OH280952   4.089   6.612   2.182 -0.3272  0.5068  0.0243
19846TIP3    H180953   4.133   6.632   2.265 -0.9835 -1.0446  0.7627
19846TIP3    H280954   4.161   6.602   2.119  0.2288  0.8426  0.5920
19847TIP3   OH280955   4.329   3.854   6.129  0.3763  0.0428 -0.1429
19847TIP3    H180956   4.275   3.909   6.072  1.4278 -0.2883 -1.4868
19847TIP3    H280957   4.267   3.814   6.189 -0.5441  1.7764  0.0934
19848TIP3   OH280958   2.945   3.808  11.923  0.2570 -0.1871 -0.5800
19848TIP3    H180959   2.897   3.831  12.003 -1.7494 -0.2667 -1.7307
19848TIP3    H280960   3.012   3.877  11.916  0.5258 -0.2239  1.1877
19849TIP3   OH280961   5.103   4.461  12.076  0.6181  0.3810 -0.8295
19849TIP3    H180962   5.017   4.453  12.117  0.1049  1.0678 -1.7716
19849TIP3    H280963   5.162   4.478  12.149 -0.0692  0.1166 -0.2012
19850TIP3   OH280964   4.475   5.641  14.294  0.2322  0.0221  0.4789
19850TIP3    H180965   4.550   5.584  14.312 -0.0737 -0.8048 -0.8294
19850TIP3    H280966   4.493   5.679  14.208 -0.5914  0.2501  0.4045
19851TIP3   OH280967   3.115   0.848   1.962  1.0009 -0.2749 -0.5070
19851TIP3    H180968   3.152   0.811   1.882  1.3580 -0.6597 -0.1688
19851TIP3    H280969   3.180   0.914   1.989  0.9788 -0.2882 -0.4235
19852TIP3   OH280970   2.325   0.364   0.546  0.0302  0.4806 -0.2420
19852TIP3    H180971   2.364   0.444   0.582  0.5399  0.6774 -1.2368
19852TIP3    H280972   2.388   0.332   0.483 -0.4171 -0.4278 -0.2415
19853TIP3   OH280973   1.441   5.928   4.787 -0.4216  0.0576  0.3957
19853TIP3    H180974   1.499   5.921   4.863  1.1453  0.3973 -0.7240
19853TIP3    H280975   1.420   5.837   4.765  1.3604 -0.1990 -0.3910
19854TIP3   OH280976   5.092   2.442   2.374 -0.2522 -0.1530 -0.3858
19854TIP3    H180977   5.171   2.413   2.419 -0.4064  0.1375  0.0833
19854TIP3    H280978   5.060   2.365   2.327 -0.8794 -0.8620  1.1495
19855TIP3   OH280979   3.565   4.458   3.910  1.2246  0.0570  0.4842
19855TIP3    H180980   3.531   4.512   3.838 -1.7437 -0.6619  1.2596
19855TIP3    H280981   3.554   4.368   3.879  0.9161 -0.2257  1.4052
19856TIP3   OH280982   0.333   0.931   3.941  0.2150 -0.1816  0.2075
19856TIP3    H180983   0.314   0.837   3.951  2.0672 -0.4275  1.7405
19856TIP3    H280984   0.378   0.955   4.021  0.7737  1.7785 -0.6669
19857TIP3   OH280985   2.852   3.657   1.636 -0.0067 -0.3328 -0.5769
19857TIP3    H180986   2.864   3.573   1.592 -0.0722 -0.1984 -0.8541
19857TIP3    H280987   2.884   3.643   1.725  0.3084 -0.5512 -0.7246
19858TIP3   OH280988   4.914   0.740  10.932  0.1839 -0.5564 -0.1576
19858TIP3    H180989   5.009   0.727  10.936  0.1098 -1.1294 -0.1616
19858TIP3    H280990   4.886   0.687  10.858 -0.0838 -0.0451 -0.4188
19859TIP3   OH280991   2.160   6.492  15.915 -0.1045  0.5373 -0.3549
19859TIP3    H180992   2.254   6.478  15.922 -0.4054 -1.7595 -0.2053
19859TIP3    H280993   2.145   6.520  15.825  0.7014  0.6972 -0.4360
19860TIP3   OH280994   0.818   3.281   0.541 -0.5043 -0.4024 -0.0025
19860TIP3    H180995   0.767   3.235   0.608 -0.7369 -0.1186  0.0169
19860TIP3    H280996   0.905   3.241   0.545 -0.3321  0.0639  0.9053
19861TIP3   OH280997   6.697   3.991  11.754  0.2594  0.1504  0.3666
19861TIP3    H180998   6.630   3.923  11.759  1.3456 -0.9841 -0.1883
19861TIP3    H280999   6.780   3.943  11.757  1.0412  1.4723  0.2759
19862TIP3   OH281000   5.679   6.517  11.098  0.3591  0.0144  0.2014
19862TIP3    H181001   5.714   6.433  11.128  2.4027  0.8809  0.3546
19862TIP3    H281002   5.752   6.559  11.053 -0.6283  1.7122  0.1048
19863TIP3   OH281003   4.515   1.959   1.886  0.4266  0.2582  0.3418
19863TIP3    H181004   4.483   2.024   1.824  0.1500 -0.1405  0.0685
19863TIP3    H281005   4.478   1.986   1.970 -0.2096  0.0854  0.1181
19864TIP3   OH281006   3.264   2.240   4.356  0.5018  0.2386  0.1159
19864TIP3    H181007   3.190   2.193   4.394  1.5553 -0.5321  1.2744
19864TIP3    H281008   3.341   2.192   4.387  1.4546  0.5102 -1.7821
19865TIP3   OH281009   0.447   5.308  14.541  0.4384 -0.1702  0.2112
19865TIP3    H181010   0.512   5.305  14.471 -1.3292 -0.4851 -1.4295
19865TIP3    H281011   0.426   5.217  14.558  0.0101 -0.0441  0.3634
19866TIP3   OH281012   2.338   0.830   4.612  0.0479 -0.0154 -0.4105
19866TIP3    H181013   2.390   0.839   4.692 -0.6828  0.2310  0.0436
19866TIP3    H281014   2.360   0.742   4.580 -0.0435 -0.3254  0.3482
19867TIP3   OH281015   4.387   0.603   1.094  0.0889 -0.3114  0.3023
19867TIP3    H181016   4.330   0.578   1.022  0.4446 -1.4942  0.4310
19867TIP3    H281017   4.334   0.593   1.172  0.4135 -1.2134  0.4043
19868TIP3   OH281018   1.094   4.319  14.409 -0.5091  0.2058  0.3750
19868TIP3    H181019   1.039   4.330  14.331 -0.9051  1.8401  0.8552
19868TIP3    H281020   1.035   4.284  14.475 -0.3906 -0.3405  0.1881
19869TIP3   OH281021   1.013   4.161   1.676 -0.3360 -0.1494 -0.2685
19869TIP3    H181022   1.099   4.163   1.635  0.2503  3.1715  0.9486
19869TIP3    H281023   0.972   4.244   1.650 -2.5641 -1.0108  0.3742
19870TIP3   OH281024   5.854   0.836  12.244 -0.2797  0.3935 -0.0598
19870TIP3    H181025   5.934   0.807  12.199 -0.5771 -0.1325 -0.2488
19870TIP3    H281026   5.877   0.833  12.337 -0.5224 -1.0939 -0.0423
19871TIP3   OH281027   0.855   5.230  13.480 -0.0837  0.1122  0.2213
19871TIP3    H181028   0.785   5.165  13.469  0.9183 -1.2462  1.5280
19871TIP3    H281029   0.894   5.208  13.565  0.8532  1.8857  0.2691
19872TIP3   OH281030   0.458   5.829   5.307  0.5618 -0.2860  0.0799
19872TIP3    H181031   0.455   5.826   5.403  3.1694  0.7017  0.2548
19872TIP3    H281032   0.548   5.856   5.288  0.3447 -1.3866 -2.6787
19873TIP3   OH281033   3.961   2.739   1.009 -0.1260  0.6312  0.3458
19873TIP3    H181034   4.046   2.697   0.999  0.1254  1.0605  0.6548
19873TIP3    H281035   3.978   2.831   0.989 -0.5611  0.6774  0.1972
19874TIP3   OH281036   3.727   2.213   2.939 -0.4491 -0.2993  0.4215
19874TIP3    H181037   3.814   2.185   2.910 -0.3335  1.4218 -0.9416
19874TIP3    H281038   3.695   2.140   2.992  1.0380 -1.7638 -0.6551
19875TIP3   OH281039   1.396   2.634  12.487 -0.4594 -0.0448 -0.4635
19875TIP3    H181040   1.377   2.704  12.425  1.2311 -0.8916 -1.9827
19875TIP3    H281041   1.482   2.658  12.524 -1.6618  0.7148  1.9627
19876TIP3   OH281042   4.454   5.972  16.481 -0.5134  0.7750  0.0754
19876TIP3    H181043   4.495   5.895  16.443 -0.6801  0.5500  0.3500
19876TIP3    H281044   4.480   6.044  16.424 -0.3659  0.5153 -0.1831
19877TIP3   OH281045   5.244   4.459  15.639  0.5405  0.1837 -0.3410
19877TIP3    H181046   5.321   4.432  15.688  0.7048 -0.0966 -0.7529
19877TIP3    H281047   5.278   4.489  15.555  0.2710  0.7832 -0.2378
19878TIP3   OH281048   6.255   5.320  15.437  0.0551 -0.8094  0.3641
19878TIP3    H181049   6.259   5.412  15.464  1.1620 -1.6374  3.3258
19878TIP3    H281050   6.170   5.311  15.395  0.5330  1.8946 -1.3157
19879TIP3   OH281051   2.864   4.080   0.143 -0.3339 -0.2909 -0.3762
19879TIP3    H181052   2.938   4.024   0.167  1.6002  1.6406 -1.6226
19879TIP3    H281053   2.868   4.153   0.206 -1.4195 -0.3736 -0.2061
19880TIP3   OH281054   2.324   5.306  10.457  0.3311 -0.0053  0.5620
19880TIP3    H181055   2.393   5.371  10.444  0.1509 -0.0499 -0.7156
19880TIP3    H281056   2.313   5.266  10.371 -0.2534 -1.0334  1.1143
19881TIP3   OH281057   4.139   5.325   2.023  0.4936 -0.0285  0.0226
19881TIP3    H181058   4.176   5.322   2.111  0.0473 -0.0247  0.2091
19881TIP3    H281059   4.191   5.392   1.978 -1.1638  2.0525  1.1370
19882TIP3   OH281060   2.719   2.853   1.278 -0.0571 -0.2331  0.0764
19882TIP3    H181061   2.689   2.941   1.256  1.7932  0.2943 -0.3775
19882TIP3    H281062   2.791   2.866   1.340  3.9491 -1.1297 -4.1259
19883TIP3   OH281063   2.914   5.980  16.554  0.3946  0.2371  0.3177
19883TIP3    H181064   2.980   6.024  16.607  1.0513 -0.5167  0.1279
19883TIP3    H281065   2.912   6.030  16.472  0.3618  0.5654  0.5174
19884TIP3   OH281066   0.961   2.793   4.264 -0.4566  0.3642  0.5953
19884TIP3    H181067   0.939   2.873   4.311  0.3059  0.7866  0.2309
19884TIP3    H281068   1.056   2.785   4.272 -0.3902  0.1067 -0.3501
19885TIP3   OH281069   1.679   1.776  14.502  0.1468 -0.8974  0.6812
19885TIP3    H181070   1.609   1.713  14.484  0.5568 -1.0474 -0.3980
19885TIP3    H281071   1.640   1.861  14.483  0.3002 -0.9919 -0.0638
19886TIP3   OH281072   0.073   6.420   5.575 -0.3592  0.1118  0.0746
19886TIP3    H181073   0.035   6.365   5.507  0.8804 -0.5467 -0.1072
19886TIP3    H281074   0.003   6.480   5.600 -0.3517  1.4777 -2.9566
19887TIP3   OH281075   4.199   4.342   0.450 -0.1337 -0.1569 -0.3511
19887TIP3    H181076   4.129   4.318   0.389  0.9174 -1.4102 -1.0978
19887TIP3    H281077   4.182   4.289   0.528  0.5014 -1.1509 -0.8820
19888TIP3   OH281078   4.947   1.489  16.906 -0.3826  0.6053  0.0578
19888TIP3    H181079   4.871   1.448  16.948 -0.3515  0.7466  0.2520
19888TIP3    H281080   4.910   1.560  16.854 -0.3175  1.1576  0.7556
19889TIP3   OH281081   4.230   0.798   4.641  0.2956 -0.0343 -0.7969
19889TIP3    H181082   4.293   0.868   4.627  0.3220  0.1548  0.2405
19889TIP3    H281083   4.145   0.839   4.629  0.3037  0.2323  0.0409
19890TIP3   OH281084   3.829   6.293  11.879 -0.5934  0.1546 -0.2850
19890TIP3    H181085   3.886   6.223  11.850 -1.1459 -0.8802  1.0680
19890TIP3    H281086   3.749   6.249  11.908 -0.8501  1.3002  0.8157
19891TIP3   OH281087   0.223   2.336  15.177  0.0750  0.3595 -0.1054
19891TIP3    H181088   0.198   2.250  15.212 -0.6400  1.4201  2.0851
19891TIP3    H281089   0.319   2.337  15.185  0.0521 -0.0800  0.2676
19892TIP3   OH281090   2.177   6.305  17.049  0.2239  0.7596  0.3120
19892TIP3    H181091   2.104   6.305  16.987 -0.9464 -0.1271  1.6529
19892TIP3    H281092   2.136   6.319  17.134  1.6327  0.3393  1.0794
19893TIP3   OH281093   5.954   4.757  12.713 -0.4057 -0.2459 -1.1021
19893TIP3    H181094   5.909   4.793  12.636  0.0924  0.4736 -1.0541
19893TIP3    H281095   5.911   4.672  12.727 -2.3522  0.7896 -0.5393
19894TIP3   OH281096   1.653   6.674   3.079  0.1705 -0.1572  0.1387
19894TIP3    H181097   1.615   6.718   3.156 -0.5898  0.8498 -0.7804
19894TIP3    H281098   1.634   6.581   3.092 -0.6874  0.0999  0.7688
19895TIP3   OH281099   4.062   4.757   3.213  0.7373 -0.0778 -0.1134
19895TIP3    H181100   4.060   4.686   3.277  0.0587  0.1277  0.0970
19895TIP3    H281101   4.057   4.837   3.265  0.4232  0.0964 -0.4087
19896TIP3   OH281102   2.892   6.317   1.008  0.4448 -0.2081 -0.5464
19896TIP3    H181103   2.886   6.261   1.086  1.1162  0.2577 -0.1555
19896TIP3    H281104   2.884   6.406   1.042 -2.0003 -0.1080 -1.3133
19897TIP3   OH281105   5.596   5.143   2.989  0.0146  0.1263 -0.1134
19897TIP3    H181106   5.628   5.136   2.900 -2.0731  2.7860 -1.1401
19897TIP3    H281107   5.674   5.161   3.042  1.3829 -2.2972 -1.1940
19898TIP3   OH281108   2.183   0.545  16.002  0.2004  0.3189  0.0750
19898TIP3    H181109   2.246   0.588  16.060  0.2200 -1.2724  1.2660
19898TIP3    H281110   2.102   0.593  16.016 -0.0189 -0.5696  2.0976
19899TIP3   OH281111   3.587   6.060   2.702  0.3347  0.3723 -0.3482
19899TIP3    H181112   3.671   6.106   2.702  0.6664 -0.2360 -1.0382
19899TIP3    H281113   3.540   6.094   2.626  0.8348 -0.8860 -1.2337
19900TIP3   OH281114   4.114   3.622  11.321  0.1648  0.1521  0.1258
19900TIP3    H181115   4.026   3.633  11.285  0.6016  0.5675 -0.8323
19900TIP3    H281116   4.152   3.550  11.271 -0.5638 -1.8593  2.3629
19901TIP3   OH281117   2.065   5.952   1.986  0.1834  0.0310  0.4379
19901TIP3    H181118   1.996   6.000   2.032  1.5417  1.4006  1.0597
19901TIP3    H281119   2.090   6.009   1.913 -0.0780 -0.9497 -0.4408
19902TIP3   OH281120   4.253   3.996  17.239  0.2179 -0.3383  0.0837
19902TIP3    H181121   4.316   4.019  17.170  0.6689  0.4844  0.7609
19902TIP3    H281122   4.292   3.920  17.283  0.2122 -0.5038 -0.1989
19903TIP3   OH281123   0.556   2.586  16.588 -0.2158  0.5132  0.1493
19903TIP3    H181124   0.472   2.625  16.611  0.7636  2.1924  0.9961
19903TIP3    H281125   0.535   2.517  16.525 -2.0818  1.8721 -0.7438
19904TIP3   OH281126   0.367   6.748   4.433 -0.2740 -0.6667 -0.3547
19904TIP3    H181127   0.427   6.768   4.361  0.2191  0.7572  0.4373
19904TIP3    H281128   0.340   6.657   4.417  0.8196 -0.7847 -1.6218
19905TIP3   OH281129   0.454   4.952  12.030  0.1728 -0.0165 -0.1889
19905TIP3    H181130   0.359   4.956  12.041  0.2439  1.4419  0.0092
19905TIP3    H281131   0.471   4.865  11.994 -1.3281  0.0556 -1.0898
19906TIP3   OH281132   3.368   4.194   4.770  0.3584  0.4665 -0.0707
19906TIP3    H181133   3.353   4.240   4.687 -1.0436 -0.9700 -0.6506
19906TIP3    H281134   3.442   4.239   4.810 -0.5961  2.8210 -0.8932
19907TIP3   OH281135   0.736   0.294  14.718  0.2043  0.2374  0.0923
19907TIP3    H181136   0.723   0.379  14.676  1.0421  0.8546  1.0676
19907TIP3    H281137   0.678   0.295  14.794  0.1970 -0.0765  0.0935
19908TIP3   OH281138   4.244   0.822   5.135  0.0049  0.0023  0.1595
19908TIP3    H181139   4.203   0.886   5.077 -0.4619  0.3529  0.8667
19908TIP3    H281140   4.256   0.869   5.218 -0.3222 -0.8241  0.6780
19909TIP3   OH281141   0.744   1.840  13.660 -0.4163 -0.0552 -0.2961
19909TIP3    H181142   0.795   1.912  13.623 -1.0135  1.7780  2.2927
19909TIP3    H281143   0.727   1.781  13.586  0.7077  2.0929 -2.3128
19910TIP3   OH281144   6.094   5.722  13.646  0.8921  0.7150  0.3561
19910TIP3    H181145   6.123   5.658  13.581  1.7949  0.1751  1.2844
19910TIP3    H281146   5.999   5.710  13.651  0.8833  0.4067 -0.4660
19911TIP3   OH281147   2.336   3.642  12.584  0.4941 -0.4445 -0.2668
19911TIP3    H181148   2.260   3.612  12.633  0.7221 -0.1472  0.2767
19911TIP3    H281149   2.320   3.612  12.494 -0.5949  0.2129 -0.3091
19912TIP3   OH281150   6.026   5.215  13.197  0.3638 -0.4875  0.2272
19912TIP3    H181151   5.961   5.224  13.267  0.4247 -2.5539  0.5826
19912TIP3    H281152   5.976   5.219  13.116  0.1293  0.5579  0.4131
19913TIP3   OH281153   5.445   3.657  11.479 -0.9040  0.3809  0.1726
19913TIP3    H181154   5.435   3.737  11.531 -0.1536  0.0465  0.8315
19913TIP3    H281155   5.509   3.605  11.527 -1.1897 -0.5024 -0.3966
19914TIP3   OH281156   3.975   4.123   4.263 -0.8244  0.4017 -0.1847
19914TIP3    H181157   4.032   4.127   4.186 -1.3269 -0.1612 -0.5888
19914TIP3    H281158   3.941   4.212   4.272  1.5151  1.2176  1.1413
19915TIP3   OH281159   0.146   3.044  12.584 -0.3236  0.3818  0.2596
19915TIP3    H181160   0.093   3.063  12.661 -0.5267  0.9724 -0.0193
19915TIP3    H281161   0.120   2.955  12.558  0.9822 -0.5000  1.8563
19916TIP3   OH281162   3.588   0.696  12.311 -0.1865  0.0963  0.2793
19916TIP3    H181163   3.554   0.615  12.272  0.1525 -0.1261  0.4471
19916TIP3    H281164   3.683   0.690  12.300 -0.2809  1.5376 -1.8413
19917TIP3   OH281165   2.706   3.874   1.328 -0.8083 -0.2040 -0.1075
19917TIP3    H181166   2.750   3.878   1.244 -1.6406  1.5910 -0.4921
19917TIP3    H281167   2.761   3.927   1.386  0.3668 -2.3405  0.8064
19918TIP3   OH281168   1.916   4.284   3.903 -0.2724  0.3507  0.3811
19918TIP3    H181169   1.934   4.360   3.849  0.3684 -1.6923 -2.3797
19918TIP3    H281170   2.003   4.256   3.933 -0.3815 -0.0747  0.2964
19919TIP3   OH281171   5.818   5.681   2.730  0.8582 -0.0947 -0.1566
19919TIP3    H181172   5.868   5.641   2.801 -0.8789  0.4663  1.4062
19919TIP3    H281173   5.804   5.771   2.758 -0.9013 -0.2050 -0.6206
19920TIP3   OH281174   1.162   1.286   3.326 -0.1940 -0.7247  0.0788
19920TIP3    H181175   1.225   1.347   3.286 -0.6678 -0.0303  0.3776
19920TIP3    H281176   1.213   1.240   3.393  0.1579 -0.6367 -0.1237
19921TIP3   OH281177   3.786   6.390  16.358 -0.3610 -0.2565  0.0900
19921TIP3    H181178   3.879   6.406  16.342 -0.1041  0.3424  2.0977
19921TIP3    H281179   3.784   6.331  16.434 -1.5463 -3.1176 -2.0455
19922TIP3   OH281180   2.537   2.079  11.257  0.1950  0.4483 -0.1759
19922TIP3    H181181   2.496   2.165  11.245 -2.1682 -0.1544  2.8853
19922TIP3    H281182   2.463   2.017  11.252  1.5669 -1.2166 -0.2989
19923TIP3   OH281183   4.592   4.010   3.844 -0.3127  0.0066  0.3178
19923TIP3    H181184   4.675   3.976   3.811 -0.5093 -0.3534  0.1941
19923TIP3    H281185   4.586   3.974   3.933  0.4293  1.3318  0.9244
19924TIP3   OH281186   4.219   6.500   0.257  0.0014 -0.4467  0.1883
19924TIP3    H181187   4.215   6.454   0.340  1.0882  0.0942  0.5454
19924TIP3    H281188   4.231   6.431   0.191  0.1305 -0.7818  0.5667
19925TIP3   OH281189   2.999   4.332   5.020  0.4796 -0.3474 -0.3912
19925TIP3    H181190   3.049   4.411   4.999  1.4234 -0.8485 -0.0820
19925TIP3    H281191   2.991   4.333   5.115  0.5421 -0.6427 -0.3812
19926TIP3   OH281192   0.121   3.107  16.320  0.0510  1.1170 -0.2049
19926TIP3    H181193   0.074   3.170  16.266  1.5546  1.5328 -1.0671
19926TIP3    H281194   0.170   3.161  16.382 -0.1716  0.7249  0.3080
19927TIP3   OH281195   3.208   5.169   5.281  0.5772 -0.2399  0.0138
19927TIP3    H181196   3.180   5.155   5.372  0.2447  0.3290  0.0013
19927TIP3    H281197   3.253   5.253   5.282  1.4764 -0.7143 -0.1549
19928TIP3   OH281198   0.984   2.186   1.855  0.1214 -0.6195 -0.2932
19928TIP3    H181199   1.074   2.200   1.885  0.2413 -1.3852 -0.2846
19928TIP3    H281200   0.993   2.138   1.773 -0.1966  1.8420 -1.8008
19929TIP3   OH281201   1.422   2.300   4.485 -0.2312  0.3869  0.5749
19929TIP3    H181202   1.448   2.328   4.572 -0.8264 -0.0011  0.8774
19929TIP3    H281203   1.375   2.375   4.448 -0.8794  0.1772  0.9765
19930TIP3   OH281204   3.936   5.133  15.629  0.2652 -0.4852 -0.8697
19930TIP3    H181205   3.940   5.226  15.606  1.1395  0.0774  1.4092
19930TIP3    H281206   3.843   5.117  15.643  0.2354  0.4562  0.1664
19931TIP3   OH281207   4.150   1.100   0.385 -1.0574 -0.1857 -0.7789
19931TIP3    H181208   4.206   1.175   0.366 -2.3387  0.8154 -0.6186
19931TIP3    H281209   4.190   1.028   0.336  1.4462  0.0579  0.7832
19932TIP3   OH281210   6.449   3.316   5.350  0.0837 -0.2457 -0.0190
19932TIP3    H181211   6.421   3.289   5.262  1.1295 -0.7150 -0.2074
19932TIP3    H281212   6.496   3.241   5.385 -0.2221 -0.0112  0.8992
19933TIP3   OH281213   5.137   5.741  13.828  0.6811  1.2310  0.3481
19933TIP3    H181214   5.061   5.798  13.839  0.4158  0.7852  0.8249
19933TIP3    H281215   5.194   5.763  13.902  0.6889  1.0456  0.3956
19934TIP3   OH281216   2.655   3.611   4.390  0.3356 -1.0761  0.1515
19934TIP3    H181217   2.656   3.544   4.321  0.3298 -1.4406  0.5016
19934TIP3    H281218   2.743   3.606   4.428  0.0863 -1.4196  0.6874
19935TIP3   OH281219   5.938   5.877   2.175  0.0958 -0.1491  0.1149
19935TIP3    H181220   6.018   5.930   2.170 -1.0086  1.5427 -0.0348
19935TIP3    H281221   5.960   5.807   2.236  1.9934 -0.2352 -0.6268
19936TIP3   OH281222   0.223   3.150   2.191 -0.3791 -0.1736  0.6225
19936TIP3    H181223   0.167   3.087   2.236  0.1827 -1.0235  0.1353
19936TIP3    H281224   0.192   3.151   2.101  0.3453 -0.6158  0.3603
19937TIP3   OH281225   3.536   4.127   2.257  0.0021 -0.1563 -0.4254
19937TIP3    H181226   3.456   4.137   2.205 -1.1819  0.1381  1.4146
19937TIP3    H281227   3.600   4.183   2.214 -1.4751  1.4680 -0.5589
19938TIP3   OH281228   0.706   0.481   3.161 -0.4485  0.2198  0.6288
19938TIP3    H181229   0.638   0.440   3.214  0.2880  0.2656  1.6171
19938TIP3    H281230   0.779   0.495   3.221  0.1696  0.8459 -0.2444
19939TIP3   OH281231   3.049   3.270  12.845  0.1346  0.1467  0.2284
19939TIP3    H181232   3.038   3.209  12.772 -1.7590 -0.7490  1.2066
19939TIP3    H281233   2.961   3.306  12.859  0.3145 -0.2428  2.5120
19940TIP3   OH281234   3.381   5.116   0.171 -0.3833  0.2897  0.4758
19940TIP3    H181235   3.376   5.140   0.079 -2.7662  0.4321  0.6147
19940TIP3    H281236   3.295   5.079   0.191 -0.5358  1.9588  3.1059
19941TIP3   OH281237   1.089   5.049  11.374  0.2210  0.1057  0.3988
19941TIP3    H181238   1.041   5.109  11.431  0.7538  1.8456 -0.9287
19941TIP3    H281239   1.173   5.038  11.417 -1.3024 -3.0138  2.7737
19942TIP3   OH281240   0.264   2.819   1.724  0.5880 -0.1336 -0.0103
19942TIP3    H181241   0.276   2.810   1.629 -1.5740  0.4365 -0.3605
19942TIP3    H281242   0.252   2.729   1.755  0.6850 -0.2712 -0.3609
19943TIP3   OH281243   0.525   1.034  16.836 -0.1179  0.2689  0.1750
19943TIP3    H181244   0.586   0.960  16.840 -2.4382 -1.8034 -1.1197
19943TIP3    H281245   0.464   1.019  16.908 -1.7761 -0.2046 -1.2885
19944TIP3   OH281246   1.888   0.096   5.224  0.1781 -0.0487 -0.5884
19944TIP3    H181247   1.840   0.170   5.262  0.6259  0.1103 -0.3286
19944TIP3    H281248   1.835   0.069   5.149  0.3772  1.0198 -1.1362
19945TIP3   OH281249   4.692   6.518   2.098  0.6132  0.2036 -0.4659
19945TIP3    H181250   4.657   6.466   2.170 -0.4408 -0.2435 -1.2962
19945TIP3    H281251   4.773   6.556   2.134 -0.4732  0.9075  1.3155
19946TIP3   OH281252   2.591   4.225   2.815  0.1475 -0.1284 -0.0261
19946TIP3    H181253   2.584   4.315   2.845  0.2634  0.4172 -1.5998
19946TIP3    H281254   2.500   4.200   2.794  0.1567 -0.2689  0.1001
19947TIP3   OH281255   4.431   6.327   5.193  0.0241  0.3535 -0.2222
19947TIP3    H181256   4.508   6.340   5.137  1.3532 -0.1241  1.4519
19947TIP3    H281257   4.408   6.415   5.223  0.3106  0.4323 -0.2262
19948TIP3   OH281258   4.373   1.179   2.119  0.1140 -0.2268 -0.7285
19948TIP3    H181259   4.347   1.149   2.206  1.9011  0.2425 -0.0244
19948TIP3    H281260   4.318   1.257   2.104 -1.5967 -1.4288 -0.8630
19949TIP3   OH281261   4.350   1.526  13.842  0.0395 -0.8572  0.0654
19949TIP3    H181262   4.336   1.575  13.761  0.6859 -1.2857 -0.3127
19949TIP3    H281263   4.383   1.441  13.814  1.2421 -0.6600  0.7976
19950TIP3   OH281264   1.551   1.271   3.048 -0.0627  0.3071  0.0229
19950TIP3    H181265   1.543   1.180   3.077  2.0937 -0.1064 -0.6010
19950TIP3    H281266   1.603   1.313   3.117 -0.9439  1.0479  0.2434
19951TIP3   OH281267   0.580   6.696   5.775  0.5012 -0.3183 -0.6832
19951TIP3    H181268   0.526   6.766   5.812 -1.3734 -2.4431  0.6751
19951TIP3    H281269   0.585   6.717   5.682 -1.0692  0.9611 -0.5009
19952TIP3   OH281270   0.107   5.204  16.427 -0.0959  0.5719  0.2950
19952TIP3    H181271   0.063   5.283  16.395  0.7736  0.6224 -0.8511
19952TIP3    H281272   0.139   5.161  16.347  0.4076 -0.3554  0.9837
19953TIP3   OH281273   5.763   2.046  16.394  0.1158 -0.0799  0.4372
19953TIP3    H181274   5.772   2.101  16.317  2.6960 -0.8957  0.1112
19953TIP3    H281275   5.695   1.983  16.371 -0.1626  0.5837 -0.5862
19954TIP3   OH281276   6.470   4.851   5.494 -0.1043  0.1029  0.4773
19954TIP3    H181277   6.528   4.794   5.545  1.4248  0.0240 -1.2820
19954TIP3    H281278   6.446   4.921   5.555  1.1476 -0.3296  1.5053
19955TIP3   OH281279   2.881   5.432   1.361 -0.3790 -0.1464 -0.3288
19955TIP3    H181280   2.944   5.494   1.324 -0.7146  0.3350 -0.0949
19955TIP3    H281281   2.806   5.486   1.386 -0.7660 -0.6782 -0.3349
19956TIP3   OH281282   5.820   1.983   1.906  0.8154 -0.1391 -0.7260
19956TIP3    H181283   5.894   2.013   1.854  0.5047  0.1486 -1.0003
19956TIP3    H281284   5.824   2.035   1.986  2.6065 -2.1085  0.5366
19957TIP3   OH281285   5.836   6.400   0.672  0.7736  0.2206  0.1791
19957TIP3    H181286   5.838   6.332   0.605  0.9887 -0.3331  0.7407
19957TIP3    H281287   5.747   6.436   0.668  1.8048  2.7091 -2.8822
19958TIP3   OH281288   4.520   1.129   3.265  0.2512  0.8559  0.6240
19958TIP3    H181289   4.521   1.053   3.323  1.8665  1.7460  1.8026
19958TIP3    H281290   4.539   1.203   3.323  0.4967  1.9401 -0.8172
19959TIP3   OH281291   1.335   1.905   3.596 -0.4776  0.0127  0.4788
19959TIP3    H181292   1.349   1.904   3.691  0.1768  0.8564  0.3955
19959TIP3    H281293   1.254   1.955   3.585 -1.6752 -1.8034  0.7133
19960LIG      S81294   3.220   3.512  16.504  0.1690  0.0605  0.0765
19960LIG     F181295   2.914   3.455  17.043  0.9032 -0.0993 -0.2291
19960LIG     F281296   2.976   3.286  16.928  0.4430  0.5439  0.1564
19960LIG     F381297   3.108   3.354  17.085  0.0077  0.3994 -0.4392
19960LIG     N181298   3.303   3.767  16.639 -0.2008  0.1589 -0.3639
19960LIG     N281299   3.215   3.845  16.906 -0.6656 -0.6317  0.0099
19960LIG     C181300   3.437   3.838  16.668  0.5870  0.5314 -0.1190
19960LIG     C281301   3.234   3.674  16.724 -0.5128 -0.3963 -0.7513
19960LIG     C381302   3.541   3.752  16.594  0.0134  0.3888 -0.1206
19960LIG     C481303   3.229   3.786  16.517 -0.7267  0.4045  0.4334
19960LIG     C581304   3.193   3.550  16.673  1.1940  0.8193 -0.3064
19960LIG     C681305   3.173   3.676  16.443 -0.0084  0.0681  0.1659
19960LIG     C781306   3.192   3.712  16.854 -0.2403 -0.7079  0.1450
19960LIG     C881307   3.583   3.616  16.655  0.8087 -0.3330  0.3499
19960LIG     C981308   3.122   3.457  16.753 -0.0924  0.2046  0.5760
19960LIG    C1081309   3.099   3.485  16.887  0.1164  0.3303 -0.5045
19960LIG    C1181310   3.202   3.915  16.475  0.3505  0.3995 -0.4122
19960LIG    C1281311   3.128   3.619  16.936  0.2603 -0.3742  0.0267
19960LIG    C1381312   3.074   3.701  16.340 -0.2315  0.7581 -0.1163
19960LIG    C1481313   3.640   3.632  16.798  0.1834 -1.2980  0.3553
19960LIG    C1581314   3.106   3.932  16.375  0.1198  0.6297 -0.3644
19960LIG    C1681315   3.048   3.830  16.303  0.0050  0.8567  0.9243
19960LIG    C1781316   3.025   3.396  16.988  0.1398  0.2214  0.6676
19960LIG     H181317   3.458   3.843  16.777  0.3290  0.8798 -0.0815
19960LIG     H281318   3.448   3.938  16.620 -1.1731  2.8563  4.0432
19960LIG     H381319   3.632   3.810  16.564  1.0067 -1.5355 -0.8982
19960LIG     H481320   3.491   3.726  16.499  1.0194  1.2358 -0.9062
19960LIG     H581321   3.661   3.567  16.594  0.9148  1.5203 -1.0644
19960LIG     H681322   3.495   3.549  16.654  0.2482  0.3815  0.8021
19960LIG     H781323   3.093   3.366  16.703 -1.6574  0.4531  1.0032
19960LIG     H881324   3.243   3.998  16.531  0.2077  1.1468 -1.3887
19960LIG     H981325   3.107   3.650  17.037 -2.1468  2.0780 -1.1820
19960LIG    H1081326   3.025   3.612  16.302 -0.1475 -0.0346  1.6042
19960LIG    H1181327   3.558   3.662  16.867  0.5104 -0.1186  0.2375
19960LIG    H1281328   3.723   3.706  16.807 -0.7759  0.1879 -2.2854
19960LIG    H1381329   3.679   3.536  16.839  1.4156 -1.4481 -1.1414
19960LIG    H1481330   3.085   4.029  16.331  2.3054  1.9192  1.3247
19960LIG    H1581331   2.975   3.857  16.228  1.9207  0.8779 -0.9918
19960LIG    H1681332   3.233   3.912  16.834 -1.2505  0.1511  0.5992
19960LIG    H1781333   3.181   3.867  16.997  3.3994 -0.1631  1.5123
   6.78697   6.78697  17.23950
